# vtk DataFile Version 3.0
Output file generated by Yade's KinematicLocalisationAnalyser
ASCII
DATASET UNSTRUCTURED_GRID

POINTS 13483 float
433.66 53.1804 -0.478572
528.998 63.7619 -0.51646
103.373 6.09173 0.458974
553.921 18.2543 0.446717
374.728 25.0853 0.389521
267.769 51.9987 0.576619
136.304 7.64623 -0.4592
429.875 10.5758 0.239435
372.814 51.1996 0.155709
501.864 37.2517 -0.5035
181.926 8.87777 -0.139886
221.746 6.71133 -0.262172
460.378 65.7613 -0.143063
454.135 41.6862 0.078199
118.691 19.6893 0.456143
196.785 37.8094 0.390719
189.196 13.173 0.292733
243.751 18.7264 0.496517
281.353 60.9079 0.446914
390.889 10.0501 0.366161
326.496 66.5814 -0.132969
416.999 62.4082 -0.301474
550.417 55.3321 0.495209
504.772 99.7895 0.429771
356.104 24.041 0.330245
207.062 56.9535 0.13302
371.541 58.2772 -0.46365
436.433 24.2908 -0.308171
36.9444 17.0157 -0.482721
504.09 77.7651 -0.351904
373.383 4.83576 0.500925
16.4802 26.6612 0.297822
537.774 75.3994 -0.262842
371.771 18.223 0.696959
65.6322 52.1804 0.102633
384.581 40.5581 0.434086
397.167 17.1932 -0.49021
283.805 34.9466 0.250243
400.759 28.5922 -0.325214
288.165 58.7945 0.464994
209.529 16.8889 0.460014
336.473 56.7028 0.0730072
481.044 21.4754 0.146883
165.523 6.16182 -0.555104
47.7163 10.5984 0.103272
56.9332 9.6933 0.294842
487.736 34.4917 0.543248
21.1291 12.0813 -0.311583
411.746 80.1847 0.458233
474.214 55.0654 -0.306422
147.813 37.6749 -0.30719
529.023 50.4235 0.116983
27.2594 35.1595 0.113002
399.119 2.54208 0.596706
123.833 7.48196 0.57023
426.012 49.8563 -0.471139
373.663 53.2536 0.135661
152.389 0.978831 0.293209
30.2688 2.29554 -0.360653
284.364 25.7743 0.287081
422.827 88.3572 -0.131721
360.563 60.086 -0.17751
317.689 2.52525 0.335454
495.851 34.3394 0.534036
19.2224 53.1576 -0.236363
224.496 46.7616 -0.334988
498.788 28.2092 -0.21958
473.932 89.3601 -0.343319
331.491 10.758 -0.657748
430.109 3.75243 -0.498437
513.809 36.3826 0.464768
113.591 8.03148 -0.290651
373.969 55.9957 -0.124776
361.036 32.9175 -0.0872248
249.139 25.5559 -0.456048
18.8609 14.323 0.306155
546.7 77.459 0.356548
276.013 69.0184 -0.301677
472.513 50.3484 0.357611
483.913 37.7578 -0.287327
544.564 20.54 -0.328655
361.497 64.1305 -0.19664
79.7149 46.9607 0.321392
495.315 86.8557 0.206131
452.413 79.2437 -0.0923737
550.252 68.1539 -0.112247
547.989 0.614665 0.694469
249.244 37.6482 0.443718
453.226 27.4869 -0.110437
22.857 5.80231 -0.654453
115.273 42.2496 0.177909
386.906 20.1833 0.297865
533.601 37.3893 0.605104
171.974 31.4313 0.242763
34.4439 39.9707 0.300091
381.384 1.01118 0.257869
206.527 9.21821 -0.517385
527.22 78.988 -0.337209
525.908 37.6139 0.285644
292.439 28.9254 0.290359
140.85 31.6286 0.465235
399.569 53.9945 -0.496897
305.61 18.8617 -0.541819
327.038 44.8673 -0.0990468
301.971 6.84864 0.660834
412.759 11.5965 -0.140925
551.594 32.2975 0.264267
68.4599 47.7104 -0.505889
275.436 5.98261 -0.214861
423.866 10.9297 -0.537856
303.423 62.9898 0.438929
19.8994 31.8097 0.488886
28.0016 5.51211 -0.32163
408.521 55.1128 0.51731
374.797 42.5129 0.152841
17.3842 47.1877 -0.40393
79.6371 37.2885 -0.230589
269.239 19.6039 0.387287
437.894 39.7662 -0.143485
367.486 74.6674 0.133273
497.768 6.97719 -0.561119
493.148 9.71706 -0.261371
317.504 52.5975 -0.0978945
449.745 57.1695 0.123001
208.998 20.4293 0.559127
272.279 5.71648 0.619743
86.5124 37.3331 0.314403
99.7938 26.1038 0.24618
400.963 50.2734 0.0784497
261.928 22.7687 0.485839
503.079 79.594 -0.111158
478.436 90.3388 0.116891
362.109 42.6153 -0.381494
533.266 13.2728 0.315093
336.765 35.7268 0.235935
236.663 34.7682 -0.317411
475.557 75.3559 -0.296087
241.155 42.5106 0.377302
439.14 11.3339 -0.178022
277.082 64.6423 0.189795
381.586 22.1852 0.554818
298.7 40.8328 0.108464
338.771 20.4818 0.1242
263.997 61.6607 -0.445833
168.155 32.7927 -0.129609
532.773 66.0423 -0.209661
548.631 33.4587 -0.349565
6.04295 12.8921 0.449655
337.77 29.8513 -0.417891
30.6426 25.7547 0.0706912
311.627 40.9612 -0.492023
320.912 35.541 -0.270795
63.1472 12.633 0.453888
42.2431 37.3013 0.445511
198.891 13.3137 0.477558
426.226 81.7043 -0.382942
433.345 26.1016 -0.463333
64.5054 23.9832 0.497379
506.487 104.017 -0.405744
523.16 4.02332 -0.561058
466.86 82.6529 -0.469461
488.171 17.0763 -0.551796
413.72 30.5741 -0.538724
418.665 61.7158 -0.448832
386.11 27.9289 -0.392421
553.56 13.6988 -0.398324
198.026 25.5336 0.104339
111.32 38.7869 0.0354772
216.706 9.41746 -0.617401
80.6432 4.825 -0.28864
54.8618 12.3411 0.200452
242.875 50.9602 -0.307502
15.3321 27.9839 -0.364657
421.208 21.1166 0.586931
415.918 74.4943 -0.187315
358.948 30.1568 -0.418695
555.188 86.6718 0.344682
324.983 10.7551 -0.245321
341.392 48.9094 -0.438725
406.314 3.48717 -0.319299
18.6266 28.7934 -0.424018
441.769 3.9129 0.556159
414.109 3.89021 -0.318092
180.437 11.5195 0.524259
336.75 17.6321 -0.211323
259.93 7.19735 0.437187
315.417 26.7292 -0.403284
518.09 67.4133 0.106201
170.585 28.4038 0.447609
540.45 6.29953 0.407768
515.974 60.0308 0.477275
309.25 12.2799 0.446263
487.129 3.25136 0.621668
439.202 53.8035 -0.434286
506.209 20.0128 -0.436786
348.937 68.009 0.263023
378.578 28.4623 -0.442056
357.966 75.6709 0.219997
352.022 16.0775 -0.35777
470.744 83.2809 0.256319
469.696 79.3677 0.33892
170.782 42.1197 -0.35346
545.696 17.6133 -0.11659
418.984 55.809 -0.30432
11.9751 17.7342 0.170404
327.84 37.2381 0.364559
165.211 26.4675 0.410723
80.8317 48.3208 -0.235232
530.025 29.6722 0.512201
464.651 89.1288 -0.244878
273.53 38.3784 0.402579
403.684 10.2311 0.345272
70.8803 53.0506 -0.170043
217.292 33.5028 -0.4878
419.498 31.2499 0.345913
367.511 43.0584 0.42936
230.485 0.87065 -0.433044
398.241 64.0215 -0.445816
399.575 44.3153 0.0436584
377.516 72.3162 -0.374814
381.508 6.34859 -0.683479
487.7 56.3762 0.42114
157.585 14.4793 0.183336
390.318 72.1548 0.487546
404.827 74.7076 -0.13132
61.9166 0.940178 -0.297647
220.374 5.166 -0.206065
547.393 34.8375 0.311502
544.229 22.477 -0.571744
553.405 37.8451 -0.576436
252.889 8.90861 0.319073
511.166 25.4775 -0.466235
326.554 76.7638 0.131094
357.461 0.835965 0.639364
457.608 77.5443 0.461751
17.0796 40.8466 0.294572
278.63 71.2749 0.468033
221.332 3.40319 0.444512
540.627 78.6395 0.192367
517.816 84.6612 0.261785
245.669 20.5802 0.196106
470.647 72.5897 0.0836361
425.792 2.50078 0.262991
412.178 6.82445 0.627258
83.4891 18.8327 -0.53963
254.05 0.975806 -0.343715
282.762 3.67615 -0.577121
13.2532 7.84975 0.674989
4.47897 31.8565 -0.258312
142.116 20.7815 0.330284
57.9839 47.1892 -0.22263
58.9098 33.7612 -0.308302
337.145 15.9234 -0.426414
304.292 42.045 -0.604037
527.06 51.4853 -0.129467
18.527 4.01115 0.289705
59.8361 7.55972 -0.172667
434.074 80.0719 -0.163903
247.227 0.871732 0.405956
298.751 23.3511 -0.0967342
208.845 5.76246 -0.634698
463.766 52.9331 -0.208254
355.394 12.1758 0.485646
512.721 22.1429 0.427119
448.441 61.1145 0.303457
474.832 45.7575 0.112123
333.243 36.3939 0.525049
91.3425 50.8372 0.306015
395.641 53.8475 0.0895982
502.331 12.4097 0.288127
215.558 41.1004 -0.253639
25.4166 23.5374 -0.160736
278.447 20.3136 0.68052
93.9573 43.6995 -0.593607
238.732 58.1799 -0.190795
343.547 2.43324 -0.212039
535.811 47.8053 -0.43874
481.903 2.92473 -0.641988
275.807 4.2069 0.519453
261.612 34.5161 0.173305
358.791 72.4879 0.206642
69.9327 8.63301 -0.64419
177.11 47.9071 -0.398384
527.179 41.073 -0.55526
393.012 76.4979 -0.0698085
179.148 43.4997 0.35434
142.678 50.7211 -0.370904
553.626 61.9273 -0.43884
550.417 33.238 -0.650374
468.505 4.57275 -0.616391
169.089 27.4475 -0.101785
413.023 34.4418 -0.11474
416.196 31.8435 0.34802
329.299 7.71281 -0.124988
377.974 0.782656 0.444529
524.464 52.4927 0.502864
73.6174 38.4557 -0.219356
473.325 41.2717 0.47539
233.822 24.636 -0.323899
8.47387 2.53766 0.403119
110.242 40.6845 -0.258711
59.1537 28.2763 0.470008
504.732 87.1784 0.302416
540.015 87.0826 -0.175306
164.307 31.4628 -0.185524
547.181 30.2418 0.544638
36.2367 41.6717 0.258734
79.5288 33.6598 0.153614
463.768 37.7349 0.349496
329.904 24.9187 -0.488888
395.62 18.2295 0.148004
212.083 35.0277 -0.177776
455.594 25.9387 -0.533415
554.06 31.3867 0.47984
19.787 41.1291 -0.277279
236.658 8.50907 -0.302753
197.174 15.5065 0.291898
1.05469 36.259 0.157784
200.029 14.3878 0.449728
186.606 11.1208 0.13324
193.288 27.999 -0.322226
116.715 31.9885 0.118135
418.211 15.5239 -0.414221
146.926 16.3196 -0.425568
537.454 71.9966 -0.243706
153.693 5.92083 -0.638327
38.3401 42.147 0.365338
519.766 77.9525 0.562235
246.399 44.3699 0.413182
477.065 63.2678 -0.489039
544.757 65.0981 0.510522
251.969 10.7397 0.242412
506.514 56.0204 0.442289
273.762 2.67405 0.526458
332.797 29.6097 -0.478684
478.444 42.1402 -0.544912
92.1055 12.0342 -0.539738
380.198 5.30982 -0.665477
514.378 19.8748 0.286275
75.791 7.92661 0.300166
239.694 22.2926 0.193478
339.294 13.2215 0.292463
555.224 9.29924 0.539845
321.264 1.9012 -0.569173
156.301 43.0569 -0.271422
504.663 9.99434 -0.450618
113.3 40.009 0.192384
232.466 45.5228 -0.36355
323.646 27.634 0.232708
441.225 13.8677 0.435982
312.397 10.1982 -0.600156
354.703 48.1491 -0.435748
530.485 64.0946 -0.513925
41.1724 14.8255 -0.126211
262.22 45.2584 -0.366227
313.185 33.3518 -0.455805
328.167 24.4871 -0.327943
392.833 51.0554 -0.423245
534.776 79.9034 0.272342
475.806 80.4854 -0.346723
203.959 42.2009 0.417281
12.3107 39.7747 0.152483
467.759 79.2764 -0.148615
388.722 57.4113 -0.603626
205.224 48.0144 -0.0989243
491.544 83.4979 0.107309
133.504 9.71764 -0.252818
302.182 29.8975 0.358865
359.696 74.3659 -0.098909
330.929 27.8903 -0.237326
524.653 66.4706 -0.362932
343.739 5.56533 0.60885
41.2874 28.7576 0.319149
370.536 68.5765 -0.36611
341.45 53.926 -0.467843
543.807 68.6154 -0.26817
508.943 53.0841 0.29034
413.277 20.8351 -0.187115
537.655 63.0608 -0.574577
246.9 2.25119 -0.53487
313.72 39.2522 -0.55765
21.0218 48.1828 -0.30565
514.288 51.9066 0.168737
444.623 41.9176 -0.467207
362.518 0.815855 0.659629
110.74 5.1668 0.414694
341.048 60.778 -0.120601
10.9176 0.937867 0.349398
550.806 16.5077 0.106846
307.318 46.7347 -0.451997
[...]
POINT_DATA 13483
TENSORS Strain_matrix float
-0.0847302 -0.0512118 0.865393 
0.0957893 0.0521189 0.973755 
0.000216839 0.00334081 0.198492 

-0.00148803 -0.0143304 0.36521 
-0.0174095 0.00438907 -0.202593 
-0.00134539 0.00190341 0.186461 

-0.0133352 -0.00195153 8.72337e-06 
0.0031887 -0.00594782 -0.0174744 
3.66317e-05 0.00212273 0.0284819 

0.0400424 0.00622529 0.291061 
-0.0095642 0.0575732 0.299633 
-0.0129768 0.0228836 -0.0526951 

-0.0740823 0.139561 0.0930511 
-0.205128 0.108874 -0.186616 
0.0305514 -0.00923749 -0.0460775 

-0.161438 -0.156574 -2.80474 
0.113522 0.231852 0.667602 
-0.00704474 0.00400069 -0.233183 

-0.0224527 0.037061 0.003367 
0.0164306 0.0193942 -0.192954 
0.000672305 -0.00340897 0.15268 

-0.0275504 -0.0174433 -0.0785211 
-0.0156727 0.00792909 0.0221133 
0.0104642 0.00100668 0.0243564 

-0.0491136 0.181424 0.0512353 
-0.330122 0.222406 -0.0277368 
-0.0152513 0.0198402 0.177673 

-0.0706338 -0.0603828 0.0677354 
-0.00715385 0.027941 0.140958 
-0.00499206 0.000986959 0.0938315 

-0.00570511 0.00712107 -0.0297468 
-0.0257999 -0.000225146 0.0479249 
-0.0546049 -0.0260753 0.229066 

0.0112811 -0.0138377 0.262968 
-0.112288 -0.0230171 0.0666417 
0.0649262 -0.0596908 0.188793 

-0.0509336 -0.0567258 0.0837086 
-0.0358359 0.0335354 -0.139253 
0.000994374 -0.0043952 0.0279273 

-0.195821 0.0564954 0.162935 
0.0203471 0.104504 -0.164669 
-0.0110083 0.0137121 0.0537089 

-0.0258389 0.0134467 0.839208 
0.00878233 0.0427782 1.40892 
-0.000991391 0.00051586 0.016803 

0.0312515 -0.187158 0.330101 
0.238706 0.0267692 0.217981 
-0.00370902 0.00584779 0.187707 

0.00057741 -0.00436622 -0.0134259 
0.00389474 -0.0337208 -0.0124818 
0.000314079 0.000719795 0.0483629 

0.0168044 -0.112464 -0.104082 
0.205066 0.0210476 -0.0684469 
0.0102481 -0.0141471 -0.0270657 

0.0997622 -0.0298092 1.47978 
0.070666 0.0705216 0.779118 
-0.0422742 0.028788 -0.0530579 

-0.00599522 -0.0332929 -0.0225244 
0.0294587 0.00933952 -0.0279368 
0.00630656 -0.000829715 -0.000661712 

0.056628 0.212202 0.300942 
-0.562273 0.226874 0.67518 
0.0165853 0.0130273 0.431731 

0.00355604 -0.0588475 -0.200043 
0.0274482 -0.0347516 -0.184556 
0.0125462 -0.00875229 -0.0164094 

-0.00156918 0.0618199 -0.918439 
0.114489 0.0176333 0.805387 
0.00590058 -0.00125575 0.0460726 

-0.126917 0.938455 90.2811 
-0.00267519 0.0307515 15.096 
-0.00561553 0.0347039 2.27097 

-0.0158811 -0.0470061 -0.245509 
-0.0997875 -0.00245284 0.0719364 
0.0080575 -0.00819396 0.150467 

0.121398 -0.472534 0.0436869 
0.473942 0.116841 -0.0596848 
0.0189663 0.00977074 0.0296971 

0.0450023 0.0138019 0.500892 
-0.0438506 -0.0231795 -0.799325 
-0.0275528 0.00299093 -0.123472 

-0.41961 -0.592049 0.389087 
-0.0864149 0.211145 -0.184653 
-0.017367 0.00249803 0.0720128 

-0.112846 -0.0632727 -0.727518 
0.232303 0.132916 -0.150239 
-0.00431155 -0.00188023 0.11041 

-0.00782685 -0.0181633 -0.107833 
0.132555 -0.0149481 -0.132281 
0.0528562 -0.0462439 0.355878 

-0.0109853 0.0461114 -0.0253517 
-0.0470921 0.0104011 -0.18406 
0.000755131 -0.000323516 0.0290668 

0.00528604 -0.114938 0.0526208 
0.0371329 0.0305083 0.296535 
-0.000663437 0.000266339 0.0214986 

-0.00457344 -0.020537 0.0603445 
0.0442855 0.00949627 0.01311 
0.0165395 0.0313605 -0.0573978 

-0.0746295 -0.134573 3.81449 
-0.0450681 0.085399 4.15549 
-0.000131022 0.000313062 0.4159 

-0.00621862 -0.126433 0.0200712 
0.140848 0.00744034 0.0132065 
-0.00250172 -0.0650084 0.194151 

-0.0695713 -0.151288 0.688428 
-0.0371503 0.0371843 0.76967 
-0.0128021 0.0128138 0.0927483 

0.00440595 -0.0297014 0.171431 
0.0141196 0.0327045 0.622953 
-0.00428598 -0.00250573 0.111899 

-0.186979 0.42297 -1.30726 
-0.461412 0.2759 -0.317795 
0.00195137 0.0466379 0.135363 

-0.0628058 -0.275762 -0.26438 
0.141699 0.158193 -0.267977 
-0.0239231 -0.00582695 0.0939101 

-0.00332828 0.0313941 -0.908626 
-0.0717132 0.0555774 -3.48963 
-0.00141006 -0.00196284 0.0503727 

-0.057379 0.0586013 0.906124 
0.0340507 -0.0255717 -0.45238 
0.00922369 0.0111198 0.185537 

0.0736633 0.286752 -0.108104 
-0.413902 0.0828021 0.180788 
-0.102962 0.070979 0.402259 

0.0202688 -0.0955786 -0.0474759 
0.0361906 -0.037425 -0.0165998 
-0.00119483 0.00115627 0.0240263 

-0.00878121 -0.00714471 0.10976 
5.65902e-05 -0.00107147 0.0312277 
-0.000664723 0.00106749 0.0266918 

-0.215346 0.0324695 0.44141 
-0.101587 0.0486772 0.27806 
-0.0277025 0.0855578 0.203693 

-0.0267863 0.0852168 0.064393 
-0.139939 0.0354308 0.218116 
-0.00126032 0.101544 0.189673 

-0.00281566 -0.059139 0.0237554 
0.0500207 -0.00771408 0.0588657 
-0.000330256 0.00134792 0.0114357 

-0.00592552 -0.10915 0.079171 
0.10191 0.0435674 -0.165081 
-0.083525 0.0559993 0.058538 

-0.111523 0.0267443 0.651028 
0.0378439 0.135086 1.41859 
-0.00699923 0.0119524 0.012327 

0.00536934 0.0550692 -0.010903 
-0.0125378 0.0312144 0.140524 
0.0209609 -0.0222963 0.0284948 

-0.0203926 0.0374575 0.022526 
-0.00746642 0.00163468 -0.0245612 
-0.00127734 -0.0129119 0.0832975 

-0.00811312 0.051546 0.0632141 
-0.0274309 0.0151177 0.0241396 
-0.00198205 -0.0126076 0.010935 

-0.110678 -0.189703 0.293677 
-0.0836931 0.0903608 -0.488607 
-0.00670483 -0.00362844 0.0141597 

-0.048123 -0.00929841 0.0738481 
-0.00975308 0.00389273 -0.0281845 
0.00440106 -0.000402468 0.00281335 

-0.0460043 -0.0371526 -0.229038 
0.071845 0.0175054 1.0718 
0.000378831 0.000513341 0.202217 

-0.00822989 0.0048032 0.142097 
0.00850616 -0.00302362 -0.196673 
0.0053665 0.00428877 0.0823902 

-0.0345831 -0.193242 0.635846 
-0.169899 -0.0455898 -0.0399994 
-0.00774827 -0.0393902 0.063678 

-0.0126796 -0.162921 0.455996 
-0.0416928 -0.160981 0.273192 
-0.00185243 0.0303724 -0.0667054 

-0.0160644 0.0357762 0.101234 
0.027198 -0.0452067 -0.0815507 
0.00446052 -0.0019518 0.0215916 

-0.0226366 0.332846 0.568362 
-0.0600425 0.0507618 1.48729 
0.000752207 -0.0195136 -0.0144713 

-0.0796193 -0.0307693 -0.802133 
-0.0107397 0.137236 0.257863 
0.000220823 -0.00823643 0.0239438 

-0.00818532 0.0226275 -0.00953087 
0.0470876 -0.0075968 -0.567679 
0.00299449 0.0023314 0.0256036 

-0.0395427 -0.0151735 -0.0386703 
0.0228688 0.00867711 0.0385353 
-0.00196538 -0.00109529 0.0298204 

0.000511768 -0.0339358 0.0400599 
0.025544 -0.015679 0.0220362 
-0.000634469 -0.00164293 0.0224033 

-0.0437466 0.12942 -0.148252 
-0.0730746 0.0508161 -0.0785952 
0.00822434 0.0417555 0.122268 

-0.382797 -0.173264 0.527843 
0.263226 0.433329 -0.147287 
-0.00131427 -0.0410258 0.142399 

-0.0722212 -0.052109 -0.016517 
-0.0028459 0.0201671 0.38057 
0.0130766 0.00954048 0.292554 

-0.0108662 0.0449793 -0.0400932 
-0.0247298 0.00464386 -0.0346472 
-0.0418581 -0.0376995 0.144389 

-0.12493 -0.0482426 1.34575 
-0.0765595 0.112803 1.86876 
-0.00605705 -0.00871656 0.0879629 

0.0193564 0.0113335 -0.0258265 
0.028398 -0.0131912 0.0324579 
-0.00204161 -0.00673758 0.00158709 

0.0444186 0.209076 -0.241013 
-0.236418 0.0409608 0.189267 
-0.0183046 -0.0251294 0.0515043 

-0.00436706 -0.0194215 0.00444586 
0.000429478 -0.0130017 0.00975949 
0.00157866 -0.000445283 0.024037 

-0.160279 0.090075 -0.309346 
-0.0686627 -0.00403292 -0.66936 
0.000448288 -0.0413364 0.0842169 

-0.027864 0.0011507 -0.139855 
0.0623763 -0.0210215 -0.128686 
0.00723121 0.00210368 0.0715133 

-0.0310376 0.0819771 -1.02522 
-0.130596 -0.0403578 1.2512 
-0.000852382 0.012709 -0.0168509 

-0.0736049 -0.0623275 -0.0477033 
0.077088 0.029267 0.0571246 
0.0453446 0.0298671 0.0743496 

0.0287989 0.0690772 -0.171456 
0.0949562 -0.0419628 -0.374327 
0.00279345 0.0278514 0.0235576 

0.155972 -0.0723053 0.836724 
0.10113 -0.0942238 1.25774 
0.0141823 -0.0736579 0.89383 

-0.0514894 -0.192073 -0.0280861 
0.13243 0.104811 0.286305 
-0.00511272 -0.00150958 -0.0760225 

0.011045 -0.049286 0.0295094 
0.0250759 -0.0147421 -0.0300039 
-0.00941234 -0.00016877 -0.0236039 

0.00221576 -0.146445 -0.125504 
0.146488 0.0726803 -0.309446 
-0.000844845 0.00594738 0.00517347 

0.00477424 -0.0162697 -0.0328163 
0.0255764 -0.0257903 -0.144964 
0.000245215 -0.000180391 5.07931e-06 

-0.256178 0.0928906 -1.08906 
-0.0728446 0.184113 0.203762 
-0.0411686 0.0160613 0.357835 

-0.0472988 0.337471 -0.38775 
0.00518124 -0.0440435 0.140211 
0.0273554 -0.0111177 0.144904 

-0.0231141 -0.0268937 0.0168388 
0.0210487 0.00752785 -0.0017446 
0.000733265 0.000813232 0.0244211 

-0.0186179 0.0797222 0.05634 
-0.0312266 0.0341908 0.0698825 
0.000729024 -0.00718296 0.0354879 

0.00345362 0.236625 -0.655924 
0.0132701 0.0581184 1.67662 
0.00185847 0.0165332 0.211159 

0.0875201 0.369325 -1.08038 
-0.24618 0.0134736 0.0934257 
0.000909676 -0.000955915 0.0458457 

-0.0444626 0.04277 0.120301 
0.0045975 0.00522444 0.133849 
0.0055348 -0.00429767 0.0605689 

-0.0312075 0.0289094 2.12524 
-0.0367322 0.0217033 -1.83306 
-0.00111131 0.0073467 0.16414 

0.00326913 -0.0559613 -0.00253483 
0.0714892 0.00613148 0.00377978 
8.60855e-05 -0.00124475 -0.0051192 

0.0152376 0.00600717 0.0211553 
-0.00879615 0.0173733 -0.0547718 
0.00173209 0.00249176 -0.0299273 

-0.0140667 0.00177775 3.45797 
0.000901431 0.0137469 -3.6206 
-0.000305284 0.000592397 0.202806 

-0.0155805 -0.0477588 -0.0732397 
-0.0456617 -0.00511699 0.0930751 
0.00421276 -0.000789338 0.0280774 

0.0105407 0.0306952 0.115917 
-0.0865071 -0.0221267 0.21381 
-0.00180944 -0.00124908 -0.0145992 

-0.00835657 0.0129741 0.017762 
-0.000243701 -0.0128366 -0.0115096 
-0.0036768 0.00640873 0.0307302 

-0.0565959 -0.119764 0.0291499 
0.203533 0.0905892 0.0436358 
0.0450106 0.0188669 0.109592 

-0.00907201 0.00558192 0.0107854 
-0.0104979 -0.00111798 -7.57149e-05 
0.000799341 -0.000927941 0.00460321 

-0.260886 -0.51421 -0.0995111 
0.26874 0.431332 0.32737 
-0.0330422 -0.0192791 -0.118459 

-0.0444952 -0.292003 0.128089 
0.022334 -0.00208342 0.549278 
0.0234521 0.00901278 0.057153 

-0.0336822 0.0205632 -0.971245 
-0.0104907 0.0381077 0.268456 
0.00170107 0.00194267 -0.201395 

-0.0214824 -0.08084 -0.310374 
0.0437102 -0.00337143 0.175699 
0.000886153 0.0051062 0.109139 

-0.0675508 0.0186422 -0.267906 
0.142925 0.0418953 0.117905 
-0.00531022 0.00552386 0.187638 

-0.330996 -0.0339033 0.0654347 
0.0704245 0.489559 1.41471 
-0.00319532 0.0151619 0.0294592 

-0.0280263 0.00214184 -0.367335 
0.0148977 -0.00959485 0.430763 
0.00215265 0.00462581 0.106368 

0.00304711 -0.0117238 0.027953 
-0.00124184 -0.012413 -0.00440733 
-0.000693921 -0.000579233 0.0299424 

0.0115115 -0.0528072 -0.0643917 
0.118578 -0.0301614 -0.0352459 
0.00794182 -0.00598814 -0.0207529 

-0.0270018 -0.174149 2.58576 
0.166671 -0.027599 8.0804 
0.000749836 0.0102805 -0.197122 

-0.0256847 0.106619 0.0173443 
-0.0768855 -0.0288296 0.145164 
-0.0233917 -0.00568088 0.153808 

-0.00496813 0.00608877 0.884507 
0.0061907 -0.00820014 -0.0930277 
0.00123547 0.000605746 0.125287 

-0.667031 -0.659086 -14.2599 
-0.0471979 0.171358 -3.57823 
0.015154 0.000370579 0.624524 

-0.0911481 -0.148136 3.0162 
0.105433 0.103976 -6.3175 
4.0501e-05 0.00654878 -0.151579 

0.0101303 0.00918856 0.0431357 
0.0151817 -0.0461751 -0.0922157 
-0.00017496 -0.00160082 0.0403132 

-0.0134128 -0.0328913 0.505699 
0.00574738 0.0183387 -0.740875 
-0.00141681 0.000661129 0.02305 

0.0497478 -0.0347357 0.200356 
0.0290716 -0.0233628 0.497677 
-0.00299264 -0.00858842 0.0345382 

0.0186328 0.103091 0.102253 
-0.0640937 -0.000301738 0.133166 
0.00527554 0.00906693 0.0741781 

-0.179147 -0.00294367 -0.470126 
-0.267888 0.216013 0.646145 
-0.00435532 -0.0733526 0.307821 

-0.314123 0.472529 2.4394 
-0.0997613 0.259309 1.9369 
0.00410351 0.0156704 0.0953812 

-0.0085629 -0.0530967 -0.0186628 
0.0704083 -0.013233 -0.0369163 
-0.00248518 0.00902102 0.0489411 

0.00594627 -0.0447679 -0.024471 
0.0564173 0.00828395 0.0164967 
0.00012206 -0.000604614 -0.0158289 

-0.00170561 0.00543191 0.00607871 
0.0372198 -0.0333475 0.00990791 
0.00199255 0.00460359 0.00161127 

-0.0306421 -0.000607353 -0.306847 
-0.0407339 -0.0736213 -0.0161528 
0.0136239 -0.0220607 0.0374142 

0.149686 -0.559199 0.508188 
0.632607 0.336222 -0.723205 
0.00524916 0.0985167 1.29669 

-0.0157395 0.0294257 -0.119345 
-0.1405 0.0334866 0.0657235 
0.00708247 0.0106671 0.0186748 

-0.11552 0.0576416 -4.09438 
0.095697 0.116051 0.457313 
-0.00538604 4.89804e-05 0.224938 

-0.0335134 0.0502433 0.543385 
-0.0320491 0.0156421 0.509508 
0.00607142 -0.00127991 0.181086 

-0.309322 -0.174433 1.29363 
-0.0818838 0.288434 -0.1276 
0.00930001 -0.00363948 -0.0295592 

0.0291797 -0.0275868 -0.00869494 
-0.0100411 -0.0124179 -0.14082 
0.00144335 -0.0043 0.00959241 

-0.101364 -0.0747669 0.0479062 
-0.0168797 0.0543733 -0.114288 
-0.00784679 0.0283932 0.18888 

-0.00830291 0.0695052 0.210247 
-0.240182 0.0456468 -0.140183 
0.000206409 0.00289974 0.109543 

-0.0464055 0.0757423 0.0832276 
-0.047299 0.0235483 -0.145305 
0.0796124 0.0505205 0.379116 

0.00870903 0.0380123 -0.00361585 
-0.0194018 -0.00195085 0.0279136 
0.00319576 -0.00123041 0.00481173 

-0.105329 -0.0275874 0.9163 
-0.0602838 -0.000144776 2.15309 
-0.00817067 -0.00697778 0.0487685 

0.00451104 -0.0915061 -0.0172399 
0.108044 0.0371351 0.0295465 
0.00416158 -0.00425762 -0.0236186 

-0.139233 -0.0259958 1.31714 
0.110565 -0.144312 -0.971271 
-0.0141412 -0.012428 0.0839643 

-0.287769 0.0148469 -0.418091 
0.206508 0.165534 0.443599 
0.00153864 0.00233807 0.0535473 

0.0222729 0.032231 -0.644631 
0.0179521 -0.0682602 1.50562 
0.0132998 -0.00281932 -0.00703469 

-0.0807816 0.0737394 -0.0985044 
-0.134614 0.139382 0.217585 
-0.00937037 -0.00235809 0.0446191 

-0.0686548 0.0371611 -0.0358147 
-0.0149632 0.000534823 0.0503263 
-0.0236084 0.00842613 0.054049 

-0.00964542 -0.0699951 -0.018126 
0.00550734 -0.0540231 0.166251 
-0.0802854 0.0522138 0.425514 

-0.0107975 0.0693926 -0.374426 
-0.0639272 -0.0106394 0.0314409 
-0.0014134 0.00576272 0.301387 

-0.0947952 -0.171148 0.604258 
-0.117015 -0.0449987 0.283421 
-0.0172978 -0.016779 0.297262 

0.0925211 0.131049 -0.581375 
0.0560455 0.0264518 -0.140148 
-0.00411132 0.029766 0.1082 

-0.14475 0.000555864 -1.10976 
-0.0719773 0.217945 -0.905983 
0.0236826 0.0518123 0.363333 

-0.0216076 -0.00373757 0.127886 
-0.0202096 0.0150797 0.129884 
-0.00150278 -0.000706573 0.0188213 

0.0132134 -0.00919631 -0.0468069 
-0.00524888 -0.00373017 0.0629506 
0.0127094 -0.0185621 0.0611706 

0.016062 -0.0418658 -0.00757225 
0.0728419 -0.000850887 -0.0957557 
-0.00256432 0.00929646 -0.00478767 

0.00166168 -0.0391541 -0.448811 
0.0410673 0.00384293 -0.128587 
0.00252255 -0.00126872 0.0367333 

-0.112078 0.13553 -1.21607 
-0.0672394 0.0457562 -0.297082 
0.0245491 -0.0234425 0.0999178 

-0.0186407 -0.0763349 -0.173493 
0.182366 0.0464501 -0.193405 
0.0295102 -0.0105874 0.0147105 

-0.324111 0.0724292 0.725701 
0.206685 0.13272 -0.653145 
0.0101676 0.0155062 -0.0630183 

-0.271123 0.471279 0.114491 
-0.330905 0.339865 1.1598 
-0.0312564 -0.0065557 0.0854208 

-0.0705479 -0.0922467 0.124088 
0.160522 0.0414917 0.173198 
0.023285 0.0119323 0.100546 

0.0236414 -0.0542612 1.25992 
0.00356905 -0.0181068 0.294374 
0.00937698 -0.00755162 -0.0392529 

-0.0115731 0.0520957 -0.045081 
-0.0817814 -0.00469694 -0.0895388 
0.00774613 -0.00146214 0.0412177 

-0.0104941 -0.0139797 0.0287082 
0.0208932 -0.0130127 0.0064709 
-0.0063474 -0.00153737 0.00848388 

-0.19995 -0.257598 -1.68181 
0.0168615 0.170821 0.225272 
-0.00666411 -0.00859522 0.0480391 

-0.15394 0.15155 -0.938073 
-0.187326 0.168723 2.32665 
0.0127926 -0.00792696 -0.026226 

-0.152495 0.832529 -1.40284 
-0.0334146 0.317636 -3.1714 
0.00973423 -0.09831 1.02034 

-0.017865 -0.003127 0.00171565 
0.0121047 0.0176909 -0.00189737 
5.56649e-05 -0.00109242 -0.000283185 

-0.00451477 0.047157 0.0488172 
-0.0497344 0.00638572 -0.0608425 
0.00484409 0.00504924 -0.0113984 

-0.146052 0.0888776 0.0823509 
-0.0824878 0.204073 0.245365 
0.00983248 0.0194255 -0.00709468 

-0.219174 -0.100461 -0.887513 
-0.0730351 0.0521251 0.482306 
0.0010567 -0.00246594 -0.00473386 

0.00399264 -0.0541359 0.0588489 
0.0435768 -0.010408 -0.161028 
-0.000187021 -0.000418712 -0.0360834 

-0.0151771 0.036389 -0.361787 
-0.0787748 0.000255874 0.413824 
-0.00279749 -0.00294711 0.0885357 

0.0614684 -0.0163019 0.0850349 
0.0114258 0.0140374 0.0194672 
-0.00373418 0.00257674 -0.0177696 

-0.0520228 0.271626 -0.0901462 
0.12226 0.0170446 -0.0779071 
0.00623577 -2.55538e-05 0.0331316 

-0.0225012 -0.0483929 -0.0613055 
0.0607491 0.00391666 -0.0262949 
0.0188655 -0.039138 0.316538 

-0.123706 -0.00509839 1.22131 
-0.223166 0.0115256 3.94866 
0.0139688 0.0125489 -0.358181 

-0.0353831 -0.0645232 -0.21572 
0.0236461 -0.00645917 0.149918 
0.00172603 -0.00940283 0.0181231 

-0.0808754 0.166904 -0.088571 
-0.1561 0.0175713 0.0651597 
0.0591769 -0.00173008 0.427124 

0.0305208 0.201978 0.0853205 
-0.219565 0.0271039 0.056594 
-0.0016445 -0.00206362 0.0179809 

-0.0233658 -0.0887902 -1.65515 
0.126648 0.0913171 -0.664402 
0.00014588 0.000268848 0.0208648 

-0.0356059 -0.147003 -1.08383 
0.103598 0.0708664 0.634198 
-0.0034018 0.00233254 0.188433 

-0.300208 -0.299919 0.02485 
0.177413 0.194585 -0.162343 
-0.0370632 -0.00394125 0.123444 

-0.171024 -0.0552422 0.0946179 
0.107398 0.133397 -0.566024 
0.00149418 -0.00345067 0.0344694 

-0.0729443 -0.0930015 -0.293284 
0.0901483 0.0221466 -0.743288 
-0.018549 0.00168169 0.272007 

-0.0216335 -0.0271481 0.0180933 
0.0115558 0.00658668 -0.00130939 
0.00338336 0.00244983 0.0157085 

0.0416747 -0.259118 -0.903438 
0.127327 0.0351664 -1.47108 
-0.00504388 0.00903393 -0.0716133 

-0.0100701 -0.0289723 -0.0391216 
-0.00385421 -0.0114179 0.0456765 
-0.00459183 -0.00223873 0.0981914 

-0.26764 -0.206159 1.22045 
0.321553 0.282137 -0.754584 
-0.00905982 -0.0046692 -0.0412402 

-0.0427265 -0.0262486 -0.110768 
0.00567046 -0.0345444 0.207953 
0.00698081 -0.0123714 -0.0048811 

-0.00855657 0.00681313 -0.0434906 
-0.0059422 -0.016275 -0.00342442 
0.00276511 -0.00312486 0.0611062 

-0.016718 0.00202728 -0.300121 
-0.0285262 0.0122198 -0.742866 
0.00526787 0.00266188 0.240052 

-0.509252 -0.264218 -0.472237 
-0.19065 0.218924 0.333138 
0.00507626 -0.0443148 0.22059 

-0.0461232 -0.0253653 -0.467517 
0.0336452 0.0315115 -0.759214 
0.0309575 0.00976112 -0.272492 

-0.410609 -0.0387256 -0.720006 
0.00422141 0.368071 0.504559 
-0.0139807 0.0952405 0.230496 

-0.00588393 -0.0128731 0.00395243 
0.000559306 0.000170253 -0.0133365 
0.00290111 0.00283528 0.00928401 

-0.0822449 0.0516199 0.409597 
-0.077942 0.044699 -0.297658 
0.00122692 0.00309197 0.114785 

-0.0135368 0.0483741 -0.0185552 
-0.0337318 0.0281363 -0.0203787 
0.00572661 0.00321289 -0.0136227 

-0.00490794 0.000390245 0.072807 
-0.0285294 0.000638847 -0.0518831 
-0.000882165 0.00134825 0.00171297 

-0.111803 -0.0416361 -0.00101104 
-0.0141371 -0.0163361 0.154626 
-0.00125459 -0.0254149 0.155502 

-0.014447 0.0370996 0.451504 
-0.0349017 0.0160293 0.210824 
-0.00174575 0.00396651 0.0978774 

-0.0323115 -0.0255807 0.191553 
-0.00530209 0.0329297 1.21131 
-0.00283857 0.00413374 0.193465 

-0.0335884 -0.0389385 -0.136583 
0.108671 -0.000959012 0.33321 
0.0068076 -0.000321313 0.0413875 

-0.797979 -0.240662 -0.895293 
-0.651932 -0.30181 0.74272 
-0.0493566 -0.0955519 0.534838 

-0.120126 -0.111846 0.195154 
-0.292201 0.062402 -0.0851083 
-0.0155867 0.00157465 0.0741483 

0.0123226 -0.135818 -0.0716568 
0.196067 -0.0524759 -0.239794 
0.0110103 0.0754492 0.304755 

-0.0130794 0.00109768 -0.0427491 
-0.0399871 0.000526743 0.0517686 
-0.000515427 -0.0106991 -0.0101126 

-0.00125138 0.0489069 0.011214 
-0.0468669 0.00352272 0.000165324 
-0.00343616 0.000618364 -0.0385838 

-0.0119968 0.0679902 0.0212417 
-0.024669 -0.00287614 0.0151247 
0.00151557 0.000751121 -0.0148674 

0.000203889 0.030921 -0.010629 
-0.0224289 -0.00738075 0.00886725 
0.00137879 0.000278916 0.0139078 

0.00195742 -0.12002 0.173727 
0.135316 0.1003 -0.0959569 
-0.017576 0.00630654 -0.12817 

-0.000538969 -0.0436312 0.00331131 
0.0393494 0.00611889 0.0328039 
0.0005435 -0.00020053 -0.00237274 

-0.00164926 0.00107232 -0.00283356 
-0.00718277 -0.00478154 -0.00247103 
0.00160989 0.000927425 0.00666992 

-0.188202 -0.0814498 0.386996 