# vtk DataFile Version 3.0
Output file generated by Yade's KinematicLocalisationAnalyser
ASCII
DATASET UNSTRUCTURED_GRID

POINTS 13483 float
407.791 47.9677 -0.521477
481.989 82.4995 0.545009
105.021 5.92723 -0.491459
512.155 14.7434 -0.439073
346.173 9.3824 0.710308
255.689 57.5839 -0.499999
132.863 9.11306 0.52362
396.594 10.023 0.184977
364.375 65.0884 0.152004
467.782 12.4244 0.594544
180.144 8.57127 0.158975
219.83 9.49584 0.307494
432.796 76.9705 -0.157178
425.728 49.3027 -0.0813647
117.883 22.8967 0.556986
187.055 36.1246 0.474543
187.108 13.0007 -0.341198
241.817 20.1083 0.471462
278.848 64.3225 -0.455474
361.247 11.3781 0.544776
306.593 62.6034 -0.103338
387.675 76.4966 -0.258682
506.699 52.8166 -0.568222
475.011 95.0698 -0.427049
340.225 42.4844 0.325241
198.851 53.0868 -0.147885
358.873 69.8425 -0.461975
403.474 24.6717 0.267558
39.6874 15.8274 0.559419
460.626 32.8152 0.420799
344.74 14.6291 -0.357668
14.1557 23.7006 0.435832
493.07 86.6636 0.271143
348.852 2.34083 0.687002
68.7037 48.5181 0.116982
366.657 56.1318 -0.392096
365.981 20.337 0.616401
267.991 25.509 0.273207
367.987 31.9682 -0.347905
269.392 39.2024 0.395314
205.808 15.5209 0.370544
317.339 55.5386 0.0845525
430.051 7.51331 -0.111956
163.695 6.12315 0.496168
49.3532 7.49968 -0.0876272
60.4823 9.80285 0.255645
441.835 9.82088 -0.671566
20.8549 13.0009 -0.320361
396.021 80.8478 -0.413772
457.629 75.4503 0.315714
148.187 36.6767 0.427886
481.58 65.9328 -0.132444
30.4818 30.5757 0.118673
368.241 5.28103 0.499977
123.215 10.9535 -0.56119
401.167 48.3621 0.498664
369.6 71.4622 -0.122637
147.723 0.943669 -0.316667
28.6607 2.32841 -0.357422
270.751 20.3234 0.354348
402.732 92.1118 0.131529
328.422 69.6196 0.171965
309.673 1.03734 0.28695
451.589 8.76349 -0.580245
23.4785 46.4563 0.256775
214.761 37.8419 -0.371286
467.769 7.69799 0.358101
444.297 100.835 0.357033
324.616 11.3753 -0.532823
397.136 3.50685 -0.634384
471.048 48.2226 -0.446555
114.324 9.81572 0.264193
364.516 68.7983 -0.138546
349.41 53.2579 -0.0993256
246.206 31.3785 -0.341822
18.2876 14.9098 0.367809
502.622 82.5787 0.359039
270.195 67.1562 -0.274032
455.334 61.3903 0.523478
441.779 13.4389 0.364488
507.953 19.5383 0.400305
331.537 72.0418 0.165516
81.8938 43.1395 0.318992
461.456 90.3707 -0.25127
425.315 82.6604 0.104314
512.532 63.836 -0.253171
502.355 4.44855 -0.708923
240.606 43.9071 0.522914
429.75 32.5706 -0.102141
22.0429 6.64614 -0.667749
115.454 46.7801 -0.18763
355.111 22.2667 0.272533
500.587 68.7755 -0.513092
166.829 30.058 0.244423
39.0403 37.4157 0.321837
348.124 1.06687 -0.16095
202.917 9.20263 -0.505212
466.965 62.0931 -0.336362
488.897 61.5793 0.30977
280.761 24.9645 -0.372181
140.583 30.9944 -0.50466
373.514 61.1967 -0.421645
296.266 18.2584 -0.515087
305.718 45.1951 -0.107288
294.26 7.66019 0.528874
379.226 11.7386 -0.202672
512.265 24.6499 -0.308796
71.5832 42.4238 -0.400307
261.12 7.75895 0.195347
390.272 9.43745 0.447324
279.299 54.1922 0.453259
22.0246 26.7621 -0.511927
27.4498 6.96575 -0.474836
384.833 47.9335 0.591074
362.351 51.2949 0.159855
22.0036 41.5953 0.451192
83.2004 33.2502 -0.221201
264.422 34.0434 0.528068
411.908 30.9027 0.1548
341.383 79.5996 0.245483
481.119 10.1098 -0.514685
475.607 6.59139 -0.226158
292.225 55.9413 0.134781
421.708 64.3474 0.117321
205.669 18.7846 0.545355
259.464 7.0104 0.634549
91.0038 34.3576 0.360344
101.439 28.8337 -0.348252
372.645 56.4981 -0.0674642
255.532 36.1558 0.525772
454.43 37.8985 -0.167089
449.278 101.524 -0.104238
351.087 61.8019 0.398753
500.895 51.6053 0.306955
320.868 40.3752 -0.239974
230.861 34.8549 -0.38419
456.198 86.2122 -0.344688
230.824 40.3812 -0.483743
404.627 13.0173 -0.461436
272.506 64.6178 0.19473
348.088 20.7071 0.431958
286.286 38.153 -0.0990571
322.148 32.6708 0.113679
259.116 67.8069 0.446388
163.856 31.9628 -0.115826
484.831 79.8027 -0.153779
510.178 25.0483 -0.374494
5.75745 13.2318 -0.471761
323.765 39.9049 -0.469768
34.1934 24.7974 -0.106751
294.578 36.1691 -0.575488
299.372 38.3271 0.301412
67.1734 12.8411 0.560154
46.2495 33.8326 0.522543
196.448 15.9339 0.467312
402.824 66.999 0.473331
400.914 26.7116 -0.438561
66.4873 23.5675 0.524112
479.102 95.5234 -0.414262
493.401 2.45395 0.633598
439.706 93.3355 -0.465363
448.667 2.3705 -0.608674
383.215 30.3515 -0.513582
383.409 72.9894 0.523232
356.835 25.9563 -0.594864
511.165 5.5527 0.43484
193.002 26.3298 0.210442
111.125 43.9269 -0.215656
212.922 8.89329 0.605794
82.8122 4.94109 0.266701
57.3617 12.0689 0.336416
228.273 49.5469 0.301313
14.5421 25.5518 0.59822
387.428 21.6205 -0.526943
399.562 76.6047 -0.20867
339.912 56.3431 -0.335423
511.216 92.5976 0.368986
319.546 9.36446 -0.217541
321.021 59.442 -0.471065
373.212 3.13004 -0.190335
19.4834 25.8351 -0.479281
407.477 4.223 0.672984
380.378 4.06102 -0.280107
178.604 10.9616 0.504142
318.797 32.6336 -0.226591
247.017 9.05141 0.368313
304.88 21.8126 0.397838
459.783 52.5362 0.184299
166.228 26.84 -0.529698
495.358 16.5713 -0.408931
462.145 49.6976 0.380137
301.003 11.0726 0.248923
466.979 2.17024 0.468954
412.615 39.4766 0.571732
482.219 22.0643 -0.643782
300.362 74.0657 -0.263145
347.845 27.4909 -0.44479
332.792 83.5456 0.220266
335.611 23.5966 -0.181357
443.518 94.0774 0.256028
442.368 89.7301 0.292613
167.345 41.774 -0.389435
506.049 19.984 -0.230665
384.167 74.4055 -0.272055
10.7029 18.6739 0.191581
303.752 38.8132 0.387152
161.85 23.4785 0.46925
83.1714 44.3437 -0.270863
499.774 65.4763 -0.458843
434.75 95.7127 0.221492
266.68 50.2823 -0.35559
372.031 10.9442 0.559555
73.6229 48.0423 -0.22187
210.265 31.7563 -0.509966
390.974 27.6315 0.470923
361.283 60.5933 -0.406551
224.821 0.905571 -0.435274
377.693 66.6586 0.472606
375.739 49.5218 -0.674351
352.625 76.6978 0.371399
349.432 8.3227 -0.642968
452.452 20.5144 0.467151
154.389 13.0844 -0.186649
372.845 81.4769 0.413151
384.246 56.6722 -0.148108
65.6044 0.96979 0.389496
218.603 7.80919 0.18988
509.216 30.4141 -0.297346
507.534 21.2689 -0.465264
513.16 31.9233 -0.697625
248.457 15.6286 -0.233382
480.801 37.5919 0.560419
305.563 67.7876 0.331372
338.903 0.776652 -0.684475
430.484 84.0394 0.425459
23.1796 33.4171 0.386072
271.138 70.5237 0.484159
219.706 6.11796 0.465197
497.55 86.4031 -0.188189
479.013 105.711 0.224093
243.354 26.2316 0.22382
450.806 85.1258 0.084537
392.21 2.4368 0.378371
378.423 7.73468 0.527735
86.6004 18.9493 -0.61176
246.386 0.977204 0.300562
268.862 2.03203 -0.505979
12.586 7.85858 -0.621712
4.32586 32.2973 0.259148
139.972 22.1226 0.413072
60.8954 44.8494 0.24364
58.958 32.0493 0.299448
319.759 29.4556 -0.586264
288.814 41.9118 0.534785
478.854 67.0208 0.136921
18.1423 4.39331 -0.268484
62.9359 7.09822 -0.159023
409.008 72.9408 -0.145158
241.608 0.893262 -0.486303
285.746 19.5269 -0.183278
205.433 5.18261 -0.404743
443.209 72.0513 -0.224191
334.527 16.9091 0.536936
482.065 38.7006 0.640546
419.198 66.8844 -0.286814
455.077 57.543 -0.0950569
315.145 42.8687 0.566898
88.5285 53.2056 0.303388
387.388 92.8603 -0.0438792
485.681 18.5157 0.232175
202.082 37.1203 -0.237989
28.6866 19.2505 -0.21049
265.015 16.3578 0.529575
93.46 46.7852 -0.575645
219.885 57.1291 0.184066
333.401 4.47118 0.384312
503.866 75.9102 0.409916
444.103 0.688365 0.686141
260.561 4.56607 0.439638
249.673 45.9343 -0.202132
333.99 79.6352 0.215612
72.4644 9.94363 0.585527
171.639 49.2212 0.440022
490.239 64.8364 0.365128
367.776 83.9519 -0.0637003
174.018 43.663 -0.274921
141.189 49.5959 0.505975
515.667 57.7938 -0.556926
511.502 26.3858 -0.612991
424.824 20.8634 -0.665538
165.048 25.5073 0.184192
384.977 31.7866 0.188675
386.943 31.9985 -0.289012
323.795 6.53688 -0.256811
345.945 2.42903 -0.729816
476.482 70.0955 -0.533749
77.189 33.896 -0.249007
448.267 68.8102 -0.453183
234.687 21.3623 -0.359854
8.28214 2.5835 -0.35742
110.52 45.9672 -0.183705
60.1549 25.3505 0.619963
448.084 41.3711 0.357873
496.802 94.7298 0.182603
160.715 29.3853 0.197361
506.833 27.1975 0.433723
40.5681 39.6297 -0.270153
82.0752 31.6017 -0.155823
433.927 52.579 0.460555
310.956 32.3526 -0.628082
364.41 21.764 -0.13222
202.938 35.2929 0.195115
430.715 18.0831 -0.617182
512.974 26.3803 0.375255
25.5742 34.29 0.30686
231.142 12.401 0.374507
193.939 16.8122 0.271181
1.03921 37.1466 -0.0727726
197.24 17.1327 -0.371475
184.735 11.0006 0.155664
185.74 27.2327 -0.450587
115.547 34.7325 0.12752
383.949 16.6024 -0.452842
143.332 15.6841 -0.354659
491.983 83.3358 0.258361
149.605 3.79604 0.536053
42.2931 40.4217 -0.346433
464.452 71.8327 -0.4978
234.351 44.7773 -0.430254
460.651 71.8523 -0.425679
508.853 79.1953 0.460159
247.979 18.9718 0.174755
472.04 37.4641 -0.444513
259.659 2.53142 0.502642
311.931 39.832 -0.362502
435.964 21.1998 0.502883
94.5585 12.5297 -0.560493
347.237 5.25924 -0.59095
482.409 40.2698 -0.30479
78.4209 8.22637 -0.317446
238.061 27.7727 -0.206732
320.826 26.4236 -0.223417
512.026 2.21363 0.589122
314.396 1.75069 -0.634921
155.248 41.4937 -0.332832
487.673 19.1961 0.350255
113.081 44.5589 0.222033
221.856 38.2299 0.433628
314.775 22.2464 0.306501
406.162 15.3981 0.502809
304.148 10.2794 -0.579151
332.829 65.7709 0.484153
480.11 81.3986 0.488145
42.5736 12.0522 -0.302952
245.832 58.3942 -0.261703
298.702 30.8891 -0.443614
307.379 33.1174 0.333637
384.009 81.8585 0.368986
474.942 64.9209 -0.258546
448.14 90.8201 0.348245
191.488 39.4463 -0.433468
11.9117 34.5164 0.192516
440.339 89.7787 -0.120015
382.967 84.9344 0.412966
193.094 45.2253 -0.143391
465.164 82.9281 -0.114068
131.208 12.4355 0.299808
288.726 24.8087 0.31757
333.942 81.7169 -0.0981695
311.297 33.7897 0.325542
483.376 93.1432 -0.292671
329.199 14.3238 0.663117
43.7523 26.4668 0.318347
344.755 72.6374 0.335724
322.027 66.2354 0.345408
497.128 78.7924 -0.245984
471.507 34.6607 -0.323935
380.349 22.1044 -0.205207
490.11 74.9742 0.416242
241.179 8.72585 -0.565307
298.272 35.3197 -0.551325
24.9605 41.5572 -0.331993
466.73 43.1232 0.256849
415.653 45.1197 0.584967
338.822 4.61156 -0.621668
111.939 6.42588 -0.375978
315.488 59.7448 0.143762
10.7339 0.866249 -0.308454
509.728 6.92796 -0.379595
[...]
POINT_DATA 13483
TENSORS Strain_matrix float
-1.43248 -3.57544 -9.50725 
0.815711 1.23091 1.17714 
7.66418e-18 -1.53284e-18 1 

-1.82144 1.03803 217.35 
0.291363 0.17204 20.3934 
-5.65484e-18 5.571e-18 1 

-0.378603 -0.0485826 0.942272 
0.297077 0.170356 1.1604 
-1.55437e-17 2.24943e-18 1 

-2.34089 -1.33066 -1.61879 
0.942871 1.0903 0.95537 
9.49836e-19 -9.02815e-19 1 

-2.44487 -1.94593 -17.2895 
-0.0790846 0.604964 -3.25172 
-5.38144e-18 -2.67237e-18 1 

-0.236573 -0.614291 93.6008 
0.171227 0.114595 18.2877 
-2.00639e-18 4.41883e-19 1 

-0.536732 0.184379 1.10509 
-0.181224 0.165174 1.32844 
8.24142e-18 2.22613e-18 1 

-0.278845 -0.191358 -0.563376 
0.451256 -0.0264157 0.322455 
1.12494e-17 7.60989e-18 1 

-0.916247 0.810036 -7.35703 
-0.225061 1.02626 -6.99559 
-6.02643e-18 -5.88463e-18 1 

-0.490711 -0.239055 0.220528 
0.08619 0.0462813 0.303434 
1.74807e-18 -5.51504e-18 1 

-0.150121 -0.025749 0.0529141 
0.0699574 -0.0801341 0.0818997 
-1.89855e-18 3.17642e-18 1 

-0.283119 -0.360711 -0.858575 
0.0433289 -0.0160451 -1.03334 
-2.70589e-18 2.55783e-17 1 

-0.148639 -0.724545 1.50582 
0.479878 0.336661 0.0112522 
1.67561e-18 1.39634e-19 1 

-0.222141 -0.752475 -0.313822 
0.686701 0.514137 0.282816 
-1.34673e-17 4.9788e-18 1 

-0.48118 -0.181177 -1.35194 
0.147843 0.102802 -2.02954 
-1.25467e-17 3.18637e-17 1 

-0.382917 -0.705834 -1.56286 
0.687657 0.499491 0.737832 
6.37113e-18 9.23246e-18 1 

-0.123728 -0.0944595 0.18155 
0.0141688 -0.14611 -0.01484 
2.95947e-18 3.35099e-18 1 

-2.562 -0.0985845 5.96903 
1.28968 0.543863 -2.46428 
2.34331e-17 3.07319e-18 1 

-0.876776 -0.260038 6.16028 
0.0287655 0.087776 2.55858 
-5.17178e-19 -7.93006e-18 1 

-0.72249 0.0696756 -0.503436 
-0.188141 0.195526 0.20143 
6.09349e-18 -3.41236e-19 1 

-0.00924508 -0.609219 -0.0276307 
0.60437 0.167503 -0.238202 
-1.44972e-17 -9.88338e-18 1 

-8.60375 5.54113 -43.2408 
-0.281929 1.28957 -4.0484 
-3.54408e-18 2.01343e-17 1 

-6.30827 -0.633021 -29.2126 
-1.97345 0.327981 -10.6508 
1.82302e-17 1.13046e-17 1 

-0.526148 -0.507431 -5.6115 
-0.468815 0.436558 2.21519 
8.11759e-18 1.38894e-18 1 

-1.24575 -0.0207946 0.732575 
0.502562 0.552414 -1.03816 
-3.14052e-18 -6.5951e-18 1 

-0.738621 0.260106 -0.949092 
0.191936 0.601134 -0.587037 
1.0008e-17 7.73607e-18 1 

-0.33089 -0.520816 0.251317 
0.240262 0.320494 0.302262 
-2.59713e-18 1.54591e-17 1 

-2.54448 -0.783018 -2.24232 
0.956184 0.757273 -0.82969 
4.68349e-18 1.39549e-17 1 

-0.331029 0.0788472 0.273324 
0.0453636 -0.0207343 0.476972 
-1.08095e-17 -3.64959e-18 1 

-1.68594 -0.344312 0.182279 
-0.17923 0.133602 -0.114286 
-2.25721e-18 -1.32576e-17 1 

-8.39338 3.02447 -10.6765 
-0.882858 0.839871 -0.626762 
-7.6336e-18 1.14504e-17 1 

-0.656331 0.0955505 0.522853 
-0.277846 0.109335 -0.227329 
-1.41122e-18 2.41368e-17 1 

0.140479 -0.898897 0.0766631 
0.632099 0.373309 -0.386377 
-6.06381e-18 1.64799e-17 1 

-1.42533 -1.14152 0.816656 
-0.10719 0.449537 -0.556214 
-1.61187e-18 -2.13725e-17 1 

-0.103908 -0.150673 -0.0328414 
0.134503 -0.0956431 -0.634325 
-4.21258e-18 -1.65494e-17 1 

-1.77819 2.49994 -7.82734 
-1.55798 1.43512 -3.35623 
1.24113e-17 -1.62542e-17 1 

-0.823363 0.223213 0.530433 
-0.147667 0.216179 -0.308887 
5.57083e-18 -6.17397e-18 1 

-0.568387 0.220545 -0.046786 
-0.0460015 0.0736928 0.195466 
1.63819e-17 -1.29933e-17 1 

-0.616417 0.399254 0.419997 
-0.0280627 0.221452 0.318126 
4.32589e-18 5.76786e-18 1 

-5.02323 1.82839 47.5157 
-2.82615 1.85274 33.217 
1.37509e-18 -2.93353e-18 1 

-0.672689 -0.279654 0.303272 
-0.0583412 0.1587 -0.616734 
5.74426e-18 2.04251e-17 1 

-0.540831 -0.294963 0.496927 
0.44678 0.244641 -0.386969 
4.80146e-18 1.23409e-17 1 

-0.275639 0.0855555 0.00876186 
-0.266413 -0.17523 -0.0397511 
-4.90381e-18 -1.13562e-17 1 

-0.295341 0.0881792 0.154827 
-0.0947231 -0.0400381 -0.73269 
1.22671e-17 -2.67971e-18 1 

-0.182547 -0.0161793 0.0616801 
0.00437898 -0.0283764 0.0668193 
-1.33132e-18 -7.46014e-19 1 

-0.333173 -0.115437 -0.0969501 
-0.10665 0.160243 -0.681521 
4.05376e-18 -1.43204e-17 1 

-0.799106 -0.182666 -0.98742 
-0.261835 -0.0929962 -0.821665 
-4.56241e-18 -7.50896e-18 1 

-0.0840674 0.0293625 -0.171753 
0.0576947 -0.143648 0.112015 
8.34446e-18 -4.18859e-18 1 

-1.22097 -0.634952 -86.2916 
0.472493 0.606004 -3.17156 
1.15792e-17 2.23512e-18 1 

-0.388969 0.211449 0.807187 
-0.27557 0.316143 -1.70821 
1.09919e-17 1.07721e-17 1 

-0.560313 0.120258 -0.544569 
-0.0805471 0.156793 -0.422161 
-6.20383e-18 2.95172e-17 1 

0.0284813 -0.518662 0.395978 
0.439005 0.0814477 0.111276 
4.87239e-18 -3.57816e-18 1 

-0.138386 -0.0787997 -0.221846 
0.0311588 0.0229239 0.063313 
1.00748e-17 -2.63464e-20 1 

-0.815561 0.266009 1.38696 
-0.0359765 0.28936 -0.500247 
-1.80539e-17 1.25615e-18 1 

-0.681749 0.00483404 -0.341046 
0.23728 0.196621 -0.551298 
-2.55673e-18 -1.11652e-17 1 

-1.86694 -2.8506 1.66894 
0.83424 1.03487 -1.13119 
1.7397e-17 -1.73313e-17 1 

-0.445096 0.261435 0.898991 
-0.234982 0.522 2.56489 
-1.16433e-18 -2.30138e-18 1 

-0.185657 -1.04606 -0.726247 
-0.01582 -0.0323071 0.511244 
-4.47668e-18 -1.36125e-17 1 

-0.188573 0.0175165 -0.896102 
-0.0866331 -0.00672585 -0.129201 
5.64394e-18 -1.24637e-17 1 

-0.410199 -0.145503 0.567417 
-0.254547 0.125583 0.00151921 
3.74112e-18 -4.85322e-18 1 

-3.9869 5.94763 -0.638884 
0.134433 0.509041 0.022931 
0 -2.03751e-18 1 

-0.118997 -0.426511 2.53448 
0.333464 0.25723 -0.566521 
3.07062e-19 7.91828e-18 1 

-0.172668 0.178704 -0.672872 
0.00300256 -0.136083 0.089652 
8.56338e-18 6.36288e-18 1 

-0.373241 -0.248269 2.56814 
-0.000531314 -0.00194856 0.654051 
6.7835e-18 -8.21901e-18 1 

-0.47057 0.222715 -0.179903 
-0.410969 0.24706 0.365141 
8.07638e-18 -2.55255e-18 1 

-0.657029 0.223384 1.46074 
-0.226026 0.311647 -0.0600252 
-1.10722e-17 -2.2331e-17 1 

-0.781278 -0.211464 -0.0745853 
0.00841041 0.0440022 0.809731 
-1.42379e-17 -2.91921e-18 1 

-0.0643675 -0.620915 -0.0416489 
0.415273 0.221268 -0.331704 
-4.70859e-18 -6.97569e-18 1 

-0.89709 -0.266469 -0.518461 
0.735781 0.380806 -0.904973 
1.68892e-17 1.58571e-17 1 

-0.347915 0.0777112 0.0639988 
-0.211879 -0.308556 -0.670266 
-7.27626e-18 1.27593e-18 1 

-0.392973 -0.833055 -1.11845 
0.764712 0.612904 0.280729 
5.70185e-18 -3.54911e-18 1 

-0.321031 0.0193056 -0.0436696 
-0.0219931 0.0196819 0.246208 
-1.38741e-17 -9.0297e-18 1 

-0.386337 -0.0280459 -0.023103 
0.18823 0.0308011 0.0807178 
-9.6172e-18 8.15017e-19 1 

-0.62971 0.189742 -2.00963 
0.408989 0.418608 -0.301958 
7.23779e-18 2.65763e-18 1 

-0.23803 -0.144769 -0.139062 
0.107644 0.0299411 -1.27291 
-8.19022e-18 -8.096e-18 1 

-0.276757 -0.0209257 0.148488 
0.0444486 -0.0144514 -0.169851 
-4.72908e-18 2.72305e-18 1 

-0.166755 -0.482227 -0.844171 
0.362544 0.149711 -0.197648 
-1.53283e-17 1.10137e-17 1 

-0.0298182 -0.404985 -0.430091 
0.463889 0.0762608 0.252714 
-4.24782e-18 -8.49564e-19 1 

-9.56737 2.82452 19.4418 
-3.33208 1.87677 20.0757 
6.40923e-18 9.2735e-18 1 

-0.416876 -0.176549 0.21741 
0.0186799 0.033835 0.564067 
4.06405e-18 -6.43973e-18 1 

-1.62874 0.0411238 -1.91363 
0.384062 0.203592 0.344293 
3.79169e-18 3.23686e-18 1 

0.0422884 -0.404988 0.733802 
0.379226 0.0555616 0.640375 
5.08474e-18 3.37451e-17 1 

-0.370618 -0.358897 -1.41387 
0.369652 0.187998 -0.126421 
1.8564e-17 1.13326e-18 1 

-0.512666 -0.166952 -0.928722 
0.068202 0.211556 -0.152724 
1.39485e-18 2.47974e-18 1 

-0.0233298 -0.732263 0.0330834 
0.451487 0.217675 -0.0805031 
-9.49048e-19 -3.33569e-17 1 

-1.48569 -0.392613 -2.31169 
0.119972 0.490504 0.182269 
2.08752e-18 -1.15973e-18 1 

-4.26878 0.71974 -35.7893 
-0.194392 0.925711 -0.846577 
6.3045e-18 -5.38846e-18 1 

-0.249464 -0.564672 0.298075 
0.238488 0.137981 -0.62591 
1.09451e-17 2.46544e-18 1 

-0.65429 -0.778515 -0.144401 
0.515476 0.371226 -0.0500729 
5.74102e-18 -1.78089e-17 1 

-0.290265 0.00931298 -2.19958 
0.00918129 -0.0293606 -6.86106 
-3.86918e-18 2.21506e-18 1 

-0.252768 0.0149119 0.00599116 
-0.148528 0.0151493 -0.11116 
-2.18475e-18 2.35755e-17 1 

-0.35884 0.151734 -1.01456 
-0.0594722 0.0552634 0.194259 
4.17072e-18 -6.07985e-18 1 

-0.215466 -0.396095 7.03284 
0.416381 0.276017 3.00066 
3.24052e-18 6.02576e-18 1 

-0.26244 0.128501 0.276012 
-0.0554443 0.127493 0.327969 
-8.09672e-18 9.72243e-19 1 

-0.167545 0.0549145 0.844653 
-0.0400442 0.0300813 -0.896267 
1.33245e-17 1.07232e-17 1 

-1.0555 -1.06984 -1.28045 
-0.228058 0.545261 -0.205492 
-4.48564e-18 -1.21826e-17 1 

-0.331908 -0.0619014 1.004 
-0.0248747 0.0115561 -1.22329 
5.23635e-19 6.305e-18 1 

-0.381801 -1.01207 1.35508 
0.654885 0.43901 0.758655 
-6.75217e-18 1.61455e-18 1 

-0.00924693 -0.762963 0.104724 
0.607541 0.166813 0.0210165 
-5.1586e-18 4.51377e-18 1 

-0.512979 -0.1691 -0.820428 
0.447597 0.160597 1.11049 
8.05864e-18 -3.31383e-18 1 

-0.331852 0.0687055 1.42589 
-0.203185 0.0899754 3.69505 
-4.62496e-18 -4.23661e-19 1 

-5.67195 -0.88761 -2.17453 
0.326754 1.16491 2.75482 
2.49802e-17 -1.01362e-17 1 

-0.313419 -0.056187 1.68548 
-0.0881991 -0.000305983 0.526203 
1.9687e-17 -3.3592e-18 1 

-1.06262 -0.79315 -1.03055 
0.42809 0.402359 0.497478 
-1.61353e-18 5.30533e-18 1 

-0.711338 -0.0243779 1.56107 
-0.250331 -0.00878257 -1.60342 
6.36614e-18 -1.8189e-19 1 

-0.303301 0.35017 0.509028 
-0.361018 -0.0189763 -0.433822 
1.65636e-18 -2.56341e-18 1 

-1.05372 -0.804044 -0.335139 
0.564204 0.551551 -0.775233 
1.91381e-17 -1.18032e-18 1 

-0.263631 -0.108464 0.294597 
-0.0979167 0.127698 0.130015 
-1.67359e-19 1.21715e-19 1 

-0.904554 0.163491 -0.253529 
-0.575789 0.249222 -0.207584 
4.81174e-18 -1.16413e-19 1 

-0.280552 0.115303 0.340936 
-0.159828 -0.0177352 -0.143382 
-2.71166e-17 2.68291e-18 1 

-4.39259 2.03268 16.8174 
-2.09144 2.44329 13.9414 
7.89038e-18 2.58051e-19 1 

-0.192729 -0.00696509 -2.9188 
0.0249943 0.00228059 0.557481 
-5.68589e-19 1.40596e-17 1 

-0.266696 0.239758 -0.474797 
-0.167226 -0.0148103 -0.0584304 
-9.06295e-18 -7.17384e-18 1 

-1.1595 -0.381493 8.6798 
-0.101485 0.403945 -4.5654 
5.98676e-18 -1.27486e-17 1 

-1.62483 4.82038 -1.26173 
-1.45759 2.6776 -1.21479 
-9.22108e-19 -3.15458e-19 1 

-0.218304 0.0825314 1.19603 
-0.237667 0.0728339 1.9863 
2.08028e-19 -1.30897e-17 1 

-0.38171 -0.00765666 0.76165 
-0.323675 0.0557718 0.511257 
-7.16366e-19 -1.43273e-18 1 

-3.48592 3.61034 5.05655 
-2.18927 2.5372 1.53019 
5.8702e-18 -8.60787e-18 1 

-0.374262 -0.908023 -0.106628 
0.424748 0.314787 -0.252667 
-9.62929e-19 -1.9825e-18 1 

-0.076612 -0.592556 -0.00944761 
0.39261 0.272317 0.553771 
-1.08438e-18 1.44039e-17 1 

-0.770066 -0.158761 -0.515266 
0.255033 0.0841969 -0.552698 
1.54213e-17 1.1309e-17 1 

-0.895305 -0.418357 0.638289 
-0.0613358 0.306185 -0.172015 
-1.01473e-18 -9.76679e-18 1 

-0.309844 -0.0138469 0.350177 
0.272978 0.155063 0.124172 
-2.27665e-18 1.3172e-18 1 

-0.0788235 -0.728667 0.310658 
0.563281 0.320319 0.129699 
6.48972e-18 4.80196e-18 1 

-0.617261 -0.300786 0.0873216 
-0.0302905 0.265255 0.724191 
-2.58253e-20 -4.01152e-18 1 

-1.11989 -0.196063 -3.78776 
-0.0607792 0.249263 0.405996 
3.64067e-18 6.624e-18 1 

-0.499859 -0.205978 -1.10217 
0.250796 0.325435 -0.740908 
-1.6839e-17 4.37681e-18 1 

-0.467882 -0.22825 -0.240744 
0.362899 0.240151 -0.495444 
-8.78348e-18 1.50966e-18 1 

-4.09983 -3.27812 -13.9871 
-0.569519 1.66634 -1.93526 
3.8447e-18 -4.99414e-18 1 

-0.673595 -0.232814 -0.96809 
0.787894 0.377228 -0.348704 
-2.49779e-17 -2.04684e-18 1 

-0.977221 -1.01882 4.15826 
-0.0674359 0.585108 1.15621 
8.31836e-18 -1.33395e-17 1 

-0.23614 -0.117533 -0.976512 
0.498315 -0.00862625 1.15717 
1.86805e-17 -8.11804e-18 1 

-0.091128 0.183966 0.338537 
0.000856078 0.0375861 -0.792026 
3.48385e-18 -1.52419e-18 1 

-1.59698 -0.716198 -3.06932 
-0.29672 -0.0664187 -1.88923 
-3.24468e-18 8.43617e-18 1 

-0.753266 -0.561643 1.08038 
0.0724028 0.456211 -0.41593 
1.96317e-17 -6.21141e-18 1 

-0.499448 -0.718031 2.64002 
0.314387 0.387387 0.0291969 
1.14144e-18 -1.09926e-17 1 

-1.01798 0.101019 1.95895 
-0.751664 0.66169 0.470212 
-2.96006e-18 5.46473e-18 1 

-0.283914 -0.447349 -0.134264 
0.426419 0.261597 -0.799807 
6.60156e-19 -1.27068e-18 1 

-0.527989 -0.35925 -1.07053 
0.300903 0.0253723 -0.332667 
-1.75815e-18 -6.90702e-18 1 

0.0315957 -0.511361 0.0383333 
0.480658 0.146722 -0.0057065 
1.94897e-18 -6.54e-18 1 

-2.27017 0.777911 -1.3825 
-1.19911 0.387717 -0.61905 
-1.70637e-17 1.71822e-18 1 

-0.252702 0.0139534 -0.121346 
0.114884 0.0487483 0.0997584 
8.73626e-19 -3.2257e-18 1 

-0.168837 -0.276159 0.0926037 
0.268945 0.00164186 0.482356 
2.1165e-18 -5.09103e-18 1 

-0.334178 -0.324259 1.16841 
0.240499 0.244303 -0.046294 
-3.35899e-18 1.07229e-17 1 

-0.448807 0.30037 -0.567354 
0.0729898 0.237321 0.609151 
1.23308e-17 1.11272e-17 1 

-0.207391 -0.925383 -0.605065 
0.436829 0.403768 -0.456441 
4.39374e-18 -6.19432e-18 1 

-1.48117 0.10014 -0.207703 
-0.575583 0.494746 -0.947605 
-1.07338e-17 1.98412e-17 1 

-0.176185 0.019874 0.453996 
-0.0572343 -0.0960437 1.01861 
-1.10313e-17 -1.27034e-18 1 

-0.572156 -0.179415 -0.507697 
0.198218 0.310995 -1.51941 
-1.06265e-17 4.86964e-18 1 

-0.295517 -0.08859 0.048522 
-0.11757 0.0273539 0.192836 
-8.28795e-19 -2.27919e-18 1 

-1.12637 -0.244484 37.7277 
0.252212 0.463912 -11.4487 
4.04931e-18 -8.40156e-18 1 

-4.71884 -0.283336 1.26377 
1.31292 0.0736943 -1.8735 
-4.02927e-18 5.1943e-18 1 

-0.335142 -0.0134306 -0.47226 
0.187064 0.0405157 0.830589 
7.7811e-18 -6.48957e-18 1 

-0.367911 0.051236 5.5513 
0.0762326 0.09758 -0.255077 
1.4845e-18 -5.18881e-18 1 

-0.306958 -0.0939536 -0.591 
0.0281286 0.0758996 -1.45759 
-7.62997e-18 -6.67289e-18 1 

-2.46103 -0.448088 32.9007 
0.074422 0.58192 -4.71375 
-2.90519e-18 1.98395e-18 1 

-2.3446 -1.6803 -1.66131 
1.43137 1.3247 1.64702 
-5.51273e-18 4.77745e-18 1 

-0.267493 -0.0554505 1.01832 
-0.0574638 0.0908761 -0.503398 
-1.25172e-17 -1.85876e-17 1 

-3.67611 -1.00595 -26.018 
0.146692 1.12516 1.02969 
-2.64153e-18 2.22159e-18 1 

-1.49665 0.457335 1.78305 
-0.270864 0.300359 0.274586 
-4.87063e-18 1.25625e-17 1 

-0.0535288 -0.374734 0.499215 
0.328117 0.067908 -0.862201 
-8.20684e-19 6.76478e-18 1 

-0.479334 -0.357481 -0.0573402 
0.186516 0.00938272 -0.879537 
4.03936e-18 -3.42624e-18 1 

-0.747501 -0.112524 0.385702 
0.148814 0.287233 0.0433282 
-9.16007e-19 4.6022e-18 1 

-7.49122 3.03442 81.1223 
-0.60721 1.03989 38.6495 
7.27216e-18 -8.3424e-18 1 

-0.39858 -0.312568 1.10598 
-0.113537 -0.04112 0.392864 
1.15039e-18 -1.06987e-17 1 

-1.25963 -0.705186 -0.189725 
0.947988 0.496577 -0.0212301 
-1.51531e-18 6.38025e-18 1 

-0.244283 -0.121291 -0.367152 
0.147755 -0.00692055 0.662943 
9.04846e-18 6.8847e-18 1 

-0.419537 0.138752 0.148906 
0.182833 0.180136 -0.00607769 
-8.52123e-18 8.33993e-18 1 

-0.43591 -0.106167 -3.45223 
0.281348 0.0957082 -0.545543 
2.43137e-18 1.24873e-17 1 

-0.279512 -0.0539792 0.541126 
0.0558742 0.0449855 -0.304179 
1.424e-18 -8.28916e-18 1 

-0.266602 -0.0188846 0.515549 
0.148984 0.0259531 0.163419 
1.12925e-17 -6.12105e-18 1 

-0.408149 -0.00511125 0.986867 
0.0836362 0.266153 0.335631 
2.61111e-18 -6.84801e-18 1 

-0.578787 0.0738619 2.44526 
-0.100176 0.230661 1.74478 
1.1699e-17 1.554e-17 1 

-0.704179 -0.233023 3.02925 
-0.0153314 0.326597 0.384105 
3.99804e-19 -1.22341e-18 1 

-0.283609 -0.726247 0.394015 
0.765235 0.559842 -0.27065 
0 -1.29171e-17 1 

-1.49577 -0.735816 1.63638 
0.939192 0.708177 0.805372 
9.10239e-19 -7.18077e-18 1 

0.0687877 -0.768431 0.175014 
0.771071 0.480066 0.762175 
1.00314e-17 2.64392e-18 1 

-0.308047 -0.0473774 0.0685467 
0.0200806 -0.0642229 -0.295732 
-1.01099e-17 8.13882e-19 1 

-0.401674 -0.356484 3.24299 
0.293521 0.269464 2.52319 
-2.5173e-18 4.69371e-18 1 

-0.278005 0.217195 0.00563264 
-0.308279 -0.141008 -0.197441 
4.50158e-17 -7.4026e-18 1 

-0.173685 -0.176192 -0.0740143 
0.101469 0.0488209 0.701736 
1.27494e-17 1.00728e-17 1 

-0.813996 2.35671 -134.012 
0.10921 0.131299 0.785506 
1.05904e-17 -4.9415e-18 1 

-0.472652 -0.0902075 0.0849384 
-0.139505 0.0654709 0.0573928 
-1.59382e-17 8.75181e-18 1 

-0.173883 0.000412538 0.538907 
0.0506012 -0.0525573 0.269158 
1.05372e-17 -7.7042e-18 1 

-0.566041 -0.292664 -0.27603 
0.0798118 0.141031 0.0460688 
6.87201e-18 -5.90234e-18 1 

-0.475235 1.10082 -0.159344 
-1.62479 0.873476 -0.495103 
-2.82042e-17 1.41021e-17 1 

-1.01745 -0.0378439 -0.527858 
-0.0692429 0.212208 -0.232634 
-6.67233e-18 2.25191e-17 1 

-0.11407 -0.995972 0.759056 
0.568583 0.767507 0.879822 
3.53807e-18 -6.6159e-18 1 

-0.333014 -0.0703504 -0.431878 
-0.0552268 0.0560909 1.53459 
4.89565e-18 -7.04495e-18 1 

-0.688147 -0.636741 -0.241089 
-0.0471497 0.0504703 -0.302544 
-1.14935e-17 1.27131e-17 1 

0.341541 -0.892758 -0.326528 
0.987546 0.473132 -0.301366 
7.11111e-19 -2.05768e-18 1 

-0.471042 -0.011703 -0.480505 
-0.190187 0.167257 0.440857 
-1.88483e-18 9.84823e-18 1 

-0.694905 -0.767046 -1.05266 
0.144325 0.282324 0.375352 
2.11536e-17 -4.16137e-17 1 

-0.965576 -1.11673 -0.267449 
0.94538 0.907258 9.34978 
2.67874e-18 2.73614e-18 1 

-1.01995 -0.772614 -1.08926 
0.797578 0.744262 -2.10117 
-1.37859e-17 -1.10431e-17 1 

2.00431 -3.29946 -16.6856 
0.481313 0.761788 2.79554 
2.55104e-18 6.32855e-18 1 

-1.30977 1.7682 -1.96925 
-1.09568 1.08839 -0.891039 
1.69992e-17 -1.03554e-17 1 

-0.284525 -0.15403 -0.176381 
0.271461 0.167639 0.0639114 
-3.95993e-18 2.43688e-18 1 

-2.33962 0.694647 1.50957 
-0.223616 1.11053 -1.8287 
-5.07619e-18 5.61893e-18 1 

-0.0449125 -0.401525 -0.1185 
0.391426 0.155138 0.0488236 
6.77292e-18 7.93144e-18 1 

0.00151093 -0.288392 -0.160859 
0.325365 -0.00989203 -0.0127932 
-1.47139e-18 7.95996e-18 1 

-0.50074 0.0335706 -0.191908 
-0.169472 0.183323 0.661542 
6.16516e-19 -3.8361e-18 1 

-0.612253 -0.28043 0.108278 
-0.197135 -0.0745424 0.097332 
3.07383e-18 -4.54089e-18 1 

-15.7128 14.3661 -24.4905 
-1.19568 1.14095 -0.625882 
1.61246e-17 8.02513e-18 1 

-0.607739 0.258576 -0.0206343 
-0.431263 0.234767 -0.0218921 
2.41635e-17 -7.02938e-18 1 

-0.924875 -0.984242 11.7881 
0.443532 0.488919 -3.9568 
4.89016e-18 1.36866e-17 1 

-0.123415 0.0458621 0.129829 
-0.0775864 -0.084287 0.565876 
-8.82417e-18 -1.09886e-17 1 

-0.220926 -0.451845 -0.911818 
0.317859 0.256901 0.530713 
-1.57306e-17 -6.01853e-18 1 

-0.153718 -0.514596 4.22905 
0.511981 0.130989 3.29458 
1.0791e-17 2.51959e-18 1 

0.0695626 -0.389547 -0.0496363 
0.345587 0.0167226 -0.30631 
-1.91064e-18 -8.86539e-18 1 

-0.585039 0.435041 5.91374 
0.0228589 0.307167 4.07185 
1.21708e-17 2.03128e-18 1 

-0.601459 0.126792 -1.09032 
-0.0690585 0.151957 2.17063 
-5.63033e-18 2.75975e-18 1 

-0.461112 -0.436525 2.15049 
-0.210171 0.0509727 -0.9285 
-1.21769e-17 -1.15697e-17 1 

-0.488887 -0.0993528 0.728846 
-0.122381 0.19843 -0.173881 
-1.32072e-17 6.35421e-20 1 

-0.648991 0.109174 0.793435 
-0.038956 0.252023 -1.8561 
-5.097e-18 2.42317e-18 1 

-2.2357 1.90402 12.1972 
-0.942732 1.30623 7.60118 
-1.35005e-17 7.5037e-18 1 

-0.47702 0.905675 3.98742 
-0.00399316 0.130628 -2.3933 
-3.67026e-18 -2.88217e-18 1 

-7.57455 6.28491 11.5379 
-0.803191 1.2185 -0.291165 
1.74211e-17 9.94315e-18 1 

-2.98602 0.550075 45.1127 
0.159579 0.669795 -18.3747 
8.26915e-19 -1.46386e-18 1 

-0.047264 -0.386448 -0.162442 
0.119897 -0.0172323 -0.24053 
5.8671e-18 -7.41107e-18 1 

-1.95312 -3.41143 -7.52651 
0.280634 1.28406 2.88621 
1.52674e-17 -2.47655e-18 1 

-1.20468 -0.437567 0.775148 
0.574263 0.519184 0.225538 
4.94876e-18 -9.13417e-19 1 

-0.18167 0.191769 0.609813 
0.0605748 -0.00731787 0.369173 
-6.88792e-18 8.59769e-18 1 

-0.0766897 -0.577223 -23.2498 
-0.0160754 -0.0877866 -12.0109 
-1.28346e-17 4.46029e-18 1 

-0.261873 -0.00318866 -0.146188 
-0.0120118 0.104902 0.359808 
2.92262e-19 1.05569e-17 1 

-0.22531 -0.205882 0.252554 
0.0270022 0.0141659 -0.224108 
-2.52344e-18 1.42816e-17 1 

-0.113548 -0.332301 -0.0529285 
0.202669 -0.0714357 -0.0850051 
-3.26991e-18 7.0848e-18 1 

-1.54432 -0.65911 -0.106291 
0.182643 0.455981 0.381725 
1.79639e-17 2.65376e-19 1 

-1.18911 -2.43146 8.54589 
0.434547 1.00026 -3.15755 