# vtk DataFile Version 3.0
Output file generated by Yade's KinematicLocalisationAnalyser
ASCII
DATASET UNSTRUCTURED_GRID

POINTS 13483 float
481.972 47.1898 -0.509729
562.997 78.237 0.581171
109.547 5.85686 -0.606563
592.465 12.3811 -0.350985
415.343 10.3726 0.448618
287.11 40.3106 -0.524403
142.61 7.42793 0.456397
469.553 10.3481 0.157699
426.204 48.9603 -0.141937
543.068 12.2965 0.59486
193.823 8.82407 0.148361
236.878 6.94886 0.319993
509.828 73.8472 -0.156388
500.106 47.492 -0.0990733
125.26 18.7428 0.541471
202.958 35.452 0.412917
200.995 13.1942 -0.304715
265.674 11.1624 0.515407
310.269 40.8527 -0.458351
432.885 9.09899 0.564936
365.573 45.1705 -0.114398
455.798 72.1436 -0.282734
588.765 48.0498 -0.543698
553.47 88.8189 -0.42967
401.659 27.6625 0.426164
220.888 47.032 0.133691
420.878 53.8924 -0.502298
477.216 23.8074 0.403918
41.0765 16.5761 -0.349982
536.933 32.8836 0.507537
410.585 9.93749 -0.338596
14.8203 23.8922 0.493503
573.992 82.9777 0.274994
416.492 2.3173 0.704454
72.02 47.2537 0.105716
432.958 43.9618 0.338411
437.595 18.5155 0.531594
312.256 24.9246 0.252027
440.159 29.8984 -0.320006
314.115 38.5157 0.521483
222.146 15.3318 -0.301106
379.422 43.1453 0.074629
504.913 7.61968 -0.167316
176.889 6.25232 0.425905
50.7699 7.4401 -0.08416
62.2311 9.08519 0.239287
516.606 10.1934 -0.64402
21.2274 12.8935 -0.314784
470.188 77.5857 0.366675
534.816 69.1247 0.350818
157.494 32.999 0.367878
563.33 61.6884 -0.137474
31.5954 29.8728 0.133699
440.128 5.54909 0.647896
130.7 7.59871 -0.461751
475.337 47.7935 0.499693
431.206 54.8731 -0.141166
160.269 0.935955 -0.288634
29.1897 2.27563 -0.384131
315.635 20.0243 0.337999
476.337 88.5432 -0.134276
392.056 55.4135 0.170181
356.72 1.03281 0.225404
526.645 8.99775 -0.571165
25.1717 45.8485 0.258235
236.258 32.5837 0.290304
543.185 7.59197 0.334439
524.561 95.7947 0.354873
373.244 10.0607 -0.567371
470.025 3.63797 -0.62279
552.215 46.2548 -0.5004
119.802 7.91548 0.276947
426.556 52.7302 -0.131413
411.928 37.5122 -0.106812
271.432 17.3709 -0.372605
18.6582 14.856 0.348441
584.346 78.1596 0.32556
301.909 44.939 -0.326092
533.051 58.3637 0.346197
516.404 13.9188 0.380446
587.034 16.3232 0.43128
395.09 57.7895 0.172124
85.4213 40.8501 0.310843
540.115 83.32 -0.250566
502.875 80.2256 0.112237
594.476 59.1604 -0.241738
581.493 3.66459 -0.731293
267.892 30.9053 0.481254
503.205 30.8718 -0.127203
22.3847 6.5345 -0.670243
122.893 41.5816 -0.205019
426.722 19.4658 0.280347
582.47 64.1962 -0.51139
180.016 29.4359 0.259229
41.0477 35.8873 0.302879
415.828 1.07541 -0.214842
218.186 9.11939 -0.465898
547.785 59.1025 -0.335416
570.62 57.2443 0.301858
325.601 24.8247 -0.320835
149.921 27.5576 -0.426368
445.861 57.4504 -0.420333
342.182 18.7015 -0.470828
366.993 32.631 0.126982
340.361 7.82636 0.424009
452.004 11.2563 -0.238779
594.45 19.4457 -0.288701
74.1206 41.3485 -0.467173
304.621 6.83819 0.214711
463.03 9.60759 0.439427
324.289 50.9859 0.521722
22.7099 26.6486 -0.512521
27.7521 6.13753 -0.297792
458.427 45.4113 0.504332
427.023 38.5083 -0.19129
23.3902 39.3052 0.446944
86.1017 31.7976 0.231492
296.942 19.7738 0.379425
485.567 29.7637 0.158064
404.508 64.3034 0.304059
557.34 10.1347 -0.492967
551.43 6.64572 -0.217994
348.554 43.4453 0.0982311
497.777 62.3003 0.153584
220.635 17.6329 0.585216
302.859 6.08662 0.655062
95.2744 32.6108 0.345795
107.574 25.7761 -0.31923
445.462 53.6217 -0.0710606
282.16 19.6241 0.602981
531.222 38.8435 -0.138885
529.348 95.8839 -0.104818
413.468 46.1787 0.401084
582.021 46.9359 0.375491
382.714 27.7045 -0.257451
256.109 25.1497 -0.31082
534.484 79.4901 -0.33538
257.455 30.5121 -0.434796
477.62 13.1922 -0.345726
303.622 41.9669 0.209774
420.679 17.5796 0.548238
331.227 37.8784 -0.113853
383.228 19.9541 0.103076
292.117 49.0761 0.478133
176.502 30.5895 0.169551
566.864 75.362 -0.166288
592.041 20.782 -0.380528
5.85041 13.192 -0.466188
385.48 26.8774 -0.490437
34.9933 24.088 -0.106223
340.13 35.5384 -0.59878
356.132 31.2173 0.341957
69.2372 12.4747 0.543995
48.2393 34.2494 0.429476
210.588 14.8381 0.603026
478.618 66.8155 0.448406
474.287 25.9812 -0.479872
68.8075 22.7077 0.524859
557.388 89.7216 -0.41759
569.682 2.47809 0.622798
518.744 88.991 -0.46451
523.531 2.53942 -0.614979
455.766 30.7055 -0.48831
457 71.2159 0.554638
428.358 23.2594 -0.548172
592.308 5.71656 0.451764
208.322 25.7468 0.157652
118.467 38.7152 -0.206188
230.049 7.03834 0.462117
86.3599 4.82401 0.258728
59.0838 11.5774 0.253006
256.032 38.4568 0.302894
14.9231 25.7589 0.46501
459.88 21.6072 -0.488657
473.528 73.0412 -0.0518374
402.759 40.7164 -0.348116
593.081 87.7092 0.362761
366.965 8.93241 -0.129472
383.956 46.2789 -0.523626
446.493 3.17994 -0.257736
20.0631 25.8435 -0.474667
481.144 4.25403 0.53011
453.526 3.91676 -0.308799
192.287 11.2541 0.495003
380.116 20.4331 -0.261421
288.736 6.30367 0.442921
351.254 22.058 0.386306
539.406 50.2667 0.167871
178.843 26.3234 -0.493134
573.757 14.0051 -0.376065
542.271 47.6143 0.485626
347.305 11.6169 0.260053
542.592 2.11586 0.457786
486.448 38.3575 0.559492
558.727 22.6764 -0.503303
368.997 60.9562 0.258949
417.12 21.5941 0.383414
396.081 69.6023 0.0307003
397.832 13.1194 0.237032
522.632 89.2006 0.254808
520.951 85.136 0.29043
179.337 39.7781 -0.330979
585.217 16.7849 -0.299013
457.749 72.5968 -0.271019
10.8989 18.6659 0.199217
364.277 28.1307 0.573919
174.097 23.6373 0.441715
87.0213 41.5094 -0.264936
581.628 60.8975 -0.455611
514.063 91.8491 0.220105
294.767 29.7309 -0.40774
444.418 10.1942 0.574405
77.026 46.8883 -0.201795
230.605 27.106 -0.504282
463.357 27.4395 0.484865
423.073 44.8084 -0.442632
245.276 0.920773 -0.381185
448.716 63.7994 0.374418
446.818 48.8916 -0.554188
414.838 60.9755 0.403127
420.656 8.07795 -0.685097
527.663 20.8627 0.450767
166.926 12.5889 -0.223304
434.393 64.8347 0.447656
457.093 54.9888 -0.164667
68.083 0.991039 0.334688
235.231 5.60166 0.209761
591.258 26.134 -0.272795
586.661 18.0845 -0.498815
594.959 27.3958 -0.689768
281.668 9.20512 -0.264512
558.687 34.175 0.459812
366.008 50.504 0.331003
396.167 0.803311 0.548774
508.306 81.0471 0.431662
24.3635 32.9462 0.349868
303.449 48.1014 0.516393
235.936 3.73259 0.46623
578.788 81.6057 -0.17896
556.921 99.7922 0.227097
267.71 12.6423 0.312366
528.859 79.5799 0.092767
465.224 2.50887 0.374644
451.467 8.00661 0.548756
90.1418 19.1794 -0.524932
281.94 0.995458 -0.297612
313.936 2.20037 -0.406701
12.864 7.82534 -0.595931
3.96222 32.1391 -0.248148
149.77 19.4474 0.399059
63.6772 44.1369 0.240001
61.522 31.4096 0.310616
380.572 17.2378 -0.592192
334.245 41.248 0.398831
560.408 62.797 0.150984
18.4843 4.33941 -0.264943
65.4963 7.21046 -0.159594
485.202 72.4435 -0.151385
273.95 0.996515 0.479288
331.344 19.3511 -0.120291
220.5 5.02771 -0.353686
520.111 67.4991 -0.23745
399.918 8.46998 0.634
560.949 35.8509 0.492079
495.12 65.034 -0.305879
534.086 55.0864 -0.122296
377.084 30.8336 0.537483
95.2842 47.7639 0.313707
445.318 76.0619 -0.067537
561.661 18.0369 0.250721
222.758 33.1883 -0.259762
29.1195 18.8107 -0.211155
309.373 15.4884 0.526355
100.274 42.4947 -0.498257
248.914 44.8439 -0.223353
385.066 3.19386 0.189673
585.765 71.3459 0.397362
518.841 0.693932 0.675224
304.204 3.89991 0.574462
278.317 29.8681 -0.197568
397.139 65.6698 0.212959
75.6361 9.58372 0.524994
184.15 46.759 0.416236
572.044 60.4983 0.357991
429.489 67.4638 0.0800573
186.844 42.1812 -0.288699
148.596 44.8916 0.502799
597.637 53.1092 -0.547891
593.726 21.0857 -0.652241
498.346 19.2599 -0.664916
177.562 25.233 0.126155
457.84 32.1567 0.164251
459.799 32.1472 -0.296109
371.676 6.64749 -0.140623
413.497 2.43042 -0.698982
558.061 65.8709 -0.531393
79.7354 32.9781 -0.271762
524.987 63.9744 -0.455793
256.034 16.1551 -0.461049
8.4794 2.55504 -0.353214
118.232 41.0429 0.219264
62.4258 24.7087 0.61823
525.596 41.3543 0.332971
578.474 90.3922 0.201723
172.806 29.3568 -0.214012
588.936 23.147 0.518846
42.5892 38.0483 -0.276504
84.8821 30.2538 -0.159176
508.584 50.102 0.470528
371.894 21.6171 -0.622227
436.028 19.5055 -0.178216
223.279 31.1989 -0.18868
504.697 17.566 -0.648854
595.006 21.3413 0.377971
26.9687 33.6408 0.309098
252.687 7.93477 0.197869
208.462 15.9094 0.312919
1.27672 37.5959 0.110929
211.39 15.2892 -0.58443
198.522 11.2114 0.135552
200.507 26.8763 -0.278596
122.909 29.7867 0.117562
456.351 16.5439 -0.453108
155.417 14.5134 -0.362994
573.274 79.6358 0.235642
162.23 3.79683 0.522843
44.7421 39.3702 -0.462012
545.388 68.3554 -0.542173
262.068 33.3507 -0.4442
537.333 65.2853 -0.407573
590.792 74.5389 0.458495
279.964 10.0706 0.170809
549.302 36.1999 -0.532011
302.737 2.59523 0.487527
373.812 27.7446 -0.368761
510.516 22.0862 0.509418
98.3104 12.6515 -0.546211
414.696 4.99547 -0.647601
563.727 35.8887 -0.175724
81.9526 8.01474 -0.395759
263.269 16.2128 0.186606
381.144 13.9736 0.266866
593.314 2.34541 0.59856
361.55 1.77346 -0.637768
164.43 39.9746 -0.322041
564.634 16.7264 0.471099
120.405 39.4245 0.191545
245.812 32.6877 -0.388966
361.499 22.1524 0.284445
479.29 15.8293 0.445397
350.985 10.2124 -0.612541
396.333 51.4615 0.501429
562.635 76.6336 0.494403
44.031 12.2215 -0.238048
277.659 42.9587 -0.331304
345.405 31.2931 -0.401841
368.35 22.9232 0.284645
447.467 70.6025 0.361428
556.436 60.6173 -0.212201
526.94 85.4543 0.349371
211.278 35.5714 -0.387831
12.2449 34.1873 0.203087
518.933 85.4047 -0.121733
443.027 70.4978 0.510267
214.15 41.2274 0.122135
543.763 74.9315 -0.112074
140.128 9.93366 0.292599
333.663 25.2689 0.283595
397.261 67.7633 0.102827
372.36 23.0079 0.312376
563.792 84.8678 -0.342792
384.548 6.70216 0.613274
46.1558 26.2834 0.208772
407.076 57.1422 0.336344
381.534 53.2627 -0.367954
578.856 74.1355 -0.245255
548.15 33.7493 -0.340499
452.747 22.08 -0.180575
571.914 70.8586 -0.405861
273.759 2.25923 -0.503028
344.921 34.2786 0.605679
26.596 40.8786 -0.300781
547.509 41.6455 -0.130543
489.694 43.9835 0.578948
404.448 2.63594 -0.545267
117.181 4.73596 -0.363906
376.759 46.693 0.114248
10.9585 0.878136 -0.307926
591.072 7.32726 -0.268232
338.253 46.8983 -0.564356
500.407 29.078 0.469274
[...]
POINT_DATA 13483
TENSORS Strain_matrix float
-1.73159 -3.57654 -14.8522 
0.865425 1.24193 3.56274 
-1.23351e-17 1.68326e-18 1 

-3.74234 3.22141 389.855 
0.203636 0.516727 20.3131 
-5.28593e-18 1.57756e-18 1 

-0.219929 0.0190536 -1.92034 
0.0146723 -0.029967 -2.41219 
-7.9608e-19 -1.24387e-20 1 

-1.20966 -1.03038 -2.17121 
0.421919 0.752939 2.13662 
1.15694e-18 2.37172e-18 1 

-2.02917 -1.68698 0.46065 
0.0553274 0.349142 0.55493 
1.45962e-17 1.21878e-17 1 

-0.360912 0.0374267 -2.39841 
-0.0732695 0.10233 0.273135 
-1.38301e-18 -2.16521e-18 1 

-0.210181 -0.142707 -0.281905 
0.107827 -0.0271425 -0.264059 
-4.08835e-18 -1.38712e-17 1 

-0.267586 -0.11145 -0.595702 
0.285034 -0.0144288 0.279645 
-9.08475e-18 -3.01467e-18 1 

-1.2596 0.656144 3.3475 
-0.210674 1.07466 0.626895 
-1.57909e-19 -7.14024e-18 1 

-0.473851 -0.265538 0.0578367 
0.0723834 0.0186699 0.363858 
-4.27976e-18 -1.37564e-18 1 

-0.131117 0.0026577 0.0624781 
0.0465167 -0.0729221 0.0757267 
-1.61635e-17 -4.89406e-18 1 

-0.328504 -0.0164815 -0.815903 
-0.155677 0.00542812 -0.910593 
2.64842e-19 4.6442e-18 1 

-0.27365 -0.668183 1.14353 
0.376691 0.296663 -0.127024 
-4.63286e-18 -7.19776e-18 1 

-0.26773 -0.674953 -0.288776 
0.634777 0.459657 0.266319 
-9.31216e-18 1.00781e-17 1 

-0.424385 -0.0967001 -1.66329 
0.112075 0.041221 -1.62017 
9.8436e-18 3.0202e-18 1 

-0.171243 -0.0617834 0.77124 
-0.0313077 0.011053 0.35502 
6.92912e-18 -8.26736e-18 1 

-0.106462 -0.0418024 0.0199064 
0.0259441 -0.107081 -0.0997996 
-7.19633e-18 -5.22946e-18 1 

-0.410846 -0.00434242 -0.0231036 
0.177046 -0.0810804 -0.138983 
-2.01902e-18 1.67374e-17 1 

-0.3779 -0.170783 -1.13611 
0.281699 0.255933 0.408951 
-9.81626e-18 6.23017e-18 1 

-0.572125 0.137017 -0.148203 
-0.309268 0.20738 -0.116519 
-6.26306e-18 -1.09499e-17 1 

-0.0851348 -0.385752 0.720222 
0.353377 0.0786215 -0.0400368 
1.95377e-18 -1.37844e-17 1 

-11.1136 4.01706 1.47487 
0.097623 0.379737 -0.756714 
-4.76747e-18 1.3699e-18 1 

-3.94962 0.593595 9.42546 
-1.604 0.698676 6.73586 
3.87766e-18 1.03982e-18 1 

-0.372971 -0.674448 -16.0768 
-0.403704 0.419539 3.81922 
8.81026e-18 -6.19461e-18 1 

-1.3679 0.461974 1.95046 
0.454195 0.440459 -1.54745 
1.961e-17 1.95033e-18 1 

-0.292215 -0.205757 0.181693 
0.13798 0.117892 -0.187897 
2.99101e-18 -9.78427e-18 1 

-0.425441 -0.520111 -0.147264 
0.232096 0.302618 -0.48377 
-2.14655e-17 1.18253e-17 1 

-1.65151 -1.09538 2.12174 
0.521487 1.04725 -0.982261 
2.38195e-17 -4.50369e-19 1 

-0.130542 0.112613 0.754922 
0.106466 -0.106492 -0.445393 
4.13954e-18 -2.08499e-18 1 

-1.57773 -0.43378 1.70251 
0.0481796 0.0165817 -0.582674 
2.03194e-17 2.03069e-17 1 

-1.0385 0.340975 -0.939735 
-0.281859 0.422374 -0.16003 
-3.0547e-17 -2.43245e-17 1 

-0.481859 0.111334 0.488889 
-0.176692 0.0639013 0.471946 
-2.59514e-17 -7.89659e-18 1 

0.152297 -0.829004 -1.57656 
0.635269 0.398741 -0.976995 
-4.82984e-18 8.75016e-18 1 

-1.03792 1.95125 -492.69 
0.00969287 0.409748 -24.5066 
2.39724e-19 1.01951e-17 1 

-0.0892388 -0.095071 -0.0432641 
0.0574963 -0.0977965 -0.485866 
-8.08443e-19 1.02672e-17 1 

-2.76321 0.117791 -3.49078 
-0.606067 0.63905 -3.1805 
3.54349e-18 2.80526e-18 1 

-0.739599 0.13002 0.91387 
-0.0896402 0.250804 -0.0690877 
1.14599e-17 1.15943e-17 1 

-0.576698 -0.0802268 -0.151514 
0.105464 0.0989724 -0.0277946 
-2.0313e-18 5.07826e-19 1 

-0.698242 0.367302 -0.0744592 
-0.0287036 0.246866 0.512124 
7.76065e-18 -8.70567e-18 1 

-1.06979 0.458581 2.95901 
-0.220663 0.562002 -0.429142 
1.86709e-18 1.47282e-18 1 

-0.34854 -0.0713631 0.128322 
0.0468997 0.0579292 -0.401339 
2.36678e-18 -1.09279e-17 1 

-0.113874 -0.40349 0.018974 
0.425984 0.183684 0.446171 
3.74516e-18 0 1 

-0.246892 0.110252 -0.0182601 
-0.27132 -0.217102 -0.0644669 
-1.26005e-17 1.07756e-17 1 

-0.206433 0.0757801 0.183571 
-0.0341935 -0.0134222 -0.347121 
5.58581e-18 2.76005e-18 1 

-0.148843 0.0506513 -0.0136652 
-0.0369333 -0.0462097 0.0802275 
1.51287e-17 1.466e-17 1 

-0.258949 -0.148701 0.210835 
-0.108353 0.0502799 -0.261302 
1.09651e-17 1.4394e-17 1 

-0.802015 -0.366896 -1.37969 
-0.263313 -0.0695344 -1.00166 
-1.02661e-17 -4.6652e-18 1 

-0.0701138 0.0371738 -0.172522 
0.0221743 -0.141256 0.114297 
7.62427e-18 -1.90607e-18 1 

0.288449 -0.822276 0.792927 
0.765647 0.760321 0.747863 
-8.86295e-18 -2.43064e-18 1 

-0.401029 0.46916 1.81102 
-0.38333 0.323147 -2.01142 
-3.4737e-18 -7.65542e-18 1 

-0.398015 -0.124374 0.0356932 
0.172699 0.199409 0.588384 
4.04417e-18 7.17181e-19 1 

0.0503808 -0.537828 0.374759 
0.404978 0.060793 0.047226 
1.36149e-17 8.03412e-18 1 

-0.147119 0.00953368 -0.202601 
-0.0142285 0.0123356 0.236723 
6.15072e-18 -8.39295e-18 1 

-0.500011 0.0356535 3.06263 
-0.0482217 0.0927438 1.36855 
-8.72326e-18 -3.2875e-18 1 

-0.400376 0.121866 0.301203 
0.0838609 -0.00848515 0.472591 
5.4665e-18 3.7112e-18 1 

-2.00124 -2.38729 11.9466 
0.805391 1.17339 -3.34184 
2.10639e-18 3.49921e-18 1 

-0.436464 0.0481991 -0.32042 
-0.189599 0.160113 0.858119 
9.59023e-18 -8.37113e-18 1 

-0.131346 -1.1845 -1.39763 
-0.00620708 -0.0664846 -0.671133 
7.32447e-18 -3.48936e-17 1 

-0.106856 0.0881403 -0.282653 
-0.121628 -0.0730612 -0.223803 
-8.67631e-18 1.09234e-17 1 

-0.452673 -0.174248 -0.060965 
-0.203296 0.141457 -0.328722 
-3.47441e-18 -4.4671e-18 1 

-0.285578 -3.01467 -11.5696 
0.0112238 0.932621 0.366913 
-2.3132e-19 5.14841e-18 1 

0.0557567 -0.432228 0.52366 
0.458248 0.105185 0.948468 
-8.16774e-18 7.95985e-18 1 

-0.122465 -0.0141291 -0.597922 
-0.0159333 -0.0951505 -0.0615618 
3.03207e-17 -1.97912e-18 1 

-0.342451 -0.231067 2.55908 
-0.0159941 0.0433274 0.574051 
5.43639e-19 -1.93733e-17 1 

-0.464757 0.0363554 0.157155 
-0.16792 0.117565 0.582974 
1.65695e-18 1.41743e-17 1 

-0.477835 -0.0872876 0.544249 
-0.100286 0.274001 0.168993 
4.67675e-18 4.9229e-18 1 

-0.726361 -0.309941 0.00814236 
0.0277438 0.0327626 0.839382 
-2.30378e-17 1.39259e-17 1 

-0.165413 -0.391768 0.0426659 
0.36249 0.153487 -0.0337317 
-5.67305e-18 2.25467e-18 1 

-0.267507 -0.254424 0.130184 
0.234969 -0.0871864 0.00463953 
-2.82111e-18 8.21258e-18 1 

-0.355223 0.0698028 -0.274602 
-0.186185 -0.318154 0.473609 
-2.12428e-17 1.4649e-17 1 

-0.53336 -0.829074 -1.49888 
0.39506 0.425518 0.556161 
7.88837e-18 -1.98618e-17 1 

-0.181944 0.0184402 -0.289714 
-0.0533265 -0.034277 -0.116803 
4.80748e-18 -6.62364e-18 1 

-0.389109 -0.054218 0.24424 
0.188143 6.80203e-05 -0.0524557 
-6.98009e-18 -9.20102e-18 1 

-0.645576 -0.143952 -1.06458 
0.355117 0.417911 -0.394939 
2.61825e-18 -1.47398e-17 1 

-0.250122 0.0589572 -0.614693 
-0.0878633 0.0126375 -0.44007 
6.37655e-18 -7.67104e-19 1 

-0.251562 -0.0141034 0.195662 
0.0298717 -0.011986 -0.242484 
-9.69291e-18 8.18494e-18 1 

-0.0657675 -0.725249 -0.518689 
0.344886 0.124535 -0.0739103 
1.09024e-18 -2.80652e-18 1 

-0.168227 -0.218001 -1.15748 
0.252224 -0.00861698 0.135 
1.82748e-17 4.90634e-18 1 

-7.82814 -0.858368 9.08932 
-3.55655 0.498156 6.24201 
-1.84485e-17 2.43895e-17 1 

-0.44941 -0.151496 0.795661 
-0.0086178 0.0511767 0.629654 
1.12559e-17 -3.60835e-18 1 

-1.60784 -0.0903041 -1.11754 
0.466901 0.231527 0.633199 
-8.28576e-18 -1.03572e-18 1 

0.0213258 -0.43468 0.877725 
0.405308 0.0887123 1.3412 
-1.18254e-17 -1.42471e-17 1 

-0.269274 -0.0525892 -0.424663 
0.0625364 0.0758736 0.213227 
-3.18903e-19 -6.37806e-18 1 

-0.477183 -0.163964 -1.02087 
0.0656604 0.224172 -0.140418 
9.30508e-18 5.39565e-18 1 

-0.0365209 -0.56674 -0.1581 
0.336918 0.102611 -0.0964082 
5.61013e-19 -1.10333e-17 1 

-1.45472 -0.401165 -2.31469 
0.119875 0.490096 0.181913 
1.97068e-18 -1.6979e-17 1 

-2.7918 -0.445063 -238.903 
-0.0629769 0.577875 -117.855 
8.21572e-18 9.61013e-18 1 

-0.199846 -0.015909 -0.254122 
0.00187795 -0.000549928 -0.00184134 
2.90673e-18 -5.58365e-18 1 

-0.734821 -0.722662 -0.12708 
0.507616 0.363281 -0.0753023 
5.81656e-19 2.39642e-17 1 

-0.247959 -0.0246051 -6.82389 
0.0408517 -0.0305853 -0.38848 
6.78238e-18 -5.10791e-18 1 

-0.282553 -0.0202075 0.0491731 
-0.170193 0.0217475 -0.146423 
4.63771e-19 -3.52466e-18 1 

-0.354755 0.177423 -0.972024 
-0.0501548 0.0567478 0.240076 
-2.0429e-18 -7.66086e-19 1 

-0.216163 -0.41315 7.01374 
0.423998 0.3169 1.78797 
-3.03809e-18 -5.02474e-18 1 

-0.166617 0.0342873 0.111731 
-0.0511843 -0.0196118 -0.0847431 
1.88829e-17 -1.04555e-17 1 

-0.154592 0.155378 0.118834 
-0.0264165 0.049194 0.493484 
-1.48089e-17 -8.79133e-18 1 

-1.12883 -0.872938 -1.0811 
-0.265857 0.40485 -0.235137 
7.06947e-18 -1.99808e-17 1 

-0.231759 -0.0461961 -0.0897523 
-0.00158801 -0.0591786 -1.08331 
2.08404e-18 3.84919e-18 1 

-0.536219 -0.737434 0.891069 
0.505073 0.31167 0.893881 
-1.08741e-17 -7.01554e-18 1 

-0.0157523 -0.732704 0.110271 
0.592772 0.156389 0.0222167 
1.7243e-18 1.35789e-17 1 

-0.381425 -0.335711 1.51421 
0.36091 0.287865 -0.16908 
-8.88111e-18 4.30003e-18 1 

-0.171317 0.0580944 -0.574112 
-0.0292903 -0.0216087 1.5064 
-2.93178e-18 1.31705e-17 1 

-6.48488 0.184997 2.37059 
-0.434298 1.74695 1.82849 
6.45788e-18 -5.73137e-18 1 

-0.308315 -0.0446279 3.01339 
-0.136911 0.0452155 3.01968 
-1.51111e-19 1.13734e-17 1 

-0.953101 -0.223095 1.01686 
0.0524872 0.24578 1.02994 
2.21907e-17 5.27029e-18 1 

-0.633167 -0.187052 -0.101324 
-0.0977611 0.0367655 0.11762 
1.54147e-17 4.48427e-18 1 

-0.313393 0.115195 0.602775 
-0.177437 -0.126212 -0.3598 
1.49065e-17 5.84874e-18 1 

-0.988726 -0.814379 -0.171471 
0.390405 0.556894 -0.16765 
3.68545e-18 1.89122e-18 1 

-0.191438 0.0395581 -0.416074 
-0.0295455 0.0337292 0.442553 
3.26526e-18 -4.43361e-18 1 

-0.817961 0.159475 -0.190039 
-0.527569 0.239845 -0.320915 
-2.99894e-18 -1.15031e-17 1 

-0.305139 -0.00987832 0.293541 
-0.126325 -0.0292842 -0.136614 
4.64137e-18 1.50845e-17 1 

-0.382771 -0.630206 -65.4952 
-0.0901162 0.393905 19.0408 
-7.41361e-18 -1.05241e-18 1 

-0.165187 0.037742 -2.75821 
0.00268709 -0.0170892 0.632388 
-2.54631e-18 -6.49791e-18 1 

-0.155099 0.24845 0.0621015 
-0.267181 -0.0381771 -0.0279683 
6.95001e-18 -4.34376e-18 1 

-1.23422 -0.410605 19.2059 
0.249054 0.321121 -10.1088 
8.32335e-18 -5.88658e-18 1 

-1.94047 1.8748 0.505233 
-1.78166 1.63427 0.0324291 
1.61347e-17 4.14894e-18 1 

-0.154354 0.0971276 1.80069 
-0.0116003 0.075015 0.688673 
-7.20297e-18 7.48697e-18 1 

-0.219734 0.195005 0.531602 
-0.175247 0.0784477 0.677022 
1.70967e-17 1.19081e-18 1 

-0.421062 0.145513 -0.715891 
-0.0597446 0.22233 -1.18588 
1.62201e-18 2.24132e-17 1 

-0.359843 -0.902271 -0.0277938 
0.413006 0.31094 -0.0931892 
7.01906e-20 -6.7383e-18 1 

-0.173457 -0.574418 0.442555 
0.308188 0.2825 0.41715 
3.9951e-18 -1.15476e-18 1 

-0.64066 -0.0516276 -0.459171 
0.201986 0.00718861 -0.486128 
-5.48896e-18 -2.99885e-18 1 

-0.910386 -0.466316 0.562411 
-0.0494947 0.333208 -0.146311 
-9.84093e-18 -1.4694e-17 1 

-0.126837 -0.0946698 -0.50411 
0.17377 0.0019847 -0.0214621 
8.82404e-18 -2.64501e-18 1 

-0.126885 -0.732852 0.141102 
0.501185 0.302395 0.135465 
-9.58926e-18 8.28546e-18 1 

-0.276159 -0.0492302 0.810288 
-0.0112446 0.0568605 -0.985599 
-5.271e-19 -1.32093e-18 1 

-1.0236 -0.145272 -0.364118 
-0.0580223 0.234873 -0.921451 
6.08383e-18 -8.94681e-18 1 

-0.199622 -0.0857471 0.869936 
-0.130941 0.00830381 0.721667 
-8.82695e-18 -6.99179e-18 1 

-0.353196 0.0473105 0.1125 
0.135111 0.159246 -0.424435 
-1.18969e-17 1.9086e-18 1 

-1.28564 -2.55156 -1.15598 
0.59007 1.67265 0.968668 
7.7723e-18 -9.38789e-18 1 

-0.415686 -0.126037 -4.05259 
0.12411 0.174137 3.43146 
2.38902e-18 4.64173e-18 1 

-1.62953 0.0242488 -0.777424 
0.317843 0.565737 1.28423 
8.99136e-18 -5.473e-18 1 

-0.254991 0.0961465 -0.605013 
0.455134 -0.0391563 0.975114 
-1.31993e-17 2.1679e-18 1 

-0.137017 0.171553 0.38184 
-0.0379112 0.0298638 -0.698624 
7.49301e-18 6.05908e-18 1 

-0.580972 -0.212484 -0.278864 
0.219614 0.021974 -0.218661 
1.32281e-17 -9.84414e-18 1 

-0.856799 -0.415253 0.814087 
-0.00116312 0.447154 -0.227296 
-8.33238e-18 1.08743e-17 1 

-0.145626 -0.0942674 0.362405 
-0.0917989 -0.0408542 -0.305138 
-1.96975e-17 3.12884e-18 1 

-0.949262 -0.00987061 1.66604 
-0.737471 0.587293 0.0456282 
3.26058e-18 1.51115e-17 1 

-0.317793 -0.128758 -0.161289 
0.111382 0.167444 -0.0316748 
6.54081e-18 -4.40954e-18 1 

-0.538167 -0.400208 -0.143044 
0.340333 0.0936176 0.254976 
9.93878e-18 -1.06606e-18 1 

-0.0954202 -0.321392 0.0230781 
0.319234 0.028009 0.0102423 
8.25736e-18 -1.437e-17 1 

-0.475025 -0.0746192 -0.291944 
-0.187037 0.19333 0.492889 
-1.12184e-17 -9.22864e-18 1 

-0.151585 0.0952862 0.238309 
0.00775884 0.00794965 0.133576 
-5.30857e-18 5.00809e-18 1 

-0.234595 -0.114802 0.103576 
0.106908 -0.0275606 0.477748 
-1.45998e-17 -1.42705e-17 1 

-0.456921 -0.143734 -1.2534 
-0.0192211 0.335312 0.788635 
8.93499e-19 1.41576e-20 1 

-0.140678 0.0690272 -0.188635 
-0.0440508 0.0105899 -0.0539785 
-7.53479e-18 -2.06971e-17 1 

0.0828555 -0.995893 -1.51389 
0.567758 0.433171 -0.809053 
-2.70945e-18 -2.36209e-18 1 

-1.06 0.262274 0.650751 
-0.549145 0.418004 -0.66398 
-1.51302e-17 1.05115e-17 1 

-0.15889 0.0263952 0.445732 
-0.0611829 -0.0941593 0.994443 
2.75733e-18 -6.41941e-18 1 

-0.625881 -0.0616534 -0.501619 
0.115666 0.302923 -1.57274 
-3.99916e-18 -2.26697e-18 1 

-0.216761 0.0579074 0.343626 
-0.176415 0.0136827 0.0987194 
5.01527e-18 1.89234e-18 1 

-0.316179 0.00505606 0.430735 
-0.018706 0.0815038 -0.575832 
2.48837e-18 7.94897e-18 1 

-0.634826 -0.138884 0.29413 
-0.141184 0.339815 -0.858327 
2.99143e-18 1.37334e-17 1 

-0.232287 -0.0672754 2.43806 
0.059008 0.00117758 1.83108 
-3.2413e-18 8.27091e-18 1 

-0.246305 0.0606659 1.22463 
0.0463523 0.10202 0.212924 
-4.32467e-18 1.84155e-18 1 

-0.235151 -0.0377342 -2.61077 
0.0463791 0.0203565 0.535635 
-3.26097e-18 1.94461e-19 1 

-2.33576 0.150494 -3.89757 
-0.25991 0.702238 0.366198 
6.41288e-18 1.08659e-17 1 

-2.06409 -1.05231 -2.5517 
0.875281 0.954859 2.38574 
-1.27253e-17 1.56281e-17 1 

-0.252808 -0.0240869 1.5 
-0.0725397 0.0897154 0.88152 
-5.957e-19 1.01625e-17 1 

-2.72272 -2.40006 13.4684 
0.249524 0.98489 7.59116 
6.45404e-18 5.90421e-18 1 

-1.41452 0.390348 0.656224 
-0.216835 0.243825 -0.0959741 
-7.3273e-18 -8.16206e-18 1 

-0.0810132 -0.260383 1.03651 
0.196688 0.0705553 -1.95171 
-2.57347e-18 -1.66282e-17 1 

-0.445315 -0.334991 -0.0879337 
0.198454 0.011477 -0.856351 
-2.27388e-17 1.05859e-17 1 

-0.814113 -0.0243776 1.83092 
0.213599 0.351563 0.29544 
3.05667e-17 8.95217e-18 1 

-1.42229 -1.61056 -144.469 
-0.0058894 0.823216 62.9076 
-3.86235e-19 -2.11128e-17 1 

-0.426193 -0.370814 1.71211 
-0.100468 -0.0426793 0.469132 
1.90172e-17 9.02522e-18 1 

-1.53021 -0.562132 -0.435558 
0.869224 0.434902 -0.0560357 
1.38312e-17 5.60933e-18 1 

-0.130225 -0.0511167 -0.155711 
0.109079 -0.020821 0.100096 
8.45102e-18 8.36021e-18 1 

-0.335013 0.435146 -0.0796253 
0.0214487 0.199543 -0.071756 
-8.33416e-18 -6.37006e-18 1 

-0.194008 -0.0677834 0.753032 
0.0917526 -0.104723 1.15854 
-8.81052e-18 6.82384e-18 1 

-0.254106 -0.0411129 0.441767 
0.0428509 0.0176242 -0.351778 
-4.90624e-18 1.19114e-17 1 

-0.259973 0.031343 0.444692 
0.099592 0.020384 -0.132715 
5.48475e-19 7.6238e-18 1 

-0.150473 0.0901188 -0.507973 
-0.138461 0.00632032 -0.37438 
-1.18891e-17 -3.06142e-18 1 

-0.578967 -0.0864874 -0.0584491 
-0.136166 0.192004 -0.0135057 
-1.35664e-17 -1.09274e-17 1 

-0.726017 -0.251893 -1.05268 
-0.0464969 0.314328 0.267351 
1.43881e-17 1.11833e-17 1 

-0.267656 -0.520443 0.278975 
0.703923 0.426298 -0.276937 
5.21787e-18 -7.67811e-18 1 

-1.63661 -0.595189 2.80639 
0.965109 0.707731 0.436677 
1.43701e-19 5.74806e-18 1 

0.095039 -0.761447 0.141344 
0.75931 0.450724 0.722576 
-1.53192e-17 -1.17631e-17 1 

-0.167956 -0.169312 0.0742986 
0.0797574 -0.0609643 -0.124257 
4.68087e-18 2.29921e-18 1 

-0.534347 -0.810247 13.1543 
0.275625 0.521486 -3.64042 
-2.11771e-18 -2.92028e-18 1 

-0.293588 0.268364 -0.0558029 
-0.238758 -0.115054 -0.103944 
5.22463e-18 4.2747e-18 1 

-0.175443 -0.132998 -0.0857914 
0.0705516 0.0500436 0.714889 
3.36445e-17 -7.13268e-18 1 

-0.468662 -0.148566 1.57924 
-0.0787691 -0.0128418 0.175338 
0 7.81176e-18 1 

-0.507048 -0.0485393 -0.0505202 
-0.157274 0.08171 -0.136701 
-1.55827e-18 -1.23235e-17 1 

-0.143816 0.0117567 0.411656 
0.0337551 -0.0497691 0.416398 
-1.2457e-17 -1.38258e-17 1 

-0.690017 -0.106069 -0.311352 
-0.0201653 0.128303 0.114207 
-1.17198e-17 6.32317e-18 1 

-0.258675 0.0170308 -0.131655 
-0.0661457 -0.0831525 0.301788 
-5.39506e-19 2.67595e-18 1 

-0.948386 0.0314471 -0.562558 
-0.0549478 0.282004 -0.370333 
1.02198e-17 -4.55338e-19 1 

-0.0349571 -1.10292 1.26596 
0.579494 0.751194 0.892651 
3.78555e-18 1.45113e-17 1 

-0.19262 -0.0262256 1.44959 
-0.00975824 -0.0231343 0.36334 
4.20505e-18 1.86131e-18 1 

-0.694308 -0.572943 -0.410928 
-0.12686 0.0791285 -0.674767 
-9.94927e-18 1.45691e-17 1 

0.370549 -1.01052 -0.361217 
0.934629 0.515421 -0.383087 
-3.43135e-17 -1.04264e-17 1 

-0.525115 -0.0939835 -0.662418 
-0.229361 0.217471 0.472658 
-8.43841e-19 -7.21953e-18 1 

-0.679035 -0.729188 -1.13376 
0.137047 0.26394 0.408782 
-6.60884e-18 -6.48646e-18 1 

-1.00052 -0.990866 -0.115123 
0.932618 0.854829 9.59074 
6.78952e-18 -3.23041e-18 1 

-1.37485 -1.23018 -0.96971 
0.519864 0.696315 -1.15972 
-2.69604e-17 1.48542e-19 1 

-0.520087 -0.951888 16.7271 
0.0221142 0.951485 -2.65194 
5.94407e-18 2.4817e-17 1 

-1.40584 0.147669 2.93213 
-0.604293 0.474286 -0.251544 
4.29432e-18 1.65343e-17 1 

-0.299236 -0.284422 0.599084 
0.238681 0.372058 -1.38338 
-7.57597e-18 1.36385e-17 1 

-1.56682 1.03583 0.289999 
-0.580337 0.750383 -0.0811092 
-1.14769e-17 3.71111e-18 1 

-0.0687536 -0.271174 -0.104267 
0.269488 0.091107 0.0100022 
8.2532e-18 -1.56025e-18 1 

-0.0150698 -0.162944 -0.125315 
0.197057 -0.0524463 0.0552059 
-4.49826e-18 9.37138e-19 1 

-0.126156 0.0591653 -0.0939289 
0.0379115 -0.0146959 -0.215708 
1.35379e-17 3.13956e-18 1 

-0.651007 -0.405672 1.02348 
-0.213925 -0.0486474 -0.430976 
-2.65733e-18 9.72617e-19 1 

-0.515156 2.2276 -16.6351 
-0.0820576 0.650345 -2.545 
1.53475e-17 6.47237e-18 1 

-0.586184 0.224853 -0.0438568 
-0.381247 0.217663 -0.0181688 
-4.9753e-18 3.24476e-19 1 

-0.573183 -0.0236469 0.45589 
0.0397599 0.224183 1.90685 
7.53628e-18 2.55291e-17 1 

-0.133094 -0.048155 0.303594 
-0.00677684 -0.0265435 0.301116 
5.8655e-18 -4.96169e-18 1 

-0.294291 -0.128858 -0.309992 
0.0178749 0.166262 0.685303 
-6.46992e-18 -7.35218e-20 1 

-0.16339 -0.493732 4.06619 
0.506475 0.110922 2.87675 
1.33702e-17 3.22729e-18 1 

0.0286076 -0.267663 -0.00967044 
0.218799 -0.0304996 -0.217486 
3.77493e-18 -1.85539e-17 1 

-0.153209 0.0558267 -0.125509 
-0.0499651 -0.050187 0.304917 
-1.10377e-17 1.58514e-17 1 

-0.538115 -0.0276652 -1.38589 
-0.0167805 -0.00283297 2.24236 
7.95271e-18 -2.28307e-18 1 

-0.248064 -0.196675 0.431025 
-0.0618323 0.269609 -0.852339 
8.03366e-18 6.26232e-19 1 

-0.247059 0.1419 -0.546438 
-0.0776836 0.0821126 -1.16179 
3.6697e-18 2.28661e-18 1 

-0.56377 0.189025 0.125033 
-0.0936686 0.219795 -0.875682 
-1.07392e-17 5.8441e-18 1 

-1.9425 1.5479 6.71782 
-0.568385 1.14059 0.107165 
2.70951e-17 9.66476e-18 1 

-0.236632 -0.0160677 0.215453 
0.0245195 -0.0139574 -0.0524856 
-2.01888e-17 -2.89378e-17 1 

-4.36707 4.18621 -9.07501 
0.0797643 0.549319 -2.77023 
-5.28099e-18 1.2039e-17 1 

-2.28767 -0.0468922 -27.7032 
0.228264 0.531809 -33.4905 
-4.88727e-18 -2.0701e-18 1 

-0.113614 -0.383301 -0.242962 
0.115755 0.052439 -0.345677 
4.04984e-18 1.34995e-17 1 

-1.14431 -1.55056 -1.18422 
0.0562373 0.773472 6.29267 
6.83281e-18 -3.8476e-18 1 

-1.12106 -0.325662 0.825375 
0.520221 0.503336 0.26035 
8.12872e-18 9.75447e-18 1 

-0.142981 -0.0238183 0.225583 
0.0321591 -0.0249312 -0.192235 
-7.57366e-18 6.96428e-19 1 

-0.23605 -0.0424116 -5.54368 
-0.01064 0.0581375 0.280821 
-3.05194e-18 8.07867e-19 1 

-0.280002 -0.228031 0.0140805 
0.129532 0.11428 0.422481 
-6.77606e-18 1.53131e-19 1 

-0.177845 -0.139217 0.253784 
0.0136198 -0.000814173 -0.059965 
2.05633e-18 3.11387e-18 1 

-0.142911 -0.0387876 -0.0970283 