# vtk DataFile Version 3.0
Output file generated by Yade's KinematicLocalisationAnalyser
ASCII
DATASET UNSTRUCTURED_GRID

POINTS 13483 float
625.829 27.79 0.54855
802.229 59.3251 0.517503
122.061 6.08639 -0.466775
834.97 6.53283 -0.468562
511.229 7.79578 -0.259508
321.168 34.8864 -0.463923
159.266 6.92672 0.429553
586.046 10.1003 0.147455
507.675 23.5119 -0.206601
752.959 12.1508 0.419411
214.517 8.86943 -0.0831369
262.1 6.30266 -0.259767
676.718 29.6431 -0.152138
654.603 14.5886 0.0854213
139.578 17.2389 0.409824
225.617 34.5551 0.405265
221.901 12.9248 -0.295119
294.645 9.66162 0.39619
348.075 32.5865 -0.498785
537.362 8.57475 0.351004
419.574 36.6242 0.0985042
609.237 44.8239 -0.255326
832.4 35.4601 -0.499709
726.434 42.9473 -0.501152
469.081 16.2414 0.287998
245.616 44.1646 0.135268
502.642 27.5661 -0.492967
603.784 20.07 0.23496
45.8964 15.5945 -0.378253
748.74 31.9605 0.0154244
493.58 4.93538 0.315159
16.8112 23.1741 0.320352
815.015 60.0697 0.255964
506.942 2.52543 0.465365
79.4951 44.4805 -0.100024
534.515 30.0611 0.36227
544.016 16.5325 -0.406474
351.233 22.5237 -0.213235
547.335 25.3428 -0.330099
358.023 33.2966 0.467457
245.816 14.6546 -0.302316
443.753 35.6986 0.076909
702.992 7.05965 0.171412
196.538 6.2531 0.366747
56.4286 6.98405 -0.129105
69.7737 8.93147 -0.299601
720.413 9.11098 -0.51812
23.7959 11.8192 -0.298795
630.758 45.0816 0.362078
704.688 23.2025 0.372708
175.931 32.2538 0.317315
799.474 43.2549 -0.119313
35.4419 28.1184 0.121009
547.911 2.99171 0.322526
144.685 7.44779 -0.501857
612.36 34.1006 0.445418
516.292 26.6953 -0.163777
178.321 0.93864 -0.274362
33.1551 2.38078 -0.303201
356.353 17.7928 0.274111
641.396 46.2535 -0.141111
472.858 33.4133 -0.186893
408.378 1.02871 0.197979
731.587 8.07887 -0.403253
27.148 43.2053 -0.234886
261.565 30.5176 0.294394
753.3 7.58362 0.192757
697.516 45.8059 0.374418
427.041 8.65178 -0.504852
586.996 3.53429 -0.34489
783.113 32.7314 -0.453304
133.159 7.70025 0.282436
510.321 25.8272 0.151586
489.236 14.878 -0.151147
300.942 16.7135 -0.342049
20.8601 13.7186 0.283927
823.678 52.5508 -0.304359
340.276 38.7068 -0.296335
702.083 20.3256 -0.342528
720.09 12.8704 -0.252199
824.338 11.5682 -0.246179
476.347 34.3692 0.184529
94.1253 38.6623 0.290974
713.99 33.9292 -0.221831
673.339 38.8341 -0.0278367
838.67 44.3214 -0.111342
815.723 0.805769 -0.511961
297.684 28.7456 0.448288
643.463 6.43165 -0.104841
24.6515 5.31438 -0.546779
135.664 38.1721 -0.157403
526.13 14.6128 0.231267
817.963 38.9383 -0.534678
199.795 28.7952 0.221159
45.1124 34.3216 0.293211
505.856 1.17532 0.13401
241.116 8.94204 -0.373846
783.048 45.9437 -0.308659
805.312 36.0766 0.274274
370.175 20.9232 -0.266563
167.56 26.729 -0.471356
566.317 38.2699 0.424571
389.478 15.612 -0.449856
423.861 29.589 -0.0936552
387.561 4.51905 0.414134
564.377 10.8734 -0.0941895
840.03 11.2646 -0.296507
81.9033 39.3934 -0.408486
343.835 4.91177 -0.192166
579.362 9.45467 -0.354211
369.408 43.6927 0.448336
26.1437 24.9013 -0.496575
30.8072 5.70678 -0.344553
587.607 32.2235 -0.315351
519.271 24.3581 0.149054
26.6991 37.0221 0.420547
95.0658 30.7019 0.239608
333.535 15.9278 -0.292791
622.241 18.7952 -0.169427
488.643 37.778 0.312071
771.478 7.72101 -0.41076
763.447 6.4955 -0.224561
397.441 37.0632 0.0960402
660.606 25.8227 0.173286
244.326 17.0967 0.489739
338.995 3.73464 0.459308
105.812 31.5107 0.374495
119.038 24.4101 -0.287431
561.496 38.5305 -0.089412
314.324 18.9016 0.4599
743.976 34.8541 0.151926
701.702 44.8106 0.121716
494.91 20.5159 -0.418692
812.559 22.0848 0.312922
440.996 23.3684 -0.24129
284.166 24.3425 0.297071
703.955 30.1656 -0.298466
286.501 28.3703 -0.428626
597.793 12.2845 -0.197411
341.426 35.443 0.210717
520.572 11.2591 0.472018
377.33 31.5021 0.0975093
443.158 16.7945 -0.106123
327.391 41.7789 0.340537
195.984 29.709 0.133957
805.493 55.7681 -0.148429
837.52 13.3863 -0.230009
6.14546 12.4979 -0.48784
447.272 22.4781 -0.422581
39.0973 22.5255 -0.0846535
387.614 31.2117 -0.324248
406.935 24.8985 0.251745
76.8956 11.9776 0.501629
53.1335 33.1361 0.423117
232.418 13.5144 0.412984
643.434 38.2683 0.490512
600.008 21.1274 -0.477663
76.8902 21.0475 0.312577
729.252 46.4363 -0.404505
794.652 3.3998 0.540809
690.176 41.6007 -0.51632
726.803 2.35221 -0.543955
570.656 26.4831 0.420636
610.986 44.9855 -0.458657
530.016 18.0683 -0.414122
833.327 3.81463 0.326274
230.235 24.7581 0.147513
131.176 35.0879 0.201374
254.858 6.44406 0.378689
97.013 4.41064 0.278208
66.0613 10.15 0.216805
284.462 35.8774 0.322202
16.8849 25.0512 0.392868
576.922 19.3531 -0.402418
630.318 39.966 0.240986
478.484 21.0807 -0.382567
834.093 58.457 0.376354
420.078 8.6322 -0.106916
450.31 35.9608 -0.387643
556.572 3.39085 -0.194867
23.2802 24.0597 -0.38714
600.382 4.56346 0.458486
566.673 4.33742 -0.291112
212.693 11.335 0.486286
439.286 16.5739 -0.194974
321.522 6.34273 0.340963
400.966 19.0674 -0.321281
771.988 43.2351 0.12092
198.226 25.6987 -0.439599
810.118 8.82191 -0.560334
772.357 39.1736 0.358896
396.226 10.1864 -0.161229
750.507 2.39658 0.46542
629.878 25.7161 -0.425571
778.732 18.3585 -0.424682
445.643 42.7705 -0.307813
514.887 12.678 0.385012
481.685 44.0289 -0.224812
460.979 8.63327 0.124571
693.64 40.369 0.305752
691.051 36.657 0.333904
198.485 38.9082 -0.255902
822.231 11.417 -0.141451
612.881 45.3431 -0.247299
11.6054 16.8552 0.246235
421.189 25.2352 0.385484
193.283 23.099 0.397772
95.8032 39.4959 -0.206469
816.665 35.8006 -0.467987
687.583 46.3184 0.243861
330.132 25.4335 0.341013
553.474 10.2083 0.318925
84.7793 44.5981 -0.173305
255.981 25.7836 -0.472311
579.576 23.6401 0.386954
504.762 18.6943 0.375258
271.615 0.889011 -0.344044
575.879 39.6551 -0.375286
554.768 40.6956 -0.467553
499.503 33.1445 -0.336469
517.943 0.826556 -0.544241
737.612 19.2185 0.37105
185.449 12.0648 -0.188551
519.323 36.437 0.452605
588.308 39.7912 0.134471
75.2527 0.947143 0.27241
260.285 4.72486 0.179566
835.914 16.5582 0.172873
824.018 13.635 -0.54573
840.879 18.7439 -0.686683
313.918 8.58901 -0.228586
783.824 23.8815 0.443486
421.42 41.3471 -0.309468
465.3 0.814688 -0.399968
678.712 36.8115 0.463544
27.8876 30.7173 0.300003
342.348 41.3551 0.576058
261.144 2.85875 0.331293
819.014 57.2055 -0.151287
747.657 46.9927 -0.279639
297.27 10.9984 0.234616
697.012 29.7678 -0.135338
581.214 2.65007 0.300084
564.405 6.41805 0.42239
99.7665 18.3983 -0.506748
313.804 1.03371 -0.22537
355.416 2.25637 -0.366776
14.2435 7.60849 -0.44492
4.55815 31.0605 -0.266208
167.192 18.8342 0.381041
70.279 41.7736 0.215885
68.7642 28.9675 0.368362
438.957 14.6945 -0.434029
380.29 34.9899 0.475294
796.941 45.1848 0.15799
19.9737 4.03659 0.267145
72.876 6.928 0.1244
652.979 38.1312 -0.213302
304.984 0.916929 0.360313
378.245 16.1944 -0.0928422
243.776 4.70494 -0.393355
683.041 21.9611 -0.268679
468.52 8.35024 0.42049
786.868 21.9757 -0.474184
659.808 29.2841 0.345869
700.873 18.6851 -0.104172
435.639 26.5525 0.535023
105.441 44.9981 -0.307662
565.181 42.0584 0.074084
776.625 13.3787 -0.190634
246.214 30.4508 -0.257928
32.9208 17.1865 -0.200582
348.708 13.7624 0.50939
110.987 40.605 -0.395974
277.208 42.2122 -0.207703
441.286 1.61402 -0.302867
822.124 45.1671 0.487438
719.802 0.770237 0.492153
344.396 3.32976 0.541081
310.884 26.4555 -0.152565
480.505 40.8893 0.225594
84.2454 8.10112 0.424724
204.818 45.0476 0.37777
807.366 38.8491 0.410171
514.456 38.9659 -0.0827341
207.27 41.3433 -0.262884
166.549 42.3355 0.315561
842.141 41.0023 -0.392185
839.3 13.0337 -0.631979
634.177 3.41449 -0.467717
196.914 24.5434 0.11107
572.479 27.407 0.110162
574.515 27.1973 -0.268629
424.702 5.69136 -0.138278
500.737 0.923792 -0.297466
795.372 48.1361 -0.541552
87.7411 31.0425 0.220399
689.162 18.8122 -0.435838
284.293 15.5553 -0.346127
9.7288 2.34112 0.349127
129.748 36.9143 0.189498
69.2649 23.3207 0.510888
736.946 36.8847 -0.319115
822.016 65.468 0.165078
192.147 28.3775 -0.191106
832.414 14.2338 0.436303
46.4939 36.4363 -0.270032
93.9807 29.088 -0.166996
664.03 12.7473 0.569925
429.155 18.4137 -0.464795
540.662 16.5218 0.13152
246.761 28.4582 -0.182275
650.735 4.55777 -0.390775
840.813 12.9277 0.322684
30.5936 31.785 0.284839
280.033 7.72931 0.193572
230.032 15.1192 0.2547
1.06836 35.7447 0.149599
233.405 14.5898 -0.368448
219.419 11.0756 -0.106337
222.167 26.3222 -0.272653
137.661 27.8219 -0.133118
571.133 14.9743 -0.352645
173.153 14.1314 -0.358386
813.298 57.0504 0.24607
180.37 3.80969 0.510914
48.8534 37.403 -0.407704
775.833 51.527 -0.452733
291.551 31.2789 -0.376771
710.825 23.1374 -0.435323
829.102 46.6546 0.472841
311.95 9.2007 -0.106965
772.188 30.635 0.327939
341.293 2.57077 -0.39511
432.037 24.075 0.344807
707.038 16.175 0.416485
109.05 11.933 -0.463981
502.471 3.79347 -0.525148
790.858 20.9186 -0.265661
91.4661 7.67964 -0.230003
292.135 14.7695 0.201214
439.761 11.8723 -0.205625
832.29 2.47884 0.617482
413.393 1.98937 -0.526696
183.323 38.7587 -0.309651
779.588 10.493 -0.373464
133.019 36.2029 0.183543
272.79 31.36 -0.392193
415.876 21.6777 0.218299
600.241 14.2199 -0.319742
402.133 9.76025 -0.492133
474.63 27.503 -0.354961
802.366 58.1112 -0.395399
49.1273 11.0918 -0.110462
310.669 38.4571 -0.255521
394.34 26.9963 0.345672
425.495 21.0637 0.249407
542.784 44.0522 0.356388
791.334 44.4969 0.198341
696.537 35.6841 -0.378347
234.109 34.1793 -0.382351
14.2756 31.6073 0.173179
689.494 37.8145 -0.137347
530.061 41.0438 0.44578
238.094 39.1927 -0.0911059
717.789 30.3653 -0.101611
156.511 9.287 0.212162
380.776 21.3775 0.333133
482.31 41.9515 0.103688
430.097 19.8257 0.216053
798.916 62.967 0.29137
442.801 3.8611 0.505141
51.3767 25.036 0.199633
488.954 31.5915 0.363322
451.973 42.2179 -0.387434
817.167 49.8833 -0.215671
769.412 29.05 0.241975
564.626 18.3391 -0.192444
809.623 49.0537 0.345075
304.515 2.2049 -0.46229
393.084 29.4361 0.492666
29.9574 38.8135 -0.31557
775.01 32.028 -0.15381
638.375 20.0909 0.524026
481.626 0.777259 -0.47247
130.563 4.56809 0.271054
443.414 40.1806 0.111032
12.1961 0.911336 -0.315975
831.055 6.85076 0.123928
384.617 39.1593 -0.410336
[...]
POINT_DATA 13483
TENSORS Strain_matrix float
-0.229844 -0.0666298 0.843974 
0.102699 0.0866392 -2.72711 
-3.1699e-19 -7.76626e-18 1 

-0.432989 -0.388184 -17.3261 
0.111104 0.630929 15.55 
-2.33487e-18 -1.06477e-18 1 

-0.108068 0.00297427 -0.855096 
0.000334732 -0.0390707 0.952612 
-7.12963e-19 -2.97068e-18 1 

-0.968223 0.00700587 -1.18764 
-0.0694433 0.27846 0.0574624 
2.16883e-18 -1.91942e-17 1 

-0.271997 -0.0232477 -0.0379117 
-0.0102295 0.0397811 -0.430987 
-1.91966e-18 -6.12252e-18 1 

-0.0828029 -0.0242931 -0.988786 
0.0134288 -0.0171417 0.190086 
-8.5092e-18 -5.87599e-18 1 

-0.0825102 -0.0209729 0.0964318 
0.000138521 -0.091753 0.0785583 
1.23942e-17 6.67771e-19 1 

-0.0865732 -0.000827896 -0.0842827 
0.0433535 -0.0571063 -0.0231737 
-8.34245e-19 -1.06135e-17 1 

-0.153728 -0.0308964 0.0622665 
0.0387083 0.0129064 0.346063 
6.12614e-18 -7.4647e-18 1 

-0.267771 0.0441839 0.000913633 
0.0230333 -0.00955166 0.0381306 
-3.06166e-17 1.32043e-17 1 

-0.0798075 0.0226583 -0.0874107 
0.0018431 -0.0641936 -0.0362966 
1.98132e-19 8.0369e-19 1 

-0.0981212 -0.0506164 0.199835 
-0.0632845 -0.0934805 0.0610715 
3.24726e-18 7.54311e-18 1 

-0.317341 -0.103565 0.872452 
0.0740672 0.153628 0.109502 
7.84e-18 1.20586e-17 1 

-0.152948 -0.0391529 -0.274658 
0.0442892 -0.0446423 0.0160921 
2.22627e-18 -1.13937e-18 1 

-0.140518 -0.0268005 -0.510024 
-1.65262e-05 -0.0411983 -0.183271 
-9.7874e-18 -2.02498e-18 1 

-0.09609 -0.0370343 0.727478 
-0.0439577 -0.0235266 0.00680144 
1.6574e-18 -3.86191e-18 1 

-0.0734566 -0.0415518 0.0698646 
0.00731354 -0.110787 -0.0622455 
8.87832e-18 -7.33825e-18 1 

-0.145962 -0.0151956 -0.0409861 
0.00858023 -0.0745917 -0.000931761 
-7.40705e-18 -8.34451e-18 1 

-0.150468 0.0194057 -2.42812 
0.00677648 -0.021071 -0.20693 
-4.93045e-18 6.06597e-18 1 

-0.100534 0.0288305 0.154334 
-0.0856715 -0.0737279 0.403894 
2.90175e-18 1.84346e-18 1 

-0.0652445 -0.0527256 0.0967574 
0.127521 -0.0347322 0.0104493 
6.0267e-18 1.18948e-19 1 

-0.133316 -0.0648349 0.0420083 
0.0279703 -0.12095 0.333595 
-5.69775e-18 -2.2791e-18 1 

-0.314853 -0.449324 0.97294 
0.487242 0.273947 0.840301 
-3.30819e-18 -7.23667e-18 1 

-0.154115 0.0481895 -1.68743 
0.0438011 -0.011777 -0.291336 
4.2867e-18 -6.54425e-18 1 

-0.0589919 -0.0440238 -0.160081 
0.0901469 -0.0450148 -0.0740963 
-2.44527e-18 0 1 

-0.171731 0.071219 -0.021254 
-0.0495519 0.0528086 -0.0133253 
8.50054e-19 -6.90129e-18 1 

-0.126036 -0.007243 -1.41938 
0.042272 -0.0112011 -2.69499 
5.20317e-18 4.27706e-18 1 

-0.123179 -0.00884545 -0.35648 
-0.0468975 -0.0156903 -0.138797 
1.13009e-17 1.661e-18 1 

-0.0940334 0.0587725 0.394412 
0.0628405 -0.0693101 -0.43439 
-6.67218e-18 -2.3998e-18 1 

-0.306449 0.0465959 0.548663 
0.0113149 0.0941198 -0.00543417 
1.01177e-17 -2.55924e-18 1 

-0.088932 -0.00357286 -0.310651 
0.00593083 -0.140794 0.376973 
1.26953e-17 -4.53876e-18 1 

-0.160537 -0.0188373 0.122476 
-0.00341035 -0.0259882 0.0515266 
-4.8995e-18 5.3168e-18 1 

-0.082813 -0.684066 -0.474302 
0.472651 0.213029 -0.878282 
-6.176e-18 1.0615e-18 1 

-0.152663 0.0848556 -0.640945 
-0.0218561 0.0561209 -0.238665 
-1.91863e-18 1.74421e-18 1 

-0.0479961 -0.00576623 0.0605163 
-0.0252027 -0.050186 0.0627231 
-2.73911e-18 3.98416e-18 1 

-0.142055 -0.002064 -0.274278 
-0.0188614 0.00982916 0.299347 
1.15547e-18 -6.77878e-18 1 

-0.0870956 -0.00409744 0.264162 
0.0235408 -0.0501092 -0.504282 
1.18644e-17 -4.61549e-18 1 

-0.0816472 -0.00801876 -0.206011 
-0.039836 -0.151085 -0.06686 
-1.21384e-17 2.66331e-17 1 

-0.106206 -0.037713 -0.1003 
0.116495 -0.0256106 0.0402262 
6.73776e-18 1.19565e-17 1 

-0.0956438 -0.0158163 1.26196 
0.00102804 -0.0201974 1.81366 
-8.05912e-19 -1.38537e-18 1 

-0.0974566 0.0088383 0.0266889 
-0.0762077 -0.0548497 -0.0384527 
4.59119e-18 6.09035e-19 1 

-0.0791243 -0.013417 -0.14 
-0.0239992 -0.0424728 0.378296 
-9.65767e-18 7.6961e-18 1 

-0.351301 -0.0331772 0.0344957 
-0.0449289 0.00814777 0.0389456 
1.45552e-17 -1.16716e-17 1 

-0.0789426 -0.0119951 0.170153 
0.000569791 -0.0730028 -0.561129 
4.07511e-18 -6.6262e-19 1 

-0.088682 0.0424054 -0.00218924 
-0.0545599 -0.0912187 0.142823 
3.20599e-18 -8.37757e-18 1 

-0.086932 0.00295449 -0.061502 
-0.013832 -0.0529664 -0.210016 
-6.9158e-18 4.05343e-18 1 

-0.252269 0.0123885 -0.413035 
-0.00130366 -0.0660485 -0.729463 
-1.56179e-17 2.38898e-19 1 

-0.0551576 0.0120711 0.0469683 
-0.00492284 -0.135006 -0.00586217 
7.32156e-18 -3.78041e-18 1 

-0.146242 0.0565704 -0.242767 
-0.0030663 0.0267035 -0.154671 
5.1396e-18 1.59857e-17 1 

-0.142291 0.127171 0.0417773 
-0.143317 -0.041964 -0.0863205 
7.26844e-18 -1.03112e-17 1 

-0.0769552 -0.0673738 -0.212256 
0.0271204 -0.021446 -0.0976988 
-1.40901e-17 -3.85276e-18 1 

-0.102825 -0.190564 0.528473 
-0.00964437 -0.0303015 0.132613 
6.97004e-18 -1.04551e-17 1 

-0.121212 -0.0103074 -0.153887 
0.0121682 -0.00116756 0.185157 
-8.93556e-18 2.27175e-18 1 

-0.124286 0.0486799 0.103156 
-0.0222645 -0.0447974 -0.0359294 
-7.64934e-18 -5.61086e-18 1 

-0.116932 0.00112408 0.756448 
-0.0159077 -0.0610609 -0.842296 
-7.10726e-18 -2.20237e-18 1 

-0.120247 -0.0566443 -1.12604 
0.0187901 0.00319725 -0.12593 
-6.07328e-19 -9.19244e-18 1 

-0.154909 -0.0344401 0.0420106 
0.0200959 -0.0126728 -0.105485 
-1.00894e-18 -1.21072e-18 1 

-0.0956184 -0.298253 0.306864 
-0.00360995 -0.00032515 -0.0667602 
-2.25504e-19 6.31926e-17 1 

-0.0527807 0.00415058 0.0322417 
0.00574668 -0.126021 -0.0730771 
4.45145e-19 -6.13615e-18 1 

-0.090467 -0.0435171 -0.248432 
-0.0525883 -0.0515388 0.0294257 
-7.34593e-18 1.42681e-17 1 

-0.253475 0.148011 -0.323093 
0.149053 0.484711 0.594566 
1.1671e-18 2.77185e-18 1 

-0.0898862 -0.0692208 -0.271203 
0.0531324 0.00582539 0.0890003 
-2.14937e-18 3.80099e-18 1 

-0.100967 -0.0910342 -0.283633 
-0.0096618 -0.0534971 -0.134068 
1.0432e-18 -5.94451e-18 1 

-0.177474 0.0801351 0.255506 
-0.0121544 -0.0558543 -0.388521 
9.37667e-18 -1.05056e-17 1 

-0.163348 0.00728097 -0.170069 
-0.0243665 0.0584322 -0.422201 
8.66762e-18 -3.14201e-17 1 

-0.17509 0.0219992 0.000869716 
0.0472312 0.018055 0.13617 
-6.34475e-18 -1.12795e-17 1 

-0.173428 -0.0199439 -0.0794259 
0.093355 -0.0920597 -0.144121 
-5.43719e-18 1.27352e-17 1 

-0.258914 -0.0539216 0.113981 
0.0737239 0.143811 0.572007 
-4.1869e-18 -6.15826e-18 1 

-0.11919 -0.0138064 -1.14215 
-0.0347205 -0.0694308 -2.18647 
-2.31627e-18 1.06858e-17 1 

-0.137391 -0.024748 0.0790755 
-0.0209105 -0.0822159 0.0643793 
8.9111e-20 -1.8045e-18 1 

-0.706366 -0.0766206 -0.163396 
-0.00242007 0.294177 0.543985 
2.61488e-18 -1.46433e-17 1 

-0.069786 0.00303495 0.0502328 
-0.00931998 -0.0713476 0.0951308 
3.40924e-18 -1.79433e-18 1 

-0.117217 -0.0178222 0.129733 
0.00571736 -0.0542048 0.195654 
1.57666e-18 1.06425e-17 1 

-0.0891304 -0.0343471 0.262583 
-0.0267832 -0.0571173 -0.358855 
-2.41279e-18 -3.08252e-19 1 

-0.100407 0.00380821 -0.579399 
-0.0227081 -0.0466051 -0.157692 
1.19137e-17 -7.87607e-18 1 

-0.0759437 0.0328243 0.0117107 
-0.0320481 -0.0782978 -0.0635382 
-9.39373e-18 -1.54605e-18 1 

-0.571946 -0.414098 -0.42496 
0.0733289 0.298728 -0.635703 
6.20257e-18 3.9322e-18 1 

-0.126419 0.0648491 -0.645943 
-0.0439219 -0.0353869 0.162601 
-1.98068e-18 -2.73182e-18 1 

-0.262485 -0.00280708 -0.579526 
-0.0674704 0.0184098 0.456914 
1.69296e-18 -4.09025e-18 1 

-0.147497 0.0261964 0.128613 
0.0516928 -0.0544881 0.00244246 
-5.32221e-18 -4.7826e-18 1 

-0.531845 0.0177108 0.418414 
0.341067 0.0368952 0.285299 
-2.66208e-17 -4.02587e-18 1 

-0.0942479 -0.0563207 -0.105728 
0.038852 0.0109004 0.05215 
1.27133e-17 2.76066e-17 1 

-0.0652843 -0.00363585 0.0066083 
0.0100047 -0.0307571 0.0783509 
-3.17817e-19 -1.51888e-18 1 

-0.299012 -0.214434 0.489239 
-0.0184545 0.0815654 -0.428546 
-2.20602e-17 -4.11619e-18 1 

-0.188957 -0.426323 -1.08911 
-0.0870658 0.213616 0.676274 
1.28845e-18 8.34425e-18 1 

-0.495654 -0.152156 -0.717901 
0.0674233 0.200573 0.302176 
-1.03734e-19 -5.49789e-18 1 

-0.909949 -4.73404 -3.28616 
-0.034514 0.340872 -0.319302 
6.459e-18 5.96594e-17 1 

-0.109453 0.023286 -0.0239434 
0.0202681 -0.0719589 -0.254004 
3.17602e-18 -6.47467e-18 1 

-0.145016 0.0567724 -0.138503 
-0.0513779 -0.0366297 -0.0990786 
-1.19121e-17 -1.85347e-17 1 

-0.108297 0.00575688 1.9672 
-0.000525824 -0.0558842 -1.59744 
-2.54862e-18 -9.62813e-19 1 

-0.103249 -0.0267022 0.194783 
-0.0334535 -0.0529606 -0.0895383 
-1.42016e-18 2.00126e-17 1 

-0.127161 -0.0523194 -0.0506364 
0.0493842 -0.0407675 0.200846 
1.34962e-17 3.14296e-18 1 

-0.496725 -0.0446489 19.8073 
0.126859 0.279529 9.064 
2.23851e-18 -2.2986e-18 1 

-0.125539 -0.00384338 -0.071078 
0.0161867 -0.0139614 0.0931515 
6.17108e-19 1.99373e-18 1 

-0.0987241 0.0427836 0.292506 
0.00791034 5.69665e-06 0.0300539 
7.37653e-18 6.94489e-18 1 

-0.135784 0.0585111 -0.097689 
0.00384198 -0.0308135 0.0109488 
3.71745e-18 2.34281e-17 1 

-0.112714 0.0296752 0.0333829 
-0.0302649 -0.0434924 -0.113375 
4.61367e-18 5.40136e-18 1 

-0.685524 -0.177079 1.6347 
0.185185 0.237491 1.36151 
3.18476e-18 -8.45245e-18 1 

-0.164291 -0.418522 0.0307921 
0.203248 0.0663981 -0.0836032 
4.93591e-18 -1.68031e-18 1 

-0.0777086 -0.00334745 0.13533 
-0.0269914 -0.051196 -0.114801 
-3.11887e-18 1.27734e-17 1 

-0.0892043 -0.012077 -2.10683 
0.0057734 -0.028422 -0.759218 
2.67309e-18 2.16626e-18 1 

-0.158097 -0.00997126 -0.360535 
-0.0171508 -0.0180535 -0.0973168 
5.1568e-18 1.9743e-18 1 

-0.0957422 0.00139683 -1.49789 
-0.00992267 -0.0423726 0.40712 
-6.31808e-18 4.60486e-18 1 

-0.0987522 0.00215677 0.132968 
0.0105916 -0.0111894 0.198108 
-1.05112e-17 -1.04711e-17 1 

-0.107051 -0.0141252 0.063635 
0.0168867 -0.0767709 0.330663 
-1.12712e-17 4.03901e-18 1 

-0.106355 -0.0319328 0.147664 
0.0443275 -0.0479067 0.0400621 
-3.56759e-18 3.47578e-18 1 

-0.980653 0.0749292 0.843517 
0.170052 0.373617 -0.942985 
-4.52212e-18 -1.03838e-17 1 

-0.0922739 0.0154005 0.364226 
-0.026352 -0.000655854 0.450979 
5.05978e-18 3.94816e-18 1 

-0.130583 0.0393508 0.116201 
0.042049 -0.106682 -0.0562234 
-2.24276e-18 -6.39187e-18 1 

-0.135672 0.00288311 -0.360743 
0.0197369 -0.0694802 -0.091538 
1.31072e-17 -2.1021e-18 1 

-0.12453 0.0418117 1.20074 
0.0365959 -0.0305753 1.53943 
-3.78354e-19 1.89177e-19 1 

-0.104225 0.0194673 -1.55736 
-0.00442034 -0.0389081 -4.13374 
-1.8795e-18 -3.10791e-18 1 

-0.0723916 0.0434487 -0.00131149 
-0.00716671 -0.127313 -0.0443977 
-1.16773e-18 -5.67603e-18 1 

-0.156505 0.0863425 0.0222701 
0.0548542 0.0378366 -0.299447 
1.52542e-18 -1.18097e-17 1 

-0.134948 0.0359651 0.000527444 
-0.0188665 -0.0295551 0.137686 
3.54352e-18 6.4186e-18 1 

-0.10166 -0.00409654 -0.365579 
0.00152965 -0.00221062 0.346497 
-5.69513e-18 7.19385e-19 1 

-0.0801871 0.0560072 -0.000759344 
-0.06945 -0.00705523 0.0962009 
-1.74793e-19 7.8657e-18 1 

-0.0867006 0.0442349 -0.044669 
0.0435713 -0.0523814 -0.0465813 
-5.82187e-18 -4.75766e-18 1 

-0.158013 0.0435991 0.0909452 
-0.0101581 -0.0299991 -0.0729656 
-1.57798e-19 -2.83172e-18 1 

-0.124089 0.040272 -0.0269937 
0.0138044 0.00619269 0.211474 
-8.42702e-18 3.44903e-18 1 

-0.232297 0.0428873 -0.234232 
0.0316001 -0.0714776 -0.0828406 
1.13699e-17 -4.63399e-18 1 

-0.299776 0.106102 -0.169927 
-0.107001 0.00877962 0.722666 
-7.7923e-18 -5.70752e-18 1 

-0.0691748 -0.00940961 -0.0319107 
-0.0178295 -0.00950686 -0.0643693 
-9.42099e-18 -4.48047e-18 1 

-0.163823 -0.0317392 -0.012144 
0.053958 0.00191639 0.0246409 
7.72993e-18 -6.6494e-19 1 

-0.0918385 -0.00328586 1.00946 
-0.0178781 -0.0603077 0.382874 
1.08695e-18 -4.54944e-19 1 

-0.0913814 0.0443191 -0.326786 
-0.0152498 -0.13585 -0.0369679 
5.84658e-18 6.42792e-18 1 

-0.152386 -0.000583337 0.138449 
-0.0334787 -0.0111261 0.0591169 
-2.95369e-18 -2.66457e-18 1 

-0.157094 0.0558745 0.00633908 
-0.0514089 0.0278093 -0.00696408 
9.70137e-18 -3.74196e-18 1 

-0.0782009 -0.0601373 0.164432 
0.013737 -0.0030014 -0.196803 
4.89241e-19 7.19883e-18 1 

-0.105807 0.0277462 0.0316428 
0.0148813 -0.0309421 -0.311716 
-1.27845e-17 -2.42625e-18 1 

-0.115166 -0.0872915 -0.246433 
0.0603245 -0.0210364 0.156475 
-6.31306e-18 -1.10503e-17 1 

-0.403647 -0.0203784 -0.247528 
0.262458 0.167759 0.54962 
1.78904e-18 -8.46811e-18 1 

-0.106774 -0.021385 -0.502219 
0.0038163 -0.0295105 0.0227435 
4.59181e-18 -5.10202e-19 1 

-1.44954 0.934946 -1.07917 
-0.2822 0.400888 -0.651129 
1.04587e-17 8.69067e-18 1 

-0.12569 0.0145997 -0.295294 
-0.0350717 0.00215673 -0.210196 
-3.30033e-19 -1.44429e-17 1 

-0.0720095 0.0183996 0.0211116 
-0.0158281 -0.0106504 0.0813764 
-4.46682e-19 1.55288e-17 1 

-0.167045 0.0251985 0.644255 
-0.00398017 -0.0211457 0.304932 
1.58744e-17 3.39483e-18 1 

-0.0964338 -0.0129247 0.0710425 
-0.00082005 -0.0476803 0.309107 
1.46101e-18 2.33762e-19 1 

-0.102986 -0.0485068 -0.000854285 
0.104675 -0.0515212 0.112481 
1.88756e-17 2.3572e-17 1 

-0.0614905 -0.0868903 0.031875 
0.0419092 -0.0806846 -0.0814779 
-1.92425e-17 1.4031e-18 1 

-0.142884 -0.0238974 -0.0819912 
0.0295722 -0.0546894 -0.0446938 
-7.60172e-18 -4.79281e-18 1 

-0.0794526 -0.0401579 0.0927813 
0.075607 -0.0138967 0.0591714 
3.56757e-18 9.79334e-19 1 

-0.101209 -0.0435181 0.100809 
-0.00440339 -0.0359868 -0.141229 
6.38141e-18 -6.59107e-18 1 

-0.0626516 -0.0444967 -0.181987 
0.0416096 -0.0213053 0.115665 
1.48985e-17 -2.15497e-18 1 

-0.0667595 0.0297728 -0.164086 
-0.01766 -0.0227331 0.0511963 
2.11816e-18 -8.5404e-18 1 

-0.244714 -0.643483 -2.16335 
0.24914 0.288727 -0.858546 
1.5585e-17 3.95033e-18 1 

-0.488122 -0.0840159 0.527403 
-0.218093 0.0371753 -0.413718 
4.21977e-18 -1.15168e-17 1 

-0.103175 0.00935276 0.675744 
-0.0688637 -0.113057 -0.605669 
9.82454e-18 -9.98142e-18 1 

-0.107354 0.0317489 -0.103279 
-0.0488693 -0.0485264 -0.353027 
-5.99166e-18 -4.22941e-18 1 

-0.101972 0.00704591 0.169445 
-0.0556011 -0.0225665 0.0425886 
1.41489e-17 -2.62728e-18 1 

-0.0903255 -0.0416424 -0.132625 
0.00684395 -0.00829344 0.0841153 
3.86755e-18 5.35765e-18 1 

-0.188656 0.0383868 0.0946913 
0.0173521 -0.0309177 0.148125 
1.76341e-17 1.66019e-17 1 

-0.112619 -0.0633885 0.791063 
0.0296775 -0.0475293 0.821505 
-1.02068e-18 2.45179e-18 1 

-0.098013 -0.00292647 0.166812 
0.00242265 -0.021906 0.102524 
2.55428e-18 6.42835e-18 1 

-0.081521 -0.0268855 0.197355 
0.00653341 -0.0628772 -0.0119812 
2.08253e-18 -6.31118e-18 1 

-0.266501 0.0368368 -0.227935 
0.00370342 0.0336885 3.99311 
-2.01434e-18 1.63488e-18 1 

-0.145201 -0.0241269 -0.712674 
0.100998 -0.00676381 -1.89784 
-2.82834e-17 -4.15424e-19 1 

-0.11201 -0.0331933 0.319691 
-0.010544 -0.0231201 -0.0571046 
-2.04273e-19 -3.31643e-18 1 

-0.174567 0.0722758 -1.94596 
0.0193656 0.256258 -0.558511 
1.63096e-18 -6.68655e-18 1 

-1.13692 0.649596 2.74171 
-0.269304 0.460754 0.316104 
-1.01835e-17 -3.53593e-18 1 

-0.235773 0.0126868 2.63265 
-0.0146288 0.0497323 3.0693 
1.7516e-19 4.51199e-18 1 

-0.276219 -0.00207846 0.356104 
-0.0320035 -0.0565918 -0.538694 
7.56637e-18 1.90982e-17 1 

-0.113425 -0.105208 0.581682 
0.0649203 -0.0130807 0.0631421 
-1.64871e-17 4.25473e-18 1 

-0.154178 -0.0311267 0.147425 
-0.00135857 0.280051 -3.71029 
1.35036e-18 -7.11722e-18 1 

-0.137621 -0.0398805 0.0390281 
0.0354152 -0.0537976 0.415879 
4.64388e-18 6.58187e-19 1 

-0.837244 0.0242514 -0.198045 
0.349622 0.058823 -0.1035 
-1.62749e-18 -1.79024e-17 1 

-0.110628 0.00912626 -0.0811687 
0.0248628 -0.0407849 0.0614138 
-3.83701e-18 -1.21447e-17 1 

-0.0908641 0.011792 -0.0937779 
-0.0282019 -0.0181286 0.0860839 
1.14235e-17 -9.48484e-18 1 

-0.0533095 -0.0511571 0.10394 
0.00666405 -0.094178 0.229425 
-1.64549e-17 1.06161e-18 1 

-0.164608 -0.0105525 -0.0537813 
0.0134969 -0.00995892 -0.36921 
-1.15014e-17 5.796e-19 1 

-0.0913873 0.000734866 -0.0904785 
-0.00526819 -0.0493104 0.0366906 
1.00696e-18 2.73892e-18 1 

-0.061058 0.00043712 -0.157223 
0.0204808 -0.0212773 -0.0640416 
3.2387e-19 -3.87588e-18 1 

-0.126555 0.00473383 0.554178 
-0.0162862 -0.0213694 0.0833672 
-1.22688e-17 -1.98954e-18 1 

-0.149966 -0.0255864 -0.0633859 
-0.0255456 0.0151123 0.385381 
9.51966e-18 1.03091e-17 1 

-0.0881704 0.0168393 0.0771585 
-0.126264 -0.0620605 -0.0541306 
2.95383e-18 -7.25501e-19 1 

-0.122178 0.00287857 0.0513852 
-0.0439013 -0.0792942 0.216429 
1.02468e-17 -3.27897e-18 1 

-0.304136 -0.152749 -0.282367 
0.245661 0.184054 1.36435 
8.28467e-18 -1.29633e-17 1 

-0.11255 -0.0169024 -0.0178061 
-0.00912235 -0.0510088 -0.1422 
-1.05557e-17 3.88764e-18 1 

-0.175091 -0.0301179 0.15315 
-0.0247511 0.0306501 0.129586 
-7.48163e-18 -1.04395e-17 1 

-0.13365 0.0749037 -0.0129277 
-0.0338554 -0.0981059 -0.0322263 
3.06387e-18 7.58559e-18 1 

-0.0744586 -0.0254888 -0.043947 
-0.0371284 -0.0517021 -0.065535 
-7.17389e-18 4.30743e-18 1 

-0.260819 0.0526028 -0.494355 
-0.112229 -0.0278521 0.271614 
-8.31152e-18 -2.07788e-17 1 

-0.0706185 -0.00594671 0.0148488 
-0.0324417 -0.0579816 0.0566121 
-1.21983e-17 1.34571e-18 1 

-0.0941081 0.00289417 -0.952896 
0.0158408 -0.0665569 0.370852 
-3.17192e-18 4.22922e-18 1 

-0.199247 -0.0663708 0.00248681 
0.130857 0.0397182 -0.240646 
1.01149e-17 1.46745e-17 1 

-0.12489 -0.0137278 0.117258 
-0.0579393 -0.048516 0.137828 
8.23271e-18 -7.0566e-18 1 

-0.156112 -0.0109037 0.292736 
-0.0297141 -0.0118002 -0.128451 
6.20405e-18 -8.52926e-18 1 

-0.19618 -0.602683 -0.545123 
0.414602 0.288524 0.294736 
5.84864e-18 -8.60095e-19 1 

-0.0833733 0.021568 -0.793003 
-0.000588043 -0.0554083 0.0156895 
-3.36763e-18 1.27636e-17 1 

-0.497196 0.0100541 0.366129 
-0.0460834 0.00285528 -0.463031 
-1.82086e-17 1.09597e-17 1 

-0.0422919 -0.398767 -0.183821 
0.405053 0.0366824 0.0319759 
-3.84532e-18 8.41163e-19 1 

-0.119438 -0.0944226 -0.0949066 
0.0715577 -0.06139 -0.0972377 
-4.5981e-18 -2.86539e-19 1 

-0.227149 -0.0617702 -0.556342 
0.0501521 -0.054714 0.237457 
1.56179e-18 -1.41275e-17 1 

-0.199889 -0.0775727 -0.631632 
0.0234115 0.0821316 1.01197 
5.47657e-18 1.39088e-18 1 

-0.361141 -0.0716255 -0.473884 
-0.0210937 -0.00180961 -0.788826 
9.71207e-18 -9.96631e-18 1 

-0.127104 0.0372702 0.0933284 
-0.0421633 0.0229941 -0.199681 
5.85851e-18 -4.98597e-19 1 

-0.103773 0.139253 0.0436837 
-0.0881434 -0.0638656 -0.141408 
-4.06967e-18 -9.68968e-20 1 

-0.0898239 0.0339293 -0.240556 
-0.0375476 0.00254206 -0.216787 
5.85229e-18 8.48582e-18 1 

-0.0962517 -0.0429008 -0.0882704 
-0.0511614 -0.0634754 0.289446 
7.24003e-18 3.81054e-19 1 

-0.14251 0.123217 -0.0295374 
-0.0493335 0.0255298 0.337595 
-8.56267e-18 1.41836e-18 1 

-0.157361 0.0782827 0.387342 
-0.0548551 0.0422907 0.853093 
-4.09395e-18 -6.53763e-18 1 

-0.0931057 0.0204155 0.0098342 
0.014717 -0.0174408 -0.0617799 
9.3575e-18 -5.27111e-18 1 

-0.266721 0.0591216 -0.0133376 
-0.103431 -0.0539945 0.190594 
8.90745e-18 -1.07435e-18 1 

-0.269366 -0.222335 -0.493577 
-0.00605234 0.0896774 0.206489 
2.49325e-18 1.20428e-17 1 

-0.147243 0.0363259 0.0607897 
-0.00107668 -0.0526075 0.0131009 
5.87264e-18 1.4218e-17 1 

-0.095391 -0.0215298 -0.0872925 
-0.031064 -0.0399849 -0.0163651 
-5.03475e-18 1.19776e-17 1 

-0.0867628 -0.0233925 0.0593734 
-0.000775952 -0.0330758 0.653565 
-5.83055e-18 7.84551e-18 1 

-0.0823559 0.00785869 -0.494936 
0.00530433 -0.0026897 -0.0604479 
7.71179e-19 -8.03995e-18 1 

-0.195358 -0.302813 0.198416 
0.347347 0.0581252 0.0527961 
3.99275e-18 -9.8658e-19 1 

-0.0989319 0.0456767 0.137083 
-0.1811 0.0364268 -0.323007 
8.46496e-18 -6.99583e-20 1 

-0.0741494 0.0371791 0.153323 
-0.0511215 -0.0408938 0.120755 
4.61136e-18 -2.67381e-18 1 

-0.129048 0.00705682 -0.118423 
0.000613722 -0.045905 -1.47622 
-7.50453e-18 -1.22666e-17 1 

-0.0677914 0.0624229 0.0660328 
-0.00847364 -0.0601328 0.140099 
8.19532e-19 -2.25371e-17 1 

-0.0986757 -0.0121412 1.06083 
-0.0197412 -0.0255482 -1.25525 
-2.84716e-18 -1.2178e-19 1 

-0.170093 0.0206811 0.50475 
0.00928953 0.00730844 -0.342371 
2.57052e-18 -1.32402e-17 1 

-0.0422982 -0.0502709 -0.404786 
0.0220025 -0.02911 -0.00164304 
2.22942e-17 -1.10616e-17 1 

-0.116971 -0.0242312 0.0745411 
-0.00314656 -0.133988 0.038314 