# vtk DataFile Version 3.0
Output file generated by Yade's KinematicLocalisationAnalyser
ASCII
DATASET UNSTRUCTURED_GRID

POINTS 13483 float
536.097 41.8429 -0.471711
648.559 84.1394 0.435116
113.808 6.12568 -0.433384
671.164 7.30242 -0.403783
466.291 8.68209 0.358134
303.587 38.3652 -0.467114
149.612 7.07017 0.467742
514.056 12.8436 0.207743
462.804 24.5798 -0.179692
615.252 18.7492 -0.578044
201.877 8.68895 -0.0895536
247.567 6.70124 -0.24142
565.798 57.9733 -0.145173
558.522 24.7778 -0.10808
130.809 17.1447 -0.476117
211.964 36.8816 -0.395967
208.873 13.1755 0.286634
278.108 9.90012 0.432663
326.751 35.2718 0.4504
487.274 8.72126 0.36632
395.503 42.1919 0.102189
523.722 49.0417 0.314325
672.342 55.4266 -0.50168
601.367 58.3487 -0.461487
432.734 17.6438 0.296524
231.121 46.4889 0.151491
456.498 32.6107 -0.491644
527.302 20.0386 0.307722
41.7475 16.6651 -0.455912
611.72 50.5209 -0.352276
451.586 7.04847 0.560632
15.841 22.9654 0.284872
662.817 85.4715 0.241385
462.967 2.16963 0.658077
74.2039 46.6701 -0.104676
476.042 38.4086 0.332606
485.523 22.7797 -0.500067
330.73 22.2821 0.195207
486.341 36.2527 -0.350776
336.574 39.2603 -0.387757
232.088 14.461 0.312456
411.125 43.7025 -0.0790674
583.779 12.4267 -0.16949
184.456 6.35902 -0.373748
52.1418 7.27334 -0.0975735
64.2323 8.96354 -0.228147
590.341 10.6491 0.57466
22.2396 12.251 -0.325639
524.192 65.9831 0.37495
581.955 50.2608 0.326941
165.212 33.693 -0.293492
644.536 67.3422 0.124736
32.8504 29.9726 0.118799
495.3 3.80731 0.581144
135.594 7.49404 -0.517131
527.96 40.4445 0.372709
465.219 30.9916 0.152789
167.796 0.955414 0.28456
31.0567 2.31579 -0.366155
336.101 18.1199 0.260866
535.806 77.737 0.132021
435.005 42.8285 -0.178681
381.449 1.03756 0.209105
598.882 13.1325 0.697773
24.499 45.5339 -0.260045
246.834 32.1104 0.302817
613.584 11.2505 -0.336513
585.648 86.3651 -0.358806
399.071 9.31306 -0.625986
513.084 6.02152 -0.372844
632.103 40.8592 0.437275
124.689 7.87154 0.256709
460.184 32.6848 -0.157148
448.956 17.3271 0.10124
284.173 17.1848 -0.359843
19.5173 13.9995 0.267852
657.27 64.8152 -0.301097
322.422 40.6018 -0.296184
579.698 44.9665 0.356221
594.089 22.0162 0.216137
662.971 18.2616 -0.198109
437.991 46.0639 0.174337
88.2587 42.5678 -0.167659
590.573 67.1423 -0.226188
563.788 67.1699 0.0969616
677.587 61.8937 -0.108141
658.475 0.762547 0.565191
280.834 29.6518 0.409166
561.166 6.23667 -0.157435
23.364 5.94061 0.650118
128.138 41.4398 0.137686
479.894 17.4124 0.21228
654.978 52.9985 0.470435
187.749 30.5437 0.225752
42.5744 37.6323 0.266843
461.818 1.14442 0.114215
227.354 8.65082 -0.456019
628.472 76.957 -0.258711
647.96 50.7011 0.221178
348.034 24.5095 -0.256426
156.632 27.5576 0.424767
495.577 60.574 -0.441156
365.651 16.5583 -0.524036
395.751 35.6101 0.106262
363.563 6.70368 0.439205
500.773 20.4927 -0.143116
676.719 11.6222 -0.34167
76.6564 41.7806 0.3893
323.641 5.03839 -0.236873
509.238 13.7441 -0.460481
347.734 50.8581 -0.485102
23.5586 25.9735 0.468525
28.9769 5.74654 0.306805
508.502 52.7884 0.414822
467.108 29.7747 0.161287
22.7777 40.07 0.463528
89.4701 33.4324 0.223368
314.238 16.5889 0.307916
539.325 23.4474 0.151229
447.334 48.7924 -0.323116
627.4 7.14497 -0.466495
618.971 6.40209 0.266623
374.065 39.9643 -0.102027
558.608 43.1183 0.122461
230.785 17.462 0.520851
319.161 3.93808 0.458485
98.3913 33.0834 0.30673
111.29 25.1355 0.261071
491.818 57.3357 0.0806479
296.767 19.2317 0.479316
611.153 66.0612 -0.110221
591.76 84.4999 0.00335636
451.297 27.1254 -0.431796
657.148 34.3206 0.328869
408.659 28.2261 0.251444
269.58 24.6319 -0.310551
585.51 66.4427 0.280716
270.204 31.475 0.397072
522.666 12.4622 0.249782
324.017 37.5553 0.192302
474.516 13.3896 0.61863
353.402 34.9454 -0.0871012
411.409 20.4524 0.0971182
309.686 44.4461 -0.451097
183.926 31.1057 0.112711
652.756 82.5306 -0.143191
674.909 13.6879 -0.327937
5.84437 12.9199 -0.428724
413.679 25.3333 -0.395347
36.6015 24.4137 -0.103389
364.019 35.1346 -0.474555
381.383 27.3537 -0.278922
71.0697 11.9624 -0.530416
49.3694 36.272 -0.470912
219.06 13.6394 0.466656
534.487 69.8044 -0.409329
523.737 21.4746 -0.543717
72.0369 21.2274 0.53342
602.363 62.6979 0.425878
648.599 17.783 -0.486099
579.47 78.76 -0.452282
598.308 2.18873 -0.559567
503.714 40.5188 -0.405296
524.403 50.5574 0.59173
477.153 23.6862 -0.371812
668.689 5.68291 0.441433
217.164 24.9977 -0.120151
124.692 37.349 -0.188351
240.418 6.92083 -0.394349
90.1129 4.71827 0.286959
60.8473 10.9114 0.3144
269.392 37.8532 -0.293667
15.9203 24.7178 -0.368771
510.443 32.5804 0.513371
528.938 66.9217 0.195737
439.238 23.6144 -0.421904
662.776 66.6149 0.363969
392.554 8.80788 -0.134801
417.756 40.7578 0.390812
499.589 7.71839 -0.226899
20.8459 24.9975 -0.449101
524.276 4.66925 0.578179
504.235 13.4155 0.458474
200.274 11.2425 0.510068
408.438 16.9989 0.199525
303.58 6.31667 0.394757
375.298 20.1024 -0.341599
632.603 66.5226 -0.117663
187.268 26.7511 0.463685
653.043 8.72204 0.363456
636.04 65.862 -0.306262
371.347 10.9992 -0.19192
610.14 3.63065 0.522906
539.317 38.0729 -0.454745
627.853 23.3233 -0.35515
415.961 49.3863 -0.306661
469.258 13.7315 0.53722
441.394 55.6148 0.239238
426.702 11.036 -0.136012
583.114 80.2826 0.113536
575.683 69.7726 -0.293467
186.548 40.8232 -0.34678
660.86 18.0509 -0.191754
525.623 49.7002 -0.294604
10.5263 18.9738 0.161892
394.223 27.8707 0.359223
182.378 23.4858 -0.395108
89.6665 43.8296 0.259052
655.399 46.7076 0.411936
574.113 80.7499 0.22388
310.913 26.9421 0.340703
494.249 17.3866 0.350883
79.0963 47.5623 -0.17157
240.868 26.8857 -0.466681
512.081 37.7658 0.425805
460.149 19.4792 0.421659
256.366 0.913732 -0.35864
501.015 67.0511 -0.387045
485.887 56.385 -0.624376
456.742 45.4707 0.419966
472.321 2.09282 -0.657364
602.859 28.6882 0.523816
174.3 12.73 -0.241311
465.127 51.5981 -0.413863
512.098 66.3515 0.151567
69.7601 0.968609 0.307983
245.477 4.93725 0.168431
674.476 17.2226 -0.227113
662.571 20.2676 -0.576357
678.222 22.6952 -0.509102
296.31 8.57633 -0.242949
631.853 31.2487 -0.440915
396.787 47.3625 0.351194
429.847 0.811118 0.58831
568.937 68.4642 -0.420051
24.7394 31.3807 -0.311515
324.078 42.9894 -0.640078
246.393 3.10238 0.434585
664.679 82.2314 -0.164339
613.71 79.786 -0.188792
280.518 11.3728 0.265992
579.892 57.7543 0.0836677
508.251 6.73071 0.3339
501.723 15.6747 -0.579423
92.2785 18.9718 -0.510909
296.096 1.04278 -0.232837
334.488 2.25313 -0.372468
13.295 7.43739 0.455974
4.87489 34.0392 0.158605
157.515 18.9257 0.350273
65.4314 44.2626 -0.234391
62.996 31.1042 0.294432
408.343 15.2895 -0.443759
356.244 38.4326 -0.468206
643.208 69.2038 0.107169
18.8947 4.14158 -0.291465
67.4301 7.27436 0.186512
541.304 63.7388 -0.137161
287.636 0.956789 0.403678
354.408 18.1231 -0.0789221
229.932 4.69641 -0.365062
571.293 46.2821 0.197663
432.108 8.66879 0.485596
632.574 27.9672 0.37371
555.865 47.0768 0.291988
583.453 38.0565 0.0934465
405.144 32.4155 0.484802
99.7779 47.5557 -0.31671
492.287 62.729 -0.101694
629.432 12.7947 -0.341232
232.494 32.5334 -0.25041
30.6352 18.7615 -0.158502
328.272 14.2379 0.501908
104.26 42.0131 -0.462616
262.106 44.2226 -0.23147
412.231 2.26911 -0.250843
658.049 56.6998 -0.394583
593.004 2.7236 -0.654046
324.097 3.52457 0.592073
292.913 29.2205 -0.147103
440.287 52.4917 0.20147
78.3373 7.99936 0.484302
192.583 46.8452 -0.397712
649.775 50.8345 -0.359775
470.801 63.6577 0.067122
195.047 42.7284 0.290361
156.003 44.2562 -0.192772
677.435 50.0685 -0.39258
676.696 13.5151 -0.571251
553.328 4.94004 -0.543165
186.152 24.7795 -0.0845013
502.188 45.1446 0.106977
505.891 43.6721 0.269659
397.096 5.92767 -0.15394
456.819 0.926526 0.377746
638.692 76.4853 0.475165
82.7708 33.0724 0.225268
576.283 37.0999 0.43405
268.03 16.1168 -0.323121
8.95504 2.40742 -0.314217
122.929 38.6349 -0.185058
65.183 25.0236 -0.498294
607.81 58.8679 0.338847
670.943 85.1573 -0.174664
181.419 28.5895 -0.178156
671.227 16.9579 0.491245
43.6002 39.8128 -0.268086
88.2559 31.8619 0.14957
567.123 25.0486 -0.444519
400.616 20.1906 -0.546664
483.861 23.2205 0.180226
233.081 30.6528 0.190279
556.345 12.8645 -0.659579
678.444 11.5228 0.574654
27.636 33.0314 -0.270752
264.014 7.68666 0.195656
217.117 15.5861 0.305423
1.10201 38.2985 0.154664
220.153 14.8398 0.402055
206.512 11.0839 -0.117393
208.699 27.0027 0.28579
128.909 28.6624 -0.132527
505.828 26.3524 -0.339984
162.538 14.397 0.34075
660.608 82.7048 0.217127
169.72 3.88058 -0.50951
45.9986 41.3046 -0.38358
623.595 70.5474 0.460765
275.951 33.0068 0.391779
585.49 48.5554 -0.496516
663.535 49.9242 0.544525
294.442 9.26334 -0.0961356
624.921 42.7745 0.404283
321.13 2.51734 -0.439109
401.604 27.5779 -0.358613
587.474 32.6465 -0.528591
101.892 12.12 0.543645
459.015 3.7328 -0.514648
637.18 27.6435 -0.249788
85.2265 7.72454 -0.367898
275.63 15.0829 0.188883
409.472 12.3516 -0.192018
669.602 2.89745 -0.541172
386.231 2.01345 -0.547327
171.703 40.9974 0.341396
632.295 10.9838 -0.549656
126.256 38.8449 -0.201462
257.106 32.7036 -0.391919
388.813 22.5645 0.200162
524.96 14.423 -0.356341
375.699 10.1403 -0.555118
436.779 32.3634 -0.431887
648.962 85.6404 0.394759
45.4778 12.3371 0.130925
293.488 43.4576 -0.300856
369.939 28.7098 -0.380523
397.083 21.4788 -0.272705
476.818 53.1957 0.494709
640.232 69.2867 -0.192847
580.495 68.4173 -0.343975
219.555 35.5839 0.380117
13.6851 35.3723 0.151081
577.627 70.4131 0.115423
479.329 60.4775 -0.442363
224.767 40.1797 -0.0978156
590.45 54.6407 -0.11478
146.983 9.48496 0.212158
356.526 25.0806 0.283691
442.056 53.5207 0.109085
401.336 21.6864 0.224006
645.156 85.9092 -0.295692
412.975 4.61676 0.629502
47.9201 26.7617 -0.285885
446.322 39.8263 0.343955
420.29 44.9165 -0.422801
655.762 66.1018 -0.223224
623.051 45.6341 0.275794
501.933 31.4027 -0.133871
648.269 74.367 -0.447523
287.25 2.26127 -0.479874
370.402 31.2945 -0.470961
26.2651 40.7495 0.326817
628.719 43.8133 -0.146971
546.589 32.042 -0.499124
442.135 0.742209 0.528459
121.869 4.73127 -0.346195
412.982 49.1435 0.14605
11.3691 0.901519 0.362657
667.203 9.02643 -0.103969
361.01 42.2681 0.360187
[...]
POINT_DATA 13483
TENSORS Strain_matrix float
-0.0232338 -0.0334668 -0.163553 
0.14498 0.0320414 -0.161359 
0.00132854 0.0258577 0.0413289 

0.0140298 0.0468802 0.423843 
-0.0466288 -0.0105898 -0.790169 
-0.00487433 -0.0264779 -0.472039 

-0.0131877 -0.00524247 -0.0197435 
0.00464404 0.00898458 0.0931502 
0.000151473 -0.00149413 0.0160683 

0.0113895 -0.0469239 0.107426 
-0.00670501 0.0149224 0.0902229 
-0.00431673 -0.00688818 -0.0486791 

-0.0540955 -0.0872855 0.111215 
0.0376917 -0.00985359 -0.0254284 
-0.0166283 0.0132665 0.0544379 

-0.0260732 0.0357877 0.526093 
-0.00656801 0.0260668 -0.0262607 
0.000339654 0.00106907 0.0320801 

-0.0112838 0.00861095 0.0559524 
-0.00107555 0.00250216 -0.0347059 
-0.000933442 0.000262441 0.031346 

-0.048697 -0.0415278 -0.220837 
-0.0739787 0.000701494 0.0169502 
-0.00597288 -0.00972455 0.0833767 

-0.188842 -0.593605 0.694848 
-0.0663368 0.182187 -0.0415228 
0.00278055 -0.0148483 0.197866 

0.00126243 -0.00782151 -0.240603 
0.0302065 0.0259238 -0.144159 
-0.00302524 0.002278 0.0882949 

-0.0296429 -0.0235775 -0.0215183 
0.0193527 0.0129555 0.00741381 
-0.00169949 -0.0823064 0.176137 

-0.0285128 0.0848483 -0.0009126 
-0.00480708 0.0601926 0.151291 
-0.00503373 0.0102412 0.169592 

0.0531881 0.0389728 0.0738654 
0.0248445 -0.0555396 -0.256338 
0.00524694 -0.00402246 -0.0411678 

0.0279581 0.0760679 -0.062319 
-0.0274071 -0.0401656 -0.053835 
0.0160698 0.0202181 0.0889543 

-0.0114356 0.0168717 -0.0781122 
-0.00570505 0.00142427 -0.157026 
-0.00125435 0.000149675 -0.0653652 

-0.063141 0.158993 1.0088 
0.00699228 0.0257614 -1.81868 
-0.0154658 -0.0208554 0.618154 

-0.0156431 0.000665638 -0.00728627 
0.00185883 0.0069567 0.0143968 
0.000603399 -0.000626585 0.0124198 

-0.0269519 -0.0018285 0.0134346 
0.004554 0.00889601 -0.0342353 
0.00146817 -5.68535e-05 0.0212987 

-0.0964001 0.157407 -0.868172 
0.103648 0.121216 -0.179195 
-0.000526871 0.0094773 -0.0670129 

-0.00490694 -0.000571051 -0.123451 
0.0283303 -0.00183793 -0.0742356 
0.000476861 0.00320198 0.054734 

0.040838 0.262505 -1.2211 
0.229271 -0.0723517 -0.312405 
-0.00921332 -0.000165467 -0.10297 

0.00177747 -0.016983 -0.0106222 
0.141282 -0.0329259 -0.0286658 
0.00277722 -0.013996 0.023925 

0.0334384 0.0183301 -0.265878 
-0.0595539 -0.0204015 -0.535249 
-0.008896 -0.000308576 -0.0542486 

-0.0515264 0.0132017 -1.59687 
-0.0458014 -0.00621573 -1.44565 
-0.00371476 0.0248097 -0.0372951 

-0.168666 -0.182085 0.90985 
-0.221954 0.0240481 0.222312 
-0.00136426 0.00889476 -0.0562452 

-0.0228779 -0.0656526 0.0027109 
0.0655356 0.0240747 0.0531345 
-0.0002216 -0.00190428 0.0142295 

-0.456033 -0.388968 -1.44276 
-0.399447 0.239184 3.10672 
0.00056806 0.00762405 0.0880951 

-0.15084 -0.0578715 -0.39574 
-0.0623851 0.089408 -0.164082 
0.0011568 0.000315213 0.0839243 

-0.000709002 0.0520584 -1.02245 
-0.0177034 -0.0200106 -0.582512 
-0.00222295 -0.00058762 0.105607 

-0.075047 0.0556406 0.196051 
-0.176747 0.158315 -0.158914 
-0.000692254 -0.00130625 0.0106129 

-0.105015 0.0272729 -0.087296 
-0.00457238 -0.124143 0.123909 
-0.00313577 -0.0192557 0.160643 

-0.0381056 0.164971 -0.628047 
-0.170113 0.0397354 0.178982 
-0.0503227 -0.0553219 0.202208 

-0.0248104 0.0728683 -0.578391 
0.00330994 0.0214845 0.17124 
-0.00162801 0.00139206 0.0282524 

-0.0396153 -0.0145543 0.637361 
-0.0141675 0.00847794 -0.601279 
-0.00258711 0.0104506 -0.177698 

-0.0392549 -0.0315704 0.056604 
0.0417773 0.0606602 -0.154562 
-0.00127297 0.00230725 0.0185208 

-0.0284509 -0.17043 -0.00191747 
0.0834353 0.0107662 -0.0665475 
0.00156059 -0.00553458 0.00372445 

-0.232632 -0.264218 -1.12571 
-0.0595146 0.248704 0.308614 
0.00700589 0.00430954 0.0254523 

-0.0203296 0.133172 0.0810417 
-0.0303687 -0.0125162 0.31976 
0.00184339 -0.00109442 0.0461228 

-0.00704683 -0.101067 0.469242 
0.0723967 0.026012 -0.569685 
-0.00122132 0.00168261 -0.0203295 

-0.291693 0.14698 2.6564 
0.299916 0.137176 -3.16226 
0.0135885 0.00781559 0.10764 

-0.00505782 -0.0174966 0.0166629 
0.0199357 0.00775046 -0.0207506 
-0.000688102 -0.000715159 0.00328408 

-0.216359 -0.0551059 -0.5459 
-0.327751 0.18373 1.17177 
-0.0329848 -0.0148169 0.0582192 

0.0189428 0.203499 0.0299727 
0.0623818 0.0445655 -0.298135 
0.0219484 -0.0761326 0.0570786 

-0.0168538 0.00450308 -0.0176682 
-0.00441046 0.0101889 0.0190036 
-0.00010255 -0.000484586 0.00731898 

-0.0614253 0.0670393 0.0299639 
-0.132376 0.0441249 -0.0849546 
-0.0113851 0.0188623 0.139229 

-0.0289547 -0.116662 0.0422884 
-0.0090006 -0.0103381 0.0553902 
0.0221149 -0.0132801 0.0580195 

-0.217201 0.250453 0.529967 
-0.381618 0.149957 -0.192793 
0.0333971 0.00796968 0.12185 

-0.00116855 0.0155252 -0.0484555 
0.0603904 -0.000905008 -0.0225775 
-0.00161746 0.00365846 0.00248863 

0.00193573 -0.0530254 0.365334 
0.0933572 -0.00369519 -0.248665 
-0.00132699 0.000871522 0.0105161 

-0.0538701 0.0388253 0.258003 
-0.100215 0.0433117 0.507797 
0.0077804 -0.0162656 0.0815865 

0.0557269 0.0508445 -0.404061 
-0.0104719 -0.0625705 0.375384 
-0.00102294 0.00151682 -0.00994685 

-0.228069 -0.123719 -0.133455 
0.144973 0.235831 -0.402477 
0.0261469 -0.0401918 -0.0204888 

0.0115562 -0.0202219 0.0233631 
0.0313363 -0.000785783 -0.014998 
-0.0096013 0.00680064 -0.0492526 

-0.276521 -0.556902 0.735356 
-0.0193284 0.0795246 0.539354 
-0.0392041 0.0478398 0.430459 

-0.0156077 0.00587825 -0.228021 
-0.00201214 0.00454783 -0.0872491 
-0.00203949 4.63139e-05 0.0223419 

-0.279564 -0.218579 2.99711 
0.134659 0.298513 2.13956 
-0.0553897 0.0236616 1.05075 

0.206038 -0.199216 0.262159 
-0.0602238 -0.0118034 0.347791 
-0.000143631 -0.0157126 0.0266521 

-0.0141224 0.00115757 -0.0916406 
-0.000855654 -0.0112062 0.103989 
0.0175082 0.0499055 0.615021 

0.00308614 0.0175065 -0.125786 
-0.0257332 -0.0209079 -0.336206 
0.00049776 0.000536682 0.0746161 

0.000226355 0.0185445 -0.0604606 
-0.00877949 -0.0104232 -0.0663018 
0.00091021 0.000149144 0.0370464 

0.0222185 0.149758 0.247034 
0.02623 0.125459 0.487187 
0.00323368 -0.0111657 0.20324 

-0.168061 0.315209 -0.468283 
0.025097 0.0643678 0.00936617 
-0.0186438 0.0206065 0.16272 

-0.0172448 -0.0841401 0.0567446 
-0.00832075 -0.00211672 -0.0256825 
-0.0151251 0.0195496 0.0023624 

-0.0211331 0.0591993 2.78787 
-0.0482581 0.0426217 0.579986 
0.000924069 0.0047365 0.475478 

-0.0432265 0.136585 -0.342554 
-0.160492 0.109593 -0.703866 
0.00131644 -0.00148722 0.0570163 

-0.025774 -0.0531606 0.108501 
0.0131964 -0.000687536 -0.130661 
0.00214433 0.000701891 -0.00890286 

-0.00993406 0.012213 -0.0108642 
-0.00146174 -0.0111847 0.0148129 
0.00779741 -0.000411125 0.0191513 

-0.0817889 0.557967 -5.41197 
0.0200146 -0.33962 6.33905 
0.00347287 -0.0273955 0.250585 

-0.0787553 -0.0180289 1.42252 
-0.00758249 0.0332298 -0.30321 
-0.0225065 0.0210714 -0.0169281 

-0.197175 0.117426 0.45235 
-0.32693 0.238441 0.683959 
0.0836628 0.0135502 0.341236 

-0.0858613 -0.0159309 -0.316194 
0.0925203 -0.0494727 0.0843959 
-0.00358337 -0.00327976 0.138036 

-0.0164619 0.00117559 -0.0144558 
0.00167561 0.00823079 0.00428881 
-0.000653686 -0.000264842 0.00293942 

-0.128666 -0.20157 -1.27449 
0.143323 0.0330846 1.19678 
-0.0011203 -0.00752148 -0.00557702 

-0.249552 -0.150232 0.372178 
-0.152075 0.119876 0.740161 
-0.0219686 0.0197862 0.147209 

-0.00576259 0.0254259 0.0121128 
-0.021044 0.00259809 0.0591602 
-0.000759703 0.000377109 0.012141 

-0.0197146 -0.00848264 -0.0423764 
0.0469611 0.0294986 0.00733252 
-0.000173771 -0.00314842 -0.0378407 

-0.055759 -0.00445463 0.11895 
-0.306439 0.0421279 0.186727 
-0.0254669 0.0276982 -0.0426854 

0.0208726 -0.0145937 0.0696604 
0.0166698 -0.0168009 -0.0878843 
0.00871965 0.0060487 0.00202238 

0.0102884 0.0635615 1.02718 
-0.205545 0.0337376 0.70246 
-0.00719774 -0.00976584 -0.0449598 

-0.135381 0.546257 0.448267 
-0.548496 0.509732 0.0939 
-0.0121336 0.0144925 0.0700257 

-0.0806192 -0.163208 0.152707 
0.145506 0.0459202 0.0779552 
0.0230608 -0.00183113 -0.00295172 

-0.5705 -0.692796 1.61282 
0.339593 0.530052 0.242128 
-0.0341597 0.000397594 0.152294 

-0.231456 -0.17346 0.169438 
0.217194 0.202259 0.411917 
0.0323162 -0.0303092 0.305522 

-0.361715 -0.106593 0.0867276 
-0.325551 0.29396 0.335512 
-0.000785161 -0.0504979 -0.125849 

-0.0910594 0.0651797 -0.330068 
0.115234 0.068593 0.246677 
-0.054895 0.0356003 0.0631647 

0.0129815 0.00416572 0.00750238 
-0.0161647 -0.00359523 -0.01364 
-0.000486871 -0.000117905 -0.00339124 

-0.0302934 -0.0576125 0.158829 
0.0122406 0.0478351 -0.250807 
0.00230813 -0.00230021 -0.0109326 

-0.00583376 0.00427769 -0.102261 
-0.00200623 0.00487473 0.0273462 
0.00105009 -0.000757589 0.0077314 

-0.921172 -1.7842 -0.765445 
0.609878 1.13406 0.255417 
0.00990076 0.0473397 0.332036 

-0.0661584 -0.0196075 11.6224 
-0.00333392 0.0415338 0.807198 
-0.00336115 0.0213715 1.93489 

0.00455103 -0.122791 -0.00683587 
0.142634 0.0182713 0.0274003 
0.0012816 -0.0012752 -0.00365759 

-0.279469 -0.462332 0.367345 
0.108948 0.253665 0.737752 
-0.0417511 -0.0593864 0.598585 

-0.148887 0.127293 1.04464 
-0.0846681 0.200677 -0.0560518 
-0.00519414 0.00662803 -0.00965531 

0.000669261 0.0122626 0.0347437 
0.0602627 0.0241081 0.225571 
-0.000994043 -0.000248016 0.00653641 

-0.0136288 -0.0539074 0.594319 
-0.00319944 0.0318601 0.207375 
-0.000611205 -0.000446788 0.00504826 

0.00983167 0.0128043 -0.0269562 
0.00594153 -0.0358614 0.0197399 
-0.00160652 0.0169699 0.014464 

-0.00966923 -0.017613 0.11843 
0.0176507 0.00159604 0.0269969 
0.000506134 0.000400045 0.00721867 

-0.201527 -0.265901 0.0463133 
0.0262053 0.14421 0.204658 
-0.0629012 0.125536 0.488808 

-0.0647558 0.434605 -0.678819 
0.0826027 0.129275 0.106757 
-0.00204524 -0.00724103 -0.0397262 

-0.0834564 -0.0513686 0.370499 
0.085288 0.112544 0.695633 
-0.0215144 -0.0138637 -0.0641068 

-0.0714993 -0.0840186 -0.49253 
0.0437916 0.0748567 -0.385449 
0.0107144 0.00712664 -0.00604385 

-0.0605221 -0.27109 -0.57816 
-0.119401 0.0178551 4.78167 
0.000669461 -0.0240295 0.186969 

-0.0671044 -0.0115647 0.379222 
-0.049708 0.113601 -0.635713 
-0.00340183 -0.00276887 0.181169 

-0.189617 -0.0235657 -1.34893 
-0.0113438 0.199015 -0.181464 
0.0114534 -0.00897783 -0.008731 

-0.156139 -0.184629 0.0286368 
-0.0323631 0.0559658 -0.71183 
-0.00492598 0.0152979 0.478595 

0.0169988 0.00357056 -0.0442254 
0.0179051 -0.0158401 -0.0214205 
0.0812078 0.0163056 0.288102 

0.0497451 -0.015939 0.0069166 
-0.0125566 0.00355822 -0.0120793 
-0.00115296 -0.0020061 -0.0298688 

0.0130941 -0.121192 0.637981 
0.111379 0.0234085 -0.290246 
0.0181203 0.0607219 -0.650859 

-0.0201104 -0.0051458 0.000403932 
0.0192344 -0.00440831 -0.00124036 
-0.000900203 0.00139729 0.0398545 

-0.313173 0.158609 -1.36659 
-0.405795 0.19785 -1.87089 
-0.0213374 0.0189714 0.18597 

-0.0904215 0.0310055 -0.224803 
-0.0237333 0.0732029 9.40845 
0.00391871 0.00216271 0.22692 

0.0120692 0.0258317 -1.08783 
-0.0465494 -0.0248372 0.672791 
-0.00473768 -0.0040064 0.0116863 

-0.0237122 0.0477473 0.029887 
-0.073809 -0.0123868 0.0903473 
0.000609869 0.00252581 0.043808 

-0.0774266 -0.0641926 1.06122 
-0.109474 -0.0640752 -0.178664 
0.0077455 0.00566501 -0.0249804 

-0.0171786 -0.263194 -0.073178 
0.270231 0.0182423 -0.397596 
-0.0208087 -0.00601212 0.103951 

-0.0553133 -0.0751062 0.46081 
-0.0976219 0.0442502 -2.00639 
-0.00601981 0.00564844 0.0847244 

0.032748 -0.0551974 -0.118523 
-0.0622626 -0.1011 0.251614 
0.000805683 -0.00154345 -0.00990217 

-0.0184714 0.0554782 0.0124321 
0.0288973 0.0110144 0.134006 
0.00129191 0.00108998 0.00335219 

-0.439301 -0.0791545 0.579086 
0.66903 0.30024 0.583632 
-0.0331292 -0.00485899 0.178555 

-0.10744 0.0754905 0.428276 
0.132271 -0.0325962 -0.821465 
-0.000454059 -0.0112337 0.22386 

-0.000584151 -0.00226823 -0.00334976 
-0.00504066 5.30315e-05 -0.00330941 
0.00101977 0.00190702 0.000467379 

0.00200845 0.000451458 -0.00180098 
0.00346905 -0.00140754 -0.00129033 
0.000214059 -0.000583452 -0.0011046 

-0.0510058 -0.0155116 -0.392897 
-0.0302076 -0.0137455 -0.0382036 
5.15771e-05 0.000198246 0.0169876 

-0.0450561 -0.0369656 -0.672227 
0.0191222 -0.00033189 -0.227702 
-0.0506582 0.0135536 0.0570069 

-0.0277066 -0.00994225 -0.3014 
0.013309 0.0160478 0.458868 
-0.000987617 0.00493758 0.821238 

-0.0188293 -0.00739825 0.0392617 
-0.00421002 0.00466348 -0.0539363 
-4.05687e-05 -0.000652906 0.011485 

-0.0347727 0.0243892 -0.0920213 
-0.0506318 0.0635764 -0.0982694 
0.0166977 0.0289137 -0.0829841 

0.0127617 -0.0508156 0.110818 
0.0450422 -0.0260013 -0.232705 
-0.000599749 -3.454e-05 0.00686343 

-0.00266826 -0.489914 0.216582 
0.318867 0.0747509 -0.092601 
-0.00276065 0.053745 0.407456 

-0.102029 -0.0786701 0.468805 
0.0999986 0.0972368 -0.269667 
-0.0127843 -0.0172105 0.124555 

-0.120389 0.0553573 0.378192 
-0.294409 0.0241535 0.446809 
0.0124123 -0.0141438 0.0846717 

0.269992 0.294164 -1.29594 
-0.535403 0.0586484 -0.531191 
-0.0187609 0.0435017 0.0731752 

-0.3613 -0.141761 0.611294 
-0.173039 0.35821 2.58227 
0.00542353 -0.0177718 0.00691898 

0.0113088 -0.0105562 0.00656135 
0.0293351 -0.0140977 0.0539504 
0.00665167 0.00119399 0.0256163 

-0.00634428 -0.0379847 -0.732488 
0.114473 0.0499901 -0.639808 
0.00036283 0.0119448 0.168654 

-0.000824528 0.0181233 -0.0543407 
-0.0192972 -0.0129042 -0.0117809 
-0.00198621 -0.00232588 0.00407097 

-0.156979 0.317143 -0.794729 
-0.0337921 0.10033 0.023676 
-0.10934 -0.0567832 0.82255 

-0.0180565 0.0027181 -0.657099 
-0.037571 0.00700344 -0.167791 
-0.00039435 1.1633e-05 -0.00912247 

-0.0146577 0.0204356 0.00126084 
0.0598142 -0.0107801 -0.0348855 
-0.00306004 -0.00347438 -0.0210721 

-0.0600705 0.144221 -0.0635889 
0.0160161 0.0217877 -0.235172 
0.0187965 0.00338607 -0.00343698 

-0.0544475 -0.0523629 -0.442158 
-0.0112861 -0.0693967 -0.673935 
0.00594814 0.00288094 0.104878 

0.028113 0.0745428 -0.0520073 
-0.0886886 -0.0599203 0.0576651 
0.002128 -0.00116131 0.0187167 

-0.0645939 -0.17688 -0.182211 
0.058409 0.144231 0.773709 
0.0105008 0.0244065 0.0710381 

0.00573177 0.014091 0.46868 
-0.016025 -0.00743029 0.204454 
0.000265852 0.00214861 0.0310841 

-0.0303097 0.0396017 -0.131604 
-0.0103192 0.06693 -0.161287 
0.0036762 0.0150528 0.0520038 

0.0259169 -0.00698842 -0.0387109 
-0.0643889 -0.0238355 0.0304839 
-0.00504414 -8.4927e-05 0.052426 

0.0111067 0.0414818 0.0638771 
-0.0553399 0.00661106 -0.0069849 
0.0277023 -0.0467411 -0.00884729 

-0.0423215 0.000424875 0.643011 
-0.00907287 0.0029057 0.156486 
-0.0284415 0.00748999 -0.465875 

0.0225848 0.0527003 0.197738 
-0.126857 0.0196239 -1.59433 
-0.0012898 -0.000150102 0.0819421 

-0.00648225 0.0312176 -0.0572147 
0.0100042 0.000643339 -0.0112342 
-0.00219961 -0.000757147 0.0493385 

-0.059524 0.0801897 1.23133 
0.0735765 0.0552243 0.699715 
-0.00044563 0.000775809 0.119399 

0.0205262 0.228511 -0.231736 
-0.171123 0.0357259 0.153686 
-4.994e-05 -0.00341502 -0.011009 

-0.00974137 0.0367114 0.228827 
0.00687606 0.0186505 1.28156 
0.00437615 -0.00114004 0.138452 

-0.00922484 -0.0347976 0.632276 
-0.0392644 0.0587235 -0.768147 
0.00172591 0.0039137 0.21926 

-0.0181944 0.0131259 -0.0836991 
-0.000874244 0.00119127 -0.0448302 
-0.00175715 -0.000746557 0.0115168 

0.0294895 -0.0968749 -0.0786268 
0.11705 0.000226144 0.0190949 
-0.000440337 -0.000804484 -0.0444377 

-0.215212 0.00724637 -0.557092 
-0.312198 0.154955 -0.593978 
0.0206159 -0.012483 -0.0685045 

-0.0115937 0.098993 -1.51504 
-0.0600729 0.0411463 -0.187872 
-0.00126276 0.000269825 0.064565 

-0.00362921 -0.0618091 -0.114062 
0.0540812 0.00137362 -0.290759 
0.0314036 0.0104693 0.562863 

0.00767834 -0.0564524 0.411277 
0.155842 0.14753 0.843819 
0.00106377 0.0155828 -0.103655 

-0.120483 0.180098 -6.65412 
0.0231297 0.046775 14.704 
0.0143031 -0.0156241 -0.280459 

0.00190695 -0.00659143 0.00496212 
0.0025245 -0.00167588 -0.027333 
-0.00220559 -0.00177717 0.0100757 

-0.140215 -0.681592 -2.45682 
0.0991729 0.223938 -2.52711 
0.00399106 0.0163568 0.0584933 

-0.0717036 -0.0884664 -0.58256 
0.0211132 -0.00614092 -19.3626 
0.00122001 -0.00404629 -0.128767 

-0.208523 -0.779302 -2.04941 
0.232842 0.328784 1.04325 
0.0124749 -0.0233673 0.00538276 

-0.00947287 -0.0384409 -0.0341925 
0.0318234 0.021539 0.0464944 
-0.00241877 0.00565948 0.00346746 

-0.0233366 -0.0038733 -0.0217328 
-0.0440741 0.0154235 0.0258447 
-0.00124575 0.000768352 0.0346058 

0.251714 -0.0774866 0.38735 
0.318388 -0.212681 0.172115 
0.000549003 -0.000179755 -0.0393763 

0.00285917 -0.0125267 -0.0165788 
0.000377509 -0.00384749 -0.0402245 
-0.0115405 0.0111407 0.219002 

-0.00849539 -0.0106437 -0.0445344 
0.0168061 -0.0110691 0.09026 
1.14167e-05 0.000611125 0.0297647 

-0.112143 -0.0275691 0.105194 
0.00758317 0.0951251 -0.570039 
-0.0213021 -0.0727303 0.335654 

0.0138145 -0.0467144 -0.260086 
-0.0203859 0.0170957 0.210804 
0.000684457 -0.000247517 -0.0158024 

-0.14229 -0.0020264 0.0243291 
-0.0435542 0.164295 -1.36784 
-0.021157 -0.00259371 0.0306596 

-0.0603196 -0.325747 -9.23207 
-0.0921743 0.122288 1.97976 
0.00770753 0.000440395 0.228953 

0.000938305 -0.0596982 0.0313166 
0.0944204 -0.00523619 -0.0437079 
-0.00167706 -0.00173906 -0.00459735 

-0.0754246 0.10557 -0.577299 
-0.0686527 0.0504332 -0.16446 
-0.0295275 0.00893626 -0.141067 

-0.0551821 0.0942407 -0.133224 
-0.12376 0.101271 -0.450214 
0.0288609 0.0211218 0.0610872 

0.000206588 -0.0255808 0.0261126 
0.0174444 -0.00881091 -0.00180103 
5.91972e-05 -0.000973704 0.0141539 

0.0691027 0.185929 1.1433 
-0.187764 -0.0911291 -0.0675694 
0.00498551 -0.0119883 -0.205974 

-0.202194 -0.318422 1.15426 
0.370839 0.282704 0.932884 
0.110327 -0.0376364 0.581843 

-0.132964 -0.0218051 0.556084 
0.14975 0.0158081 -0.997745 
0.00438354 0.00853306 0.0162838 

-0.0236529 -0.0754344 2.71166 
-0.0155506 -0.0459584 0.690982 
-0.0170809 -0.0683953 1.31434 

-0.292296 0.0258224 -0.77954 
-0.245401 0.157691 -0.897051 
0.00590565 -0.000725845 0.101309 

-0.0177159 -0.00383743 0.177353 
0.00425746 0.0131107 0.153778 
-0.000644417 0.0132266 0.11613 

-0.0866955 -0.0807946 -0.0285221 
0.127847 0.137204 0.380734 
0.0172715 -0.0303862 0.094934 

-0.0321153 -0.00244281 -0.0267241 
-0.00155456 -0.00214488 0.0209873 
3.78372e-05 -0.000229746 0.0448436 

-0.0266883 0.148748 -0.177967 
-0.165499 0.0695366 -0.0699997 
0.000716937 -3.63122e-05 0.0353104 

-0.06726 -0.0308632 0.43415 
-0.0671691 0.079421 -0.227216 
-0.0143956 -0.00226266 0.0872142 

-0.00466717 0.0224912 0.237011 
0.0404234 0.0140166 0.779296 
-0.000658288 3.05132e-05 0.00816498 

-0.0567046 -0.0356164 -0.0737485 
0.0426213 0.0487592 -0.0773079 
0.0143779 -0.000873378 0.0620911 

-0.168534 -0.167104 0.365859 
0.055034 0.167091 -0.246425 
0.00910178 -0.0362873 -0.0839792 

-0.0632662 0.0373168 0.586444 
0.19868 0.0814346 0.151523 
0.0434992 -0.0130389 0.416332 

0.00404428 -0.00534652 0.0162313 
-0.000753164 -0.00151359 -0.0404284 
0.0016723 -0.00345212 0.0117145 

-0.109412 0.10623 -1.05031 
0.0265728 0.0819159 -0.143405 
0.0168663 -0.00698254 0.0968984 

-0.0170916 0.0126065 -0.0641607 
-0.0183075 0.0203274 0.0214635 
-0.0063891 0.00051532 0.00318166 

-0.101108 0.358059 0.698702 
-0.428193 0.293513 -0.557755 
0.0847721 0.104148 0.477264 

-0.0279618 -0.00409307 -0.299527 
0.0388788 -0.0211289 -0.0853458 
0.00367929 0.00272924 0.00015086 

-0.0067013 -0.0545508 -0.0120521 
0.0471565 0.00500497 0.0188725 
0.000504139 -0.000115059 0.00968147 

-0.2111 0.204721 0.470896 
-0.301899 0.137654 0.369413 
0.0685388 0.00390694 0.346608 

-0.0266417 0.367292 0.24833 
-0.00473271 0.0411916 0.905898 
0.0300111 0.0103694 0.0177592 

-0.104178 0.596764 -0.623395 
-0.126064 0.300165 -0.10853 
0.00338289 -0.00287905 -0.0334704 

-0.0101815 0.00565824 0.0169663 
-0.0262486 0.00226742 0.0111217 
-0.000987683 0.00297102 0.00965788 

-0.0314722 -0.167146 -0.0161134 
0.165614 0.0167379 0.107173 
0.00467475 0.000808574 0.0744536 

0.000148257 -0.0611651 0.00433069 
0.0789741 -0.0537638 -0.0623944 
0.00390701 -0.00444751 0.060147 

0.0720446 -0.150754 0.164992 
0.0109308 -0.00164156 0.0574617 