# vtk DataFile Version 3.0
Output file generated by Yade's KinematicLocalisationAnalyser
ASCII
DATASET UNSTRUCTURED_GRID

POINTS 13483 float
687.146 26.8474 -0.42141
902.046 43.2079 -0.466304
134.981 6.01954 -0.443532
954.617 4.2339 0.281537
559.218 7.36478 -0.303747
351.906 33.8887 -0.464388
175.605 6.74663 0.398703
641.051 9.86176 0.135113
555.843 21.7345 0.140976
833.68 11.7616 -0.370593
235.902 8.61992 -0.100585
287.469 6.25683 -0.273319
743.568 27.2385 -0.148621
718.546 13.6762 0.0962955
154.031 16.5118 -0.42619
247.665 33.7177 -0.392496
243.77 12.7344 0.243496
322.609 9.30303 0.39311
380.369 31.4063 0.422252
588.405 8.51543 0.339836
459.9 35.2774 -0.0950885
667.636 41.8061 -0.236489
950.941 29.0606 -0.449502
803.069 40.0659 0.439507
513.714 15.6988 0.296196
268.973 42.5083 0.123984
550.663 26.298 -0.484991
661.318 18.3196 0.244206
50.4337 15.0784 -0.455906
828.979 29.5098 -0.322672
539.948 4.80219 0.317687
18.6834 21.9971 -0.296814
918.211 40.7826 0.240526
554.558 2.50579 0.453361
87.6613 42.1658 0.100549
585.257 29.1974 0.322782
595.526 16.2876 -0.416066
383.984 21.5033 -0.177011
598.824 24.7252 -0.323878
391.977 31.8483 -0.38223
270.125 14.3051 0.328297
486.102 34.3479 0.0612701
775.629 6.68058 -0.118303
216.507 6.06773 -0.382384
61.9306 6.65936 -0.120044
76.445 8.75801 -0.267721
795.356 8.27966 0.472697
26.3158 11.4546 -0.322022
691.562 42.5496 0.354351
777.451 21.8632 0.344591
193.827 31.1819 -0.2858
896.003 32.3368 -0.119023
39.5792 26.9755 0.112684
599.752 2.92761 0.313875
159.76 7.2666 -0.443111
670.064 31.9684 0.370465
565.651 25.1152 -0.117183
196.056 0.914286 0.255325
36.5814 2.41246 -0.286443
389.667 17.2281 0.260554
704.861 43.4535 0.13214
517.851 32.7351 -0.173423
446.649 1.03292 0.186246
808.449 7.43734 0.321266
29.4803 41.0395 -0.235798
287.231 29.4773 0.286056
833.872 7.26224 0.189286
768.182 42.193 -0.353178
467.364 8.42159 -0.455253
641.966 3.45246 -0.336306
870.021 27.9672 0.388423
147.184 7.43465 0.273109
559.059 24.3815 -0.129322
535.265 14.5527 -0.111016
329.582 16.2749 -0.358856
23.1282 13.2617 0.229656
925.009 30.5236 -0.304982
372.135 37.6657 -0.266701
774.627 19.0909 0.332205
794.972 12.0992 0.246435
936.307 10.6302 -0.189403
521.425 33.5282 0.165887
103.432 36.3189 -0.262283
788.356 32.2447 -0.208644
739.934 36.0434 0.101158
959.315 35.7716 -0.096992
928.001 0.83463 0.478664
326.238 28.1806 0.425038
706.303 6.22292 -0.0910636
27.3367 5.1573 0.412628
149.231 36.5062 -0.141704
576.367 13.8754 0.187965
914.798 22.6942 0.486849
219.826 27.6287 0.228443
49.9573 33.4255 0.263117
553.338 1.16625 0.0935982
264.892 8.63819 -0.339882
873.639 37.0388 -0.234047
900.44 24.3684 0.243075
404.983 19.8479 -0.258367
184.694 25.7009 0.44158
620.275 36.4996 -0.395806
426.443 14.6788 -0.514908
464.54 28.4338 -0.101068
424.512 4.4294 0.405919
617.788 10.6351 -0.0920531
959.999 11.1075 -0.140521
90.2006 37.3355 -0.381318
376.444 4.68489 -0.177975
633.881 9.21021 -0.310043
404.238 42.1963 0.4391
29.2529 23.3718 0.501783
34.2863 5.7041 0.31967
643.406 30.4278 0.398735
569.047 22.9345 0.143404
29.4774 35.2389 0.40981
105.03 29.1134 0.21581
365.004 15.2967 -0.303661
681.666 18.1781 -0.120836
535.115 36.6627 0.306942
854.81 7.64528 -0.366583
844.778 6.10223 0.160731
434.939 35.7772 -0.096106
725.919 24.04 -0.093941
268.552 16.2637 0.482681
371.116 3.58729 0.462927
116.311 29.7644 0.31936
130.997 23.0379 0.270641
614.933 37.077 0.0653027
344.32 18.4481 0.463195
822.627 32.7355 0.107763
773.144 41.3438 0.108362
541.919 19.8945 -0.378059
905.201 8.54814 0.283272
483.155 22.4004 0.219605
312.032 23.5549 -0.314232
775.882 29.3437 0.27907
313.862 27.7072 0.39086
654.159 11.2343 0.165233
373.732 34.524 0.187275
570.062 11.198 0.408928
413.173 29.8353 0.0845228
485.731 16.0668 -0.108253
358.618 40.4967 0.434905
215.613 28.5705 0.120352
907.594 41.4489 -0.167045
954.934 11.5999 -0.262798
6.74113 11.8109 -0.446654
490.055 21.7447 -0.397412
43.4595 21.4028 -0.0814079
423.783 30.3423 -0.465168
445.995 23.9401 -0.25638
84.3675 11.6084 -0.447019
58.3046 32.2284 -0.423656
255.559 12.9991 0.412761
706.082 37.2321 -0.239453
657.003 19.4048 -0.426013
84.8326 20.4129 0.458053
805.938 43.5217 -0.404989
889.535 2.39256 -0.422053
760.078 38.4022 -0.416964
803.1 2.34731 -0.361533
624.804 25.4452 -0.389304
669.249 42.3214 0.434141
580.839 17.649 -0.379757
951.4 2.97012 0.244036
252.728 24.0001 -0.112491
144.618 33.43 -0.194422
279.748 6.43379 -0.363019
107.098 3.87127 0.225153
72.4064 9.60043 0.210684
311.78 34.606 -0.296757
19.1302 23.7075 0.339669
631.318 18.634 0.380467
691.088 37.6836 0.218051
523.781 20.5487 -0.339617
939.548 35.5488 0.364718
459.913 8.30798 0.0920091
493.499 34.6228 0.361869
609.215 3.38184 -0.178688
25.9531 22.7387 -0.379251
657.226 4.19423 -0.386562
620.043 4.33246 -0.278871
233.899 11.0552 0.46427
480.996 15.7852 0.189156
352.092 6.21165 0.29572
438.834 18.4074 -0.333853
859.459 40.2012 -0.107555
218.265 24.5656 0.403384
918.925 6.74111 0.307809
858.525 36.5245 -0.311339
433.915 9.85961 -0.196999
830.48 2.38473 0.372958
691.517 24.2935 -0.381748
863.78 17.3215 -0.376638
488.031 41.1543 -0.266683
563.441 11.9849 0.33493
527.701 42.6435 0.206836
504.914 8.5791 0.143891
763.765 37.5389 -0.28324
760.656 32.8006 0.296931
217.654 37.5089 -0.334958
934.053 10.4331 -0.122689
671.714 42.801 0.241583
12.7007 16.4961 0.166789
461.71 24.5719 0.343726
212.954 22.0997 -0.414188
105.189 37.1673 -0.13473
912.367 20.2533 0.405355
756.307 41.9871 0.230073
361.256 24.5907 0.362266
605.601 9.93589 0.319724
93.2253 42.1558 0.161798
280.816 25.166 -0.46469
634.249 22.6644 0.370617
552.086 17.683 0.402731
297.902 0.888213 -0.341767
630.328 38.3025 -0.34896
607.825 39.4923 -0.434192
547.479 31.791 0.382507
566.795 0.755693 -0.466179
815.444 17.6765 0.363798
204.173 11.528 0.15503
568.866 33.8992 -0.412266
644.175 37.5928 0.114522
82.0726 0.960329 0.269373
285.53 4.5818 0.158789
954.14 13.4808 0.168969
936.542 12.5979 -0.380375
962.355 15.5515 -0.45458
343.881 8.36033 -0.224811
871.195 21.4444 -0.37478
461.992 39.9466 -0.10802
509.313 0.813699 -0.399771
747.913 33.1783 -0.41414
30.9625 28.866 -0.297957
374.296 39.4345 -0.397478
286.489 2.76371 0.295421
921.002 37.385 0.184792
827.143 44.7859 -0.22162
325.777 10.5573 0.155023
768.758 27.473 -0.0895574
635.555 2.64334 0.225297
617.686 6.33572 0.413958
110.205 16.9052 -0.465779
343.643 1.03147 -0.216028
389.538 2.26064 -0.362095
15.837 7.46759 0.365077
4.74375 29.6469 -0.241794
184.581 18.171 0.375359
77.6269 40.0576 0.210936
75.6708 27.2684 0.311425
480.997 14.0511 -0.424808
416.713 33.3297 -0.467252
894.003 33.462 -0.111531
22.2684 3.85408 -0.291863
79.7536 6.8034 0.132003
717.977 36.4079 -0.146797
334.508 0.926771 0.319213
414.014 15.7389 -0.0986898
267.982 4.51703 -0.38393
752.008 20.2443 -0.191998
512.779 8.23257 0.385919
874.504 19.2902 0.369133
725.184 27.4969 -0.291977
773.542 16.7694 -0.0905042
477.072 25.5079 0.465909
115.657 42.3384 -0.302121
619.026 40.3841 -0.0700166
860.664 13.0297 -0.166531
270.126 28.7473 -0.228838
35.8439 16.1971 -0.172294
381.571 13.4332 0.476511
122.625 38.5412 -0.449002
303.852 40.7967 -0.187417
483.157 1.05078 0.18623
921.947 26.8435 -0.381807
795.055 0.809712 -0.450372
377.08 2.96521 0.432277
340.824 25.5698 0.153772
526.48 39.543 0.19228
92.3278 7.55186 -0.453316
225.247 43.2094 -0.377858
903.442 26.7692 -0.362684
563.555 37.1149 -0.0630438
227.436 39.9744 0.245626
183.087 40.6653 -0.380392
963.328 31.4805 -0.39196
958.117 11.0942 -0.436089
694.865 3.58065 -0.477335
216.755 23.5027 -0.0992251
626.905 26.6312 0.106507
628.989 26.2136 0.256419
464.842 5.46585 -0.141009
547.711 0.939775 -0.280026
891.608 36.0009 0.472236
97.4078 29.2102 0.216324
758.221 17.5136 0.419745
311.907 15.158 -0.32226
11.3798 2.28169 -0.32575
143.133 35.0857 -0.198323
75.9415 21.9901 -0.441827
814.782 34.7059 0.31206
927.86 41.6499 -0.163845
211.798 26.918 -0.170271
949.15 11.3448 -0.283011
50.9965 35.2277 -0.244083
103.882 27.4744 0.150447
729.425 12.586 0.350238
469.927 17.585 -0.482987
592.057 16.2187 0.108849
270.867 26.8607 -0.191375
714.18 4.48639 -0.403244
963.196 10.5534 0.332315
34.2559 30.0228 -0.265147
307.03 7.66067 0.186029
252.646 14.5905 0.243818
1.11468 34.3002 0.145714
256.553 14.0843 -0.344725
241.009 10.8083 -0.14871
244.01 25.5254 0.269468
151.699 27.0828 -0.115929
625.082 14.5618 -0.314726
190.732 13.6193 0.360839
915.249 39.2581 0.229787
198.499 3.72857 -0.437588
53.8069 36.6331 -0.235797
866.93 46.0015 -0.426476
319.29 30.4191 0.388111
784.134 22.1098 -0.405988
933.223 26.7678 0.482649
341.852 8.9798 -0.114748
856.392 28.2083 0.345454
373.643 2.67559 -0.33262
473.051 22.9542 0.362554
780.612 15.3876 -0.408569
120.85 11.3347 0.406949
549.485 3.98805 -0.447054
878.628 17.0492 -0.196853
100.621 7.39763 0.19773
320.023 14.3802 0.197797
481.676 11.3172 -0.21881
949.612 2.5484 0.353921
452.213 1.77207 -0.412949
201.763 37.2184 0.262896
863.474 10.4557 -0.256095
146.518 34.5423 -0.17956
298.946 30.6816 -0.378882
455.418 21.025 0.209705
656.956 12.9676 -0.319952
440.525 9.91503 -0.383284
519.58 26.6964 -0.420898
903.3 43.4816 0.366609
54.0286 10.5327 -0.0936696
340.216 36.7913 -0.254195
431.922 25.6108 -0.362752
465.75 20.4068 0.257001
595.292 43.0361 0.356794
883.701 34.0916 -0.196014
767.641 33.0657 -0.356344
256.349 32.8744 0.385565
16.1409 29.4353 -0.150533
759.894 34.6813 -0.127692
580.746 40.3184 -0.444239
261.121 37.3425 0.0917693
792.478 29.3979 0.104029
172.665 9.07318 0.178159
417.504 20.2831 0.259281
528.31 40.566 -0.0976235
471.157 18.8427 0.194582
898.795 45.5804 0.29095
484.604 3.31605 0.409175
56.9238 24.3332 -0.296666
535.841 30.3573 0.344246
494.842 39.7231 0.35602
918.019 32.9181 0.227837
853.345 27.2908 -0.231052
617.911 17.8056 -0.153546
908.677 34.6238 0.422656
333.532 2.01374 -0.451325
430.826 27.8165 -0.45484
32.9013 36.9797 0.139228
859.789 28.9247 0.1374
700.813 19.2061 -0.452699
527.316 0.799663 -0.455261
144.416 4.39068 0.291181
486.249 38.4139 -0.103726
14.0824 0.915423 0.310434
948.317 5.30933 0.120055
[...]
POINT_DATA 13483
TENSORS Strain_matrix float
-0.0243475 -0.0471632 0.263739 
0.00769996 -0.041549 0.441066 
-3.15208e-19 9.00595e-18 1 

-0.0888726 -0.0638433 3.96159 
0.0503597 -0.0108737 2.37384 
-1.20035e-18 -6.82306e-19 1 

0.000168243 -0.0181715 0.0157487 
0.00368681 -0.115265 0.958649 
-1.19182e-17 1.32965e-17 1 

-0.163855 0.00656622 -0.115245 
-0.0312867 0.0120363 0.0713964 
-2.93805e-18 3.09773e-18 1 

-0.0187242 0.00784127 -0.0338689 
0.047716 -0.0976887 -0.00492032 
-1.77324e-18 3.94053e-18 1 

-0.0221167 -0.00641344 -1.06244 
0.0116154 -0.0648718 0.941252 
-4.15015e-19 2.37103e-18 1 

0.0124028 -0.025802 0.104178 
0.0219624 -0.0884789 0.0480413 
-3.94687e-18 9.4725e-18 1 

-0.0370442 0.0239434 -0.0809208 
-0.011488 -0.0743054 -0.0751212 
1.29361e-17 2.56391e-18 1 

-0.00410601 0.0747462 -0.113851 
0.0770139 -0.0501163 -0.225649 
4.89573e-18 -1.00363e-17 1 

-0.102249 0.0117225 0.0801594 
0.0183906 -0.0543804 -0.0977398 
-3.03622e-18 -4.41311e-20 1 

2.45973e-05 0.0130632 0.0326486 
-0.0276516 -0.0794779 -0.30513 
-4.05352e-19 -2.71217e-18 1 

-0.0177635 -0.0238231 0.189427 
-0.0272028 -0.0921754 0.437745 
1.03447e-17 1.12365e-17 1 

-0.0896444 0.0984529 0.494382 
-0.0104079 0.0460896 -0.010037 
3.10886e-19 1.24355e-18 1 

-0.0659271 0.000806649 -0.248043 
-0.0140936 -0.0376351 0.262621 
-8.93121e-18 1.21577e-17 1 

-0.0482354 -0.0129275 0.504133 
0.00751746 -0.0647183 -0.345959 
7.66905e-18 3.1839e-19 1 

-0.0410728 -0.054598 -0.115716 
-0.0229714 -0.0392836 0.508407 
-1.03298e-18 -1.74101e-17 1 

0.00127011 0.0039478 -0.029385 
0.0289452 -0.135836 -0.113848 
-3.67229e-18 2.19384e-18 1 

-0.0305702 0.00200098 -1.03506 
0.00978871 -0.111615 0.0637013 
2.18291e-18 3.45807e-19 1 

0.0191236 -0.0795004 1.05559 
-0.0551235 -0.0786831 -0.909284 
-6.50756e-18 -9.83701e-19 1 

-0.0288935 0.0278136 0.201221 
-0.0598563 -0.093089 -0.142769 
-1.74864e-18 2.9409e-18 1 

-0.0463947 -0.0402118 0.301183 
0.0658769 0.00327183 0.0710288 
-2.99196e-19 1.30558e-18 1 

-0.0468653 -0.00796699 0.216899 
-0.0334465 -0.00511269 -0.132773 
1.62535e-18 3.55681e-18 1 

-0.090869 0.00781735 -0.508065 
0.0341148 0.0370053 1.44956 
-1.62993e-18 3.03505e-18 1 

-0.0736131 -0.00378991 0.125399 
-0.000716164 -0.0327204 0.0953559 
-1.67053e-18 -2.43382e-18 1 

-0.0343926 -0.000844747 -0.0937648 
0.087931 -0.0641295 0.144792 
-5.54717e-18 7.46123e-19 1 

0.0117102 -0.00679939 -0.0320438 
-0.0531484 -0.0147746 0.0407445 
6.06666e-18 -9.4527e-18 1 

-0.0267478 0.0136639 -0.2145 
-0.0121582 -0.0593225 -2.59969 
1.6731e-18 -1.61999e-18 1 

-0.0328926 -0.0164411 0.0558626 
-0.00852561 -0.0572201 0.102365 
9.58444e-19 -3.80029e-18 1 

-0.0435397 0.06947 0.377297 
0.0274028 -0.0941131 -1.21514 
2.16032e-18 -2.50764e-18 1 

-0.131327 -0.0346767 0.117698 
-0.0231169 0.0399465 -0.0477785 
4.55201e-18 5.92744e-18 1 

-0.0361227 -0.0346463 -0.0497158 
0.00253654 -0.1613 0.401896 
-4.76346e-18 -6.41235e-18 1 

0.0202997 0.125056 0.781286 
0.0838071 -0.152282 0.0759705 
6.66468e-18 1.94228e-17 1 

-0.073556 -0.0372368 -0.63187 
0.0928762 0.00167393 -0.173163 
9.9515e-18 -3.35291e-18 1 

-0.00231642 -0.0129253 -0.568262 
-0.0172688 -0.0409531 0.712066 
3.03745e-18 2.01997e-17 1 

-0.0580006 0.026809 0.022262 
-0.0164315 -0.0617212 0.0647386 
-3.38109e-18 1.29206e-17 1 

-0.041143 0.0107883 -0.114311 
-0.0052926 -0.0489345 -0.276901 
-1.9446e-19 2.56687e-18 1 

-0.0309382 0.0095803 0.295043 
-0.0110831 -0.0741177 0.264104 
-3.69836e-18 4.06059e-18 1 

0.0519444 -0.0357817 -0.145273 
0.0179593 -0.214052 0.19126 
-2.31457e-18 -3.44746e-18 1 

-0.0203179 -0.041873 -0.0480892 
0.116663 -0.0815178 0.0952224 
-4.22215e-18 4.72479e-18 1 

0.0260375 -0.0137868 -0.142794 
0.0297585 -0.0972451 -0.0232604 
-1.17131e-17 1.09577e-17 1 

-0.000121794 0.0392715 -0.0581302 
-0.0119561 -0.147405 -0.340897 
1.74693e-18 -3.49386e-18 1 

0.00152157 -0.0216262 -0.147599 
-0.0246719 -0.018425 0.124986 
9.35534e-18 -9.12716e-18 1 

-0.0781535 -0.00873768 -0.0275071 
-0.0205867 -0.0762075 0.00316277 
6.91891e-19 7.41312e-19 1 

-0.00879576 -0.0236664 -0.196176 
0.0102809 -0.106651 0.256849 
-9.28605e-18 -7.3064e-18 1 

0.00532494 -0.00996084 0.00406101 
0.014628 -0.122875 0.133405 
5.01016e-19 -1.64918e-18 1 

-0.00778141 -0.0132482 -0.00440418 
0.0550654 -0.0868327 0.0711606 
-1.4277e-18 -5.88926e-18 1 

-0.0596874 -0.00566768 -0.700674 
0.00119906 -0.0758417 -0.984996 
-1.93712e-18 5.90584e-21 1 

-0.01107 0.00112473 0.0101905 
-0.0111417 -0.138509 0.168324 
1.07412e-17 -1.58894e-18 1 

-0.0967576 0.0050478 -0.164721 
0.0167635 -0.000759121 -0.17862 
-1.03986e-17 1.34207e-17 1 

-0.0567529 0.0174679 0.128508 
0.0335602 -0.0129767 -0.198762 
-8.41646e-19 5.57591e-18 1 

0.0222626 0.0795552 -0.296939 
-0.105704 -0.0712251 0.0554865 
6.07174e-18 1.29877e-18 1 

-0.0726513 0.0154183 0.33573 
0.122353 -0.0225085 -0.119687 
-1.17153e-18 -1.08195e-17 1 

-0.0573728 -0.0469748 -0.179681 
0.00143445 -0.0183208 0.156243 
-5.73561e-18 2.24047e-18 1 

-0.0406694 0.0138181 0.0117301 
0.0116541 -0.069334 -0.171636 
1.51484e-17 -5.92765e-18 1 

-0.0187268 -0.0165159 0.353969 
0.00340226 -0.126523 -0.391545 
-2.97309e-18 -3.504e-18 1 

-0.0353807 -0.0351216 0.114604 
0.0263473 -0.0474642 -1.55899 
-8.26222e-19 3.23604e-18 1 

-0.0321765 -0.054515 0.144754 
0.100821 -0.054098 0.155819 
-4.37379e-18 -1.95841e-18 1 

-0.00599472 -0.163578 0.379606 
-0.0148754 -0.195965 0.009064 
-1.68963e-18 2.04663e-17 1 

-0.00739105 0.0174043 0.0923362 
-0.0186965 -0.143936 -0.0949119 
4.37381e-18 -3.69041e-18 1 

-0.00787291 0.0523524 0.365796 
-0.0391572 -0.123382 -0.117846 
-9.40126e-18 1.22804e-18 1 

-0.0505506 -0.0293285 0.34988 
0.0320483 0.0227355 0.344293 
3.72977e-18 3.99237e-17 1 

-0.0584422 -0.0680658 0.283874 
-0.0391807 -0.0393894 0.362818 
1.3737e-17 5.20796e-18 1 

-0.0269883 0.00191888 -0.0695165 
0.000577306 0.0193085 0.0573607 
-1.63873e-17 -2.39274e-17 1 

-0.0647668 -0.0150647 -0.0163887 
0.0400533 -0.0524447 0.138014 
-3.91431e-18 1.08731e-19 1 

-0.0195877 0.0464145 0.00296893 
0.00941473 -0.0394368 -0.0673007 
4.00838e-18 3.25004e-18 1 

0.0210356 -0.0640622 0.039725 
0.0268059 -0.158233 0.234912 
3.04562e-18 4.86276e-19 1 

-0.0825519 0.0245608 -0.0683107 
0.0285087 -0.0864538 -0.0452667 
-3.98166e-18 1.52298e-17 1 

-0.0680683 -0.000346975 0.0853002 
-0.0309717 -0.00746361 0.335909 
1.25409e-18 -3.69594e-18 1 

-0.0306963 0.00990395 0.0529697 
-0.0412394 -0.107953 0.713678 
-2.68306e-18 -4.21647e-18 1 

-0.0652756 -0.0184805 0.0806719 
-0.00754796 -0.113429 0.0929021 
4.68973e-18 1.44488e-18 1 

-0.100403 0.103985 0.407874 
-0.11461 -0.0230986 -0.136492 
-2.28835e-18 1.96382e-18 1 

-0.000122718 0.0180693 -0.0444335 
-0.00733623 -0.0894917 0.057299 
-1.37267e-17 3.58207e-18 1 

-0.019316 0.000560279 0.0308256 
-0.0412613 -0.0800429 0.15121 
2.75455e-18 -1.18854e-17 1 

-0.019301 -0.00442496 0.0951767 
0.00879482 -0.0849533 -0.205381 
1.67501e-18 4.78573e-18 1 

-0.0221199 -0.0362355 -0.176874 
0.00924823 -0.0806554 -0.303332 
8.73062e-20 -7.10775e-18 1 

0.0383966 -0.0418455 -0.12787 
-0.0456307 -0.159246 0.0147328 
-6.30762e-18 -1.54262e-18 1 

-0.0888396 -0.0924678 0.0724906 
0.0691024 0.0317557 0.352139 
2.41668e-18 -1.8018e-18 1 

-0.0420904 -0.0189138 0.0699733 
-0.0121205 -0.0839626 0.708639 
1.4389e-18 -3.05766e-18 1 

-0.0793525 -0.0197285 0.150746 
0.0537941 -0.0768729 0.278803 
3.81345e-18 -5.89709e-18 1 

-0.0545719 0.0236754 -0.017543 
-0.0049871 -0.0489412 -0.0510776 
8.15261e-18 1.79552e-18 1 

-0.132904 -0.00502606 0.0735386 
-0.0215505 -0.0480766 0.120493 
9.29683e-18 -1.0007e-17 1 

0.0514139 0.0167402 0.122329 
0.0102814 -0.00858743 -0.00175996 
9.58752e-18 -6.68799e-18 1 

0.00779687 0.0420037 0.0156436 
-0.0404438 -0.0600523 -0.115862 
9.4825e-18 1.11822e-18 1 

-0.00941519 -0.0460177 -0.230648 
0.0431854 -0.0638368 -0.265094 
-1.97234e-18 7.10864e-18 1 

-0.0395932 -0.0161032 -0.1762 
0.0833675 -0.0359226 0.515312 
4.58657e-18 1.83463e-18 1 

-0.12141 -0.0986805 0.851228 
-0.0217472 0.0334861 -0.0940898 
2.67201e-18 -1.01791e-17 1 

-0.126257 0.639486 -0.155023 
0.0087524 0.0100324 -0.0390296 
3.36152e-18 -4.37618e-17 1 

0.00722936 0.0870483 0.386078 
0.0110113 -0.0989733 -0.85606 
-3.04331e-18 7.65175e-18 1 

-0.0495117 -0.0311292 0.030866 
0.0163609 -0.0758877 -0.0896368 
1.36077e-17 1.08276e-17 1 

-0.0273289 -0.0151148 0.149992 
0.0128258 -0.101423 0.31935 
-1.87238e-18 -7.15417e-18 1 

-0.0572774 -0.0317394 0.0272931 
0.0261545 -0.0533716 0.07364 
1.58063e-17 9.38429e-18 1 

-0.0180048 0.0150865 -0.0229572 
0.00125128 -0.0802635 0.135508 
9.25845e-18 1.20867e-18 1 

-0.117131 0.00299723 -1.11951 
-0.0322087 -0.00317553 0.0525849 
8.21018e-19 1.23301e-17 1 

-0.0711171 -0.054058 -0.0451166 
0.0151903 -0.044373 0.00925742 
-1.71569e-17 1.06491e-18 1 

-0.0167709 -0.0119243 -0.197655 
0.0850248 -0.000543453 -0.11852 
-6.18953e-18 1.73083e-17 1 

-0.0195405 -0.0463209 0.149719 
-0.018867 0.155022 -0.370146 
4.45549e-18 6.34263e-17 1 

-0.0329254 -0.00754842 0.0259344 
0.0262204 -0.0686381 0.112225 
1.55741e-18 2.02692e-18 1 

-0.00623066 0.0301737 -0.351548 
-0.0525793 -0.0481838 0.325065 
-1.79949e-18 1.21299e-17 1 

-0.0967063 0.021809 -0.0656376 
-0.0307491 -0.00731898 -0.0805031 
6.41292e-18 -5.23503e-19 1 

0.0774554 -0.0230116 0.169138 
-0.0198254 -0.134735 0.0686917 
-4.07469e-18 3.15589e-18 1 

-0.0252136 -0.0404756 -0.169364 
0.0240425 -0.0296284 -1.62028 
3.65341e-18 -4.668e-18 1 

-0.027606 0.00499485 0.272557 
-8.35889e-05 -0.0444088 -0.812959 
1.15823e-18 1.32369e-19 1 

-0.0118446 0.00477951 12.2348 
0.00887461 -0.0969706 2.48018 
-9.85278e-19 3.22405e-18 1 

-0.0302576 -0.0183775 -0.00204609 
-0.0493471 -0.050673 -0.0240489 
1.72472e-17 -1.96736e-19 1 

-0.0153405 -0.0118689 0.06006 
0.019148 -0.102448 -0.3228 
2.29125e-18 -3.33818e-18 1 

-0.0300769 0.00608655 0.223189 
0.0370649 -0.0854223 0.0431286 
-1.06385e-17 4.81984e-18 1 

-0.104604 0.0238928 0.0602905 
-0.0214863 -0.0383263 0.0662318 
2.80733e-18 -3.7431e-18 1 

0.00974757 0.00474709 0.827203 
-0.0161074 -0.0522241 -0.665649 
6.46684e-18 -3.61886e-18 1 

-0.0218016 -0.0254548 -0.0702774 
0.00221553 -0.0958203 0.0890329 
6.56273e-18 -1.1701e-17 1 

-0.0485461 0.028834 0.288654 
0.0148173 -0.0910096 -0.270194 
2.04831e-17 -1.53883e-17 1 

-0.0126683 -0.056915 -0.444566 
0.0203777 -0.090608 -0.0361819 
-3.11174e-18 -3.6232e-18 1 

0.0171583 0.0270779 -10.9985 
0.0202856 -0.0836877 11.5476 
-8.57241e-19 -3.92228e-18 1 

0.000494155 0.00962723 0.0715718 
-0.0220695 -0.112735 -0.0513947 
-6.46295e-18 1.77695e-18 1 

-0.047142 -0.0283504 -0.11013 
0.00885061 -0.0284144 -0.862078 
-4.0918e-18 1.86885e-18 1 

-0.0449415 0.0101485 -0.0952848 
0.0168386 -0.0153055 -0.276472 
4.65498e-18 1.91087e-18 1 

-0.0158471 -0.0449059 -0.0904394 
0.00638058 -0.0342933 0.10244 
4.33731e-19 -1.1277e-17 1 

-0.117415 -0.210034 0.197837 
-0.135107 -0.0139268 -0.107372 
1.00754e-18 8.56409e-18 1 

-0.0306433 -0.00575442 -0.00167446 
0.067379 -0.076034 0.00396985 
-6.55003e-18 3.35361e-18 1 

-0.0752308 0.0299148 0.0538921 
0.0151771 -0.0290795 0.133524 
2.75459e-19 -4.26237e-18 1 

-0.0326076 0.00199693 0.244945 
-0.021102 -0.0262085 -0.258343 
-5.23681e-18 1.44443e-18 1 

-0.0973373 0.0480079 -0.0855651 
-0.0710297 -0.101716 -0.189634 
1.20421e-17 -4.58384e-18 1 

-0.06574 0.0344842 0.175032 
-0.0178762 -0.0544773 -0.0492164 
1.1203e-17 -3.15085e-18 1 

-0.00781468 0.014423 -0.0807375 
-0.000506153 -0.048784 -0.0687975 
4.56363e-18 3.69352e-18 1 

-0.0470407 0.0400639 -0.0131051 
-0.0371587 -0.0412224 -0.039978 
-3.16999e-18 -4.17712e-18 1 

0.0108476 -0.0283304 -0.470089 
0.000161703 -0.101813 0.0978902 
-3.88385e-19 -7.16913e-18 1 

-0.0125228 -0.0122191 -0.398844 
-0.00486778 -0.131532 -0.764629 
1.1106e-18 4.28955e-18 1 

-0.0722357 -0.0556977 0.0913267 
0.025485 -0.003436 0.0555582 
1.4346e-18 2.34905e-18 1 

-0.00668769 0.117903 0.0767864 
-0.0478886 -0.123558 -0.201754 
1.73004e-18 2.22759e-18 1 

-0.0053456 0.014628 0.0662649 
-0.0500725 -0.0694494 -0.0919394 
2.43703e-18 8.42805e-18 1 

-0.00533464 0.0728079 0.132995 
-0.0305742 -0.0794251 -0.117434 
-6.3638e-19 1.69494e-17 1 

-0.0368428 -0.00879405 -0.194578 
0.0236428 -0.0201519 0.059335 
9.21066e-19 -1.42957e-18 1 

-0.096771 0.006589 0.0313363 
0.0316225 0.0201861 -0.00565143 
1.61791e-17 1e-17 1 

-0.00398389 0.0325525 0.00631011 
-0.0147674 -0.0473004 0.583857 
-3.86994e-18 -9.30927e-18 1 

-0.106133 0.0160951 0.0501504 
-0.00208353 -0.0618415 -0.018011 
-7.02216e-18 6.15746e-18 1 

-0.0169911 -0.0236687 0.218771 
-0.014283 -0.0471123 -0.077452 
1.5058e-17 -2.54793e-18 1 

0.0266008 -0.00751322 0.0629057 
-0.127756 -0.0906409 0.334066 
7.03828e-18 -9.39174e-18 1 

-0.0754554 0.0336629 0.00883135 
0.146718 0.0115129 -0.615455 
-1.23378e-17 -1.5987e-17 1 

-0.0223796 -0.0332987 -0.339562 
0.06324 -0.0425831 -0.298312 
5.13616e-18 7.20489e-18 1 

-0.0331815 -0.0193621 -0.0110131 
0.0342491 -0.0744338 0.0996986 
2.86991e-18 -2.31408e-18 1 

-0.0514373 -0.000784785 -0.182563 
-0.221896 0.0281555 -0.478066 
8.53236e-19 4.3735e-18 1 

-0.0301508 -0.0124432 -0.027704 
0.01038 -0.0635895 -0.134793 
5.01782e-18 5.09275e-19 1 

-0.00596981 -0.0161328 -0.0187883 
0.0389008 -0.0461769 0.129288 
-8.13658e-18 5.25901e-18 1 

-0.019649 -0.0257392 -0.264389 
0.0434742 -0.0617212 -0.0915816 
-2.13893e-18 2.953e-18 1 

-0.00553367 0.0243001 3.76293 
-0.0141128 -0.0890234 -6.13881 
3.06634e-18 -1.07472e-18 1 

0.00302554 -0.0157832 0.102616 
0.0306759 -0.0548627 -0.0245881 
1.30183e-17 1.26664e-17 1 

-0.0663093 -0.0511055 -0.00822271 
0.0341798 0.0339584 0.0796862 
4.00699e-18 2.32549e-18 1 

-0.0971913 0.0049989 0.109504 
0.00920505 -0.0586395 0.0600851 
-7.04273e-18 -7.90253e-18 1 

-0.0163205 -0.0320438 0.336874 
0.0336664 -0.115682 -0.44664 
2.31315e-18 -1.57838e-17 1 

-0.0273757 -0.0014803 -0.211519 
0.036917 -0.071526 -0.351438 
-4.14871e-18 -7.06163e-18 1 

0.0771477 0.0873944 -0.224168 
0.0416958 -0.169597 0.260859 
-5.41803e-18 6.70707e-18 1 

0.01871 -0.0182601 0.261492 
0.0991836 -0.0830753 1.28288 
4.90709e-18 -1.36308e-18 1 

-0.0776643 0.0929285 -0.110784 
0.0906422 -0.0789547 -0.0909396 
-3.99883e-18 -2.48782e-18 1 

-0.00439816 0.0323016 -0.615995 
-0.0782943 -0.111102 0.546096 
-7.76007e-18 -1.68256e-17 1 

-0.00562096 -0.00123155 -0.529099 
0.0156656 -0.0650574 0.359011 
-2.72295e-18 -1.24915e-18 1 

-0.00337432 -0.0412089 -0.167313 
-0.007502 -0.0864165 0.227867 
-8.03794e-18 1.47089e-17 1 

-0.0609516 -0.00382514 -0.14424 
-0.0317878 -0.0279325 -0.42485 
2.17283e-18 -5.14793e-18 1 

-0.0479144 0.00407595 0.114292 
0.021963 -0.0566752 0.117912 
9.21893e-18 3.73458e-18 1 

0.0319079 -0.0540683 0.116645 
-0.00998435 -0.0878096 0.707183 
-4.86771e-18 6.83496e-18 1 

-0.052719 -0.0113145 -0.346402 
0.040208 -0.0264763 -0.793529 
-2.77382e-18 4.31483e-18 1 

-0.12456 0.0420039 -0.120732 
0.0435616 -0.0956997 0.202675 
-5.55878e-18 5.89715e-18 1 

-0.0717301 -4.57615e-05 0.324666 
-0.0367366 -0.017394 0.137302 
-1.28684e-18 5.74339e-18 1 

-0.0447497 0.0112827 0.0675021 
-0.0345089 -0.0908872 -0.0218499 
-8.65045e-18 5.76697e-18 1 

-0.0378724 -0.00187967 -0.162842 
0.0404177 -0.0672414 0.387902 
2.44518e-18 3.82308e-19 1 

-0.0374349 -0.0142685 -0.307525 
0.00215818 0.00220287 2.86352 
2.40068e-18 -3.62866e-18 1 

-0.0301936 -0.010842 -0.0195534 
0.0760394 -0.0890854 -0.105361 
4.09487e-19 -8.82957e-19 1 

-0.162949 0.062857 -0.0446867 
0.0199502 -0.0884621 0.172392 
8.10349e-18 9.0815e-18 1 

-0.0103067 0.0413133 0.0318935 
-0.0264932 -0.0751608 0.0402525 
5.25785e-18 -2.11457e-18 1 

-0.0691242 -0.0292837 0.131621 
0.0193372 -0.0431474 0.128114 
2.95714e-18 6.33672e-19 1 

0.000986959 -0.0507009 0.0756691 
0.00263961 -0.124084 0.0817884 
3.01514e-18 3.83406e-18 1 

0.0130579 -0.0150317 0.302889 
-0.00261405 -0.1394 -0.582735 
1.22938e-18 4.07182e-18 1 

-0.00608492 -0.0345841 0.00689102 
0.0102863 -0.0935568 0.169152 
9.87251e-18 -7.24588e-19 1 

0.00627458 0.0547821 0.258465 
0.0135331 -0.0646797 -0.0212669 
2.59797e-20 -2.22953e-18 1 

0.0144416 0.109886 0.390379 
0.106188 -0.103488 0.315184 
1.44354e-17 1.40833e-19 1 

-0.0297467 -0.0176722 0.695484 
-0.0122241 -0.0534822 0.226515 
-1.37716e-18 3.24745e-18 1 

-0.0604733 0.0784296 -0.0161837 
-0.0677372 -0.0445101 -0.208193 
-4.14628e-18 1.95842e-18 1 

-0.0559723 0.0156896 0.0639282 
-0.0193164 -0.0746484 0.0440925 
-1.08049e-17 1.27116e-18 1 

-0.0709674 0.0306512 0.0343169 
-0.0330696 -0.0220093 0.0997962 
7.09599e-18 6.75425e-18 1 

-0.0269786 0.0205671 0.0159608 
-0.000929674 -0.072423 -0.135396 
-7.42193e-18 2.18769e-18 1 

-0.0134913 0.017052 -0.0440066 
0.0188092 -0.0807001 0.0654474 
8.48625e-19 7.54333e-19 1 

-0.0250097 0.0368419 0.0325386 
-0.0294615 -0.107347 -0.0275699 
-6.73926e-18 -7.6768e-18 1 

0.0039842 0.136857 0.448024 
-0.128347 -0.0575758 -0.419513 
7.10919e-19 4.41785e-18 1 

-0.0463353 -0.0436104 -0.0267661 
0.0482123 -0.144587 0.0157737 
6.45293e-19 5.13729e-19 1 

-0.0223978 0.000516319 -0.0787459 
-0.0355283 -0.0738539 0.0435274 
-1.78729e-17 7.76957e-19 1 

-0.0263528 0.00779332 -0.474307 
0.0243644 -0.0913261 0.267915 
2.92818e-18 -3.60518e-19 1 

-0.103013 -0.00101631 -0.199027 
0.0465691 0.0349345 -0.217603 
2.98678e-18 -7.00026e-18 1 

-0.0317528 0.0109375 -0.00322836 
-0.0758801 -0.0750401 0.134409 
5.20595e-18 -3.50836e-18 1 

-0.0505204 -0.00375775 0.344152 
-0.0376027 -0.0804323 0.165324 
1.69365e-20 -1.8355e-18 1 

-0.104232 -0.10137 0.275284 
0.114437 0.00258078 0.140885 
6.99041e-19 -1.24517e-17 1 

-0.0235548 -0.0347791 -0.143253 
-0.00403517 -0.0691028 0.467753 
-3.49758e-18 -7.66146e-18 1 

-0.0999377 0.0363436 0.0116617 
-0.0780175 -0.022086 0.0936333 
7.76332e-18 -1.45562e-18 1 

-0.0795452 -0.0612528 0.201801 
0.0710469 -0.00515212 -0.0490433 
9.04465e-18 8.53772e-19 1 

-0.0177131 -0.0342799 -0.142499 
-0.0248788 -0.0859209 -0.0525945 
5.71956e-18 -3.28034e-18 1 

-0.0855668 -0.00688379 -0.0630317 
-0.00259094 -0.0650432 -0.155102 
-4.57989e-18 3.69027e-18 1 

-0.0728015 -0.0126827 0.0319216 
-0.00605891 -0.0211301 0.37686 
4.09641e-18 1.06667e-17 1 

-0.1019 0.0806773 0.132185 
-0.0362693 -0.0465627 -0.134616 
-6.58917e-19 2.29999e-18 1 

-0.0402282 0.0376907 0.225875 
-0.0428216 -0.0452417 0.526086 
5.45543e-18 1.22852e-17 1 

-0.0201772 -0.0164454 -0.0767091 
0.0374338 -0.120596 -0.094133 
4.39377e-18 3.80002e-18 1 

-0.0116486 0.0548768 0.0447953 
-0.0744377 -0.0826407 0.132823 
-1.14545e-17 2.33664e-17 1 

-0.0198031 -0.0067662 0.0206709 
-0.0279351 -0.0917163 0.177235 
1.24371e-17 1.40545e-17 1 

-0.0826856 0.0182232 -0.14418 
0.0279016 -0.00384588 -0.181372 
-5.30249e-18 -1.84971e-18 1 

-0.0381098 0.0456492 0.127661 
0.0235601 -0.0249924 0.308469 
8.21177e-18 5.88247e-18 1 

-0.0111138 -0.0173153 -0.0560928 
-0.0147213 -0.0644692 0.0220747 
-1.2449e-18 1.08393e-17 1 

-0.146854 -0.0393553 0.0356291 
0.0204084 -0.0280606 0.163239 
-4.06384e-18 -3.69883e-18 1 

-0.0701815 -0.0603063 0.144208 
0.038014 0.0414086 0.0589777 
-6.34362e-19 -2.51932e-17 1 

-0.0617715 -0.0450774 -0.117489 
0.0172971 -0.0262647 -0.0115018 
7.66176e-18 -1.02157e-18 1 

0.00895252 0.0325604 -0.191172 
0.00195518 -0.0802719 -0.387323 
-2.61904e-18 -9.81784e-18 1 

-0.000884104 0.0153462 -0.34659 
0.0156146 -0.0710636 0.00686803 
-9.15807e-18 9.65272e-18 1 

-0.000949423 0.0291105 0.00605884 
-0.050449 -0.0582791 0.0837378 
5.49069e-18 1.19363e-18 1 

-0.101385 -0.00852578 0.0512695 
-0.0450264 -0.0556362 0.475091 
3.92079e-18 1.33307e-17 1 

-0.0507916 -0.0448032 0.0473348 
0.0253422 0.00869019 -0.0862556 
-2.75482e-18 -5.10449e-18 1 

-0.0233842 0.00104224 -0.0856359 
-0.036361 -0.0596937 0.0456696 
-1.86512e-19 -1.74078e-18 1 

-0.0641912 -0.00835717 -0.0999944 
0.00202082 -0.0698258 -0.401074 
-2.70495e-18 4.74244e-18 1 

-0.00360668 0.00518058 0.201427 
0.0463082 -0.0627528 -0.068256 
2.92373e-18 -1.19304e-17 1 

-0.00151435 -0.0152422 2.12222 
-0.0058547 -0.0686418 -2.82753 
-6.47417e-18 8.09305e-18 1 

-0.0608255 0.0479078 0.436348 