# vtk DataFile Version 3.0
Output file generated by Yade's KinematicLocalisationAnalyser
ASCII
DATASET UNSTRUCTURED_GRID

POINTS 13483 float
535.85 41.217 -0.43895
642.262 80.2583 -0.543893
117.597 5.9006 -0.484299
676.114 7.79994 0.447288
463.064 12.3593 0.55773
307.139 40.1285 0.504513
153.202 6.98001 0.47797
509.252 11.9073 -0.159515
460.128 35.6307 0.140358
619.436 18.2963 -0.418009
205.528 8.84028 -0.109952
251.09 6.21154 -0.255877
563.015 54.502 0.1366
552.25 32.5113 -0.0889646
133.919 18.9539 -0.456308
215.223 37.7832 0.423014
212.737 13.1378 -0.273205
281.591 10.5713 0.445955
334.032 34.3104 0.434371
478.008 10.7932 0.448217
398.471 46.1786 -0.0987582
521.771 50.0147 0.300373
668.376 61.1058 -0.487547
592.592 56.9469 0.459551
434.851 21.2568 0.319433
235.175 46.0489 -0.139912
457.422 45.7869 -0.486276
521.716 23.6986 -0.216516
44.1378 16.4409 0.540555
610.567 41.5405 -0.338873
451.758 4.53466 0.480931
14.9996 24.6202 0.327094
656.574 78.7143 0.248944
461.814 4.17079 0.566734
76.7217 46.2143 0.103617
477.637 42.4766 0.328441
483.24 25.7659 -0.436203
334.969 24.1695 0.206293
487.786 35.6347 -0.371355
343.602 38.8086 -0.406707
236.215 14.7537 -0.307116
410.921 51.732 0.0799857
581.623 5.49404 0.226118
188.23 6.32038 0.361101
54.2967 7.14994 -0.102961
67.4582 9.17081 0.279092
594.824 8.37922 -0.522855
22.5912 11.8812 0.264768
519.164 64.7916 0.377554
582.762 34.0223 -0.334235
167.568 33.6048 0.2941
636.826 68.3756 0.118872
34.241 28.3345 -0.114886
484.916 2.59371 0.580483
138.993 7.16655 -0.50796
531.054 41.5534 0.473016
463.918 40.3675 -0.130997
171.597 0.973658 0.268944
32.1844 2.42625 0.294527
338.377 18.8248 0.30018
530.112 79.2162 0.136778
439.45 43.1147 -0.179924
383.963 1.04467 0.211307
603.579 9.56545 -0.525165
26.8855 43.5313 -0.238655
251.34 32.4065 0.286089
620.269 11.7394 -0.215553
581.612 75.9374 0.359275
401.271 9.26289 -0.659821
511.693 5.78278 -0.46631
633.893 50.0245 0.441081
128.169 8.04804 0.246197
461.679 40.5185 -0.124599
449.403 21.7881 -0.104985
287.747 17.3068 -0.369759
19.7955 13.9746 -0.267545
656.901 70.4756 -0.315133
325.705 40.5592 -0.328761
583.253 32.3081 0.319499
593.275 14.9773 -0.222398
667.709 34.1822 -0.230194
440.217 47.9058 -0.177371
91.0439 42.0816 -0.288442
586.592 50.6149 0.229621
559.224 65.7488 0.0913984
672.793 66.0816 0.115815
665.94 0.775986 -0.77395
286.156 29.9357 0.429084
554.433 7.97375 -0.1348
23.602 5.28561 0.564435
131.321 40.819 0.162951
474.294 21.2193 0.216175
651.321 54.0327 -0.487563
192.49 30.2191 -0.219851
44.3263 35.0426 -0.277498
461.362 2.6116 -0.130188
231.338 8.79766 -0.428437
616.708 73.7898 0.236255
644.142 41.3823 0.233009
351.029 24.5157 -0.255364
159.77 27.886 -0.474125
502.36 70.7364 -0.434862
367.203 17.2894 -0.520297
398.051 33.0816 -0.117529
365.376 5.88067 0.369166
494.973 14.2672 0.155865
677.184 19.4406 0.251531
79.3327 41.4176 -0.398879
326.452 5.71275 -0.162983
505.212 14.4778 0.489839
350.844 52.0074 -0.0673665
24.429 24.7414 -0.481589
29.8805 5.71027 0.304602
508.142 48.4679 0.441141
466.216 37.0085 -0.157719
25.702 37.0128 0.422162
92.6528 31.8185 0.243594
316.641 17.4444 0.310391
538.101 21.6629 0.110406
439.69 59.604 -0.336514
633.183 12.015 0.429813
626.8 7.45142 0.184302
376.951 38.6129 -0.102337
556.143 47.6236 0.111809
234.255 17.8624 -0.469911
322.43 4.16216 0.45848
101.284 34.0789 0.30107
114.618 25.8742 -0.265996
497.161 73.1677 -0.071803
301.072 19.4626 0.485239
610.468 48.1198 -0.129207
586.294 76.8811 0.103151
452.298 32.3036 -0.455171
661.57 14.4936 0.383931
409.685 29.6841 -0.238762
271.172 26.7518 -0.310285
582.567 60.3532 -0.283412
275.765 30.4938 0.376639
519.723 14.9592 -0.20854
327.038 37.322 0.186921
469.319 18.2486 0.603095
358.476 36.6456 -0.0900534
414.297 17.5663 0.1088
313.728 45.7893 0.437364
188.511 30.5192 -0.122761
647.132 78.4642 0.158982
674.627 21.7655 -0.323722
6.12613 12.7676 -0.41965
413.537 26.8718 -0.398766
37.9739 22.7811 -0.081822
367.677 35.3305 -0.476552
384.701 26.4511 -0.300994
74.1826 12.025 -0.520139
51.201 35.5828 -0.522879
223.164 13.8658 0.448999
529.785 73.3513 0.390678
518.715 25.8725 -0.478093
74.5342 21.3753 0.479416
595.58 59.1038 0.420592
650.293 2.20955 -0.435339
575.962 69.1928 0.490003
601.469 1.87982 -0.54069
499.652 41.3095 -0.419537
520.914 48.6658 -0.460001
475.519 27.8719 -0.363049
676.165 5.70243 0.393401
221.499 27.1946 -0.124297
127.229 37.468 -0.206998
244.109 6.87189 -0.404588
93.6746 4.46712 0.29988
63.7225 10.196 0.226333
272.972 38.4995 -0.315736
15.9198 26.1048 -0.350832
501.499 28.4486 0.480359
523.601 65.9438 0.302711
443.008 29.6365 -0.404871
669.857 80.2713 -0.350744
394.842 8.79686 -0.114217
414.556 45.7743 -0.380603
492.222 3.42749 -0.313215
21.5416 24.3359 -0.398206
520.713 6.41395 0.547553
500.097 8.80836 -0.274345
203.88 11.4715 0.513498
410.931 18.2161 -0.207482
306.897 6.34809 0.386289
377.692 21.4249 -0.356446
622.775 62.8948 -0.0983186
190.948 26.408 -0.404533
667.72 11.0822 -0.396885
625.154 60.066 -0.327678
373.4 11.0048 0.21425
618.4 2.3317 0.480574
539.839 39.0486 -0.463356
634 25.0187 0.369335
418.062 55.2417 0.279302
463.419 19.397 0.391477
432.4 57.1888 0.222565
430.496 12.3302 0.160845
579.666 69.4987 0.272971
578.76 65.3437 0.305844
190.417 39.9566 -0.332202
665.487 33.8646 -0.125366
524.087 46.6108 0.340791
10.9779 18.2364 -0.183409
395.726 26.9903 0.360231
185.647 24.042 0.394573
92.7039 43.0939 -0.220591
648.734 45.9404 0.469934
573.077 74.0621 -0.225757
314.696 28.3607 0.356843
488.865 10.5439 0.308486
81.7824 46.9429 0.176741
245.302 27.5343 -0.470963
503.566 33.5725 0.432631
458.074 26.2554 0.429677
260.418 0.911758 -0.359527
510.244 65.7967 -0.385025
490.807 69.1187 0.432295
454.764 55.2761 0.37666
468.521 4.79764 -0.616108
608.116 21.4517 -0.361589
177.875 12.8674 -0.187242
466.576 53.1435 0.456886
511.153 52.8101 -0.134834
72.8315 0.953859 -0.317042
249.384 4.72478 0.187699
673.478 25.0801 0.224817
667.922 36.1262 -0.404494
679.469 28.4205 -0.44739
299.668 8.6727 -0.26024
639.198 29.6637 -0.458645
395.69 53.2539 0.308944
432.439 2.29958 0.573755
564.266 62.2718 -0.442324
26.2173 30.6778 0.321396
327.941 41.9017 -0.56402
250.229 2.83499 0.377719
660.42 76.9286 -0.181855
603.3 58.2323 -0.247083
283.993 11.8729 0.265545
575.886 53.627 -0.0782879
508.567 2.61756 0.283431
497.487 8.21029 0.541394
96.5143 18.7365 -0.510385
299.393 1.10699 -0.234356
336.261 2.31435 -0.344655
13.5401 7.64567 -0.47115
4.59321 33.4496 -0.247642
159.902 19.1598 -0.337822
68.5732 42.7802 -0.220897
67.0594 29.922 -0.307914
411.56 14.7956 -0.411511
360.803 42.0914 0.465114
633.249 70.6641 -0.121811
19.1268 4.05181 -0.262212
70.5026 7.12926 -0.141378
538.856 65.9969 -0.156216
290.9 1.1329 0.400619
356.364 16.6658 -0.0980066
233.75 4.72216 -0.34319
572.847 41.3064 -0.166864
433.746 11.5194 0.393123
642.808 27.5007 -0.487594
550.784 52.9306 -0.286923
583.746 25.99 -0.0801686
405.374 33.5787 0.467239
102.665 47.5777 -0.307487
502.86 74.6866 0.0658415
631.159 21.3644 0.234166
235.152 31.6966 -0.229324
31.2488 16.9414 -0.17013
330.577 15.4527 0.498662
107.593 42.4075 -0.494288
265.823 44.8683 -0.206306
415.017 2.20062 -0.253362
652.822 64.1228 0.395821
596.417 0.7398 -0.533914
326.999 4.11887 0.536158
297.882 28.6983 0.141182
435.352 55.0886 0.157307
81.4124 8.15429 0.502245
195.507 46.9333 -0.39295
645.152 50.8252 -0.381161
463.445 57.8948 0.0684291
198.456 43.1875 -0.282624
159.591 44.7498 0.395249
676.901 59.3839 -0.449908
675.809 20.3606 -0.540299
547.42 2.99535 -0.641914
189.432 25.2621 -0.0976181
501.538 45.9717 -0.107253
500.318 39.5322 0.303131
399.376 5.8295 -0.142691
458.3 0.961842 0.375958
632.222 73.2596 -0.562687
85.7518 33.2505 0.22114
574.334 30.4689 0.461526
271.199 16.5698 -0.358992
9.11444 2.35185 0.339944
125.62 39.121 -0.183774
67.2722 24.4377 0.504863
598.434 43.9409 -0.325737
660.895 87.3998 0.174446
184.696 29.0326 -0.171256
672.04 26.3086 -0.320078
45.5851 37.4474 0.247888
91.4476 30.218 0.147741
561.876 31.2919 0.368252
404.572 17.6707 -0.542679
481.831 26.9702 0.127945
235.745 29.7858 0.185431
559.226 7.59935 -0.498649
678.589 20.9914 0.456607
29.3523 31.7282 0.260933
267.984 7.57421 0.189384
220.821 15.6863 -0.233093
1.09044 39.83 0.146931
224.215 14.7849 -0.401182
210.374 11.121 0.111586
212.49 28.0784 -0.326163
132.522 30.1622 0.138737
498.852 21.4443 0.351925
164.794 14.6044 -0.326783
654.108 76.4148 -0.22893
173.531 3.99648 -0.495412
47.3572 40.0749 0.346758
609.651 83.8464 -0.426315
280.477 34.136 0.398069
584.087 35.1267 -0.425772
657.334 61.1825 -0.459742
297.873 9.44363 0.155098
628.668 46.7948 0.348278
324.605 2.6376 -0.405974
404.221 25.4896 -0.371723
584.663 20.1451 0.481687
105.541 11.7513 0.517902
458.54 4.0005 -0.578154
644.638 22.4489 0.229823
88.2364 7.7158 -0.274078
279.039 15.6753 0.193665
412.793 12.2855 -0.212917
676.379 2.32743 0.656429
388.715 2.02216 -0.550815
175.307 39.3142 0.32421
632.835 17.5615 -0.366329
128.895 38.7466 -0.221972
261.782 33.3631 -0.380302
391.563 22.2953 0.20286
520.728 16.5972 -0.411299
377.655 9.31311 -0.506781
440.256 35.669 -0.443613
643.152 80.9651 0.391969
47.6997 11.5069 0.143104
297.512 41.9551 -0.323376
371.669 28.4648 -0.401581
398.522 21.3547 0.249553
482.739 59.1242 0.384204
626.032 71.3067 0.204031
583.813 66.1977 0.349903
223.499 36.2701 0.390635
13.7694 34.5236 -0.154085
576.754 65.2995 -0.131717
477.911 52.2846 -0.280545
228.238 40.5721 0.097416
586.489 44.1513 -0.114247
150.481 9.53806 -0.193433
359.938 23.6332 0.273516
434.548 57.0961 -0.130232
402.489 20.2337 0.18786
639.143 82.2974 -0.290371
415.592 4.17647 0.65125
50.1444 25.7451 0.346009
446.86 49.2917 -0.333352
418.771 48.5737 0.368935
658.236 71.8475 0.217877
625.472 46.4843 0.229612
494.022 25.083 0.185466
648.141 71.566 0.413891
290.6 2.50004 -0.506309
372.023 31.5237 -0.447409
28.8561 38.9084 0.311585
629.829 48.342 -0.157121
546.966 24.9676 0.505408
440.879 0.732916 0.582515
125.468 5.02343 -0.388142
414.729 54.4432 0.103111
11.5109 0.902441 -0.317461
674.08 9.35305 0.228593
365.381 45.0566 -0.415112
[...]
POINT_DATA 13483
TENSORS Strain_matrix float
-2.07819 0.0153605 -9.39622 
1.06926 0.664946 5.71371 
-7.77864e-19 -3.48698e-19 1 

-0.524335 -0.101982 -23.4724 
0.0619092 0.300482 40.9574 
-2.04778e-18 3.28502e-18 1 

-0.131067 -0.0901603 -0.120089 
0.100862 -0.0341296 0.229928 
1.43044e-18 2.63141e-17 1 

-2.45182 -2.42982 -1.23717 
0.713676 1.23987 0.605589 
-1.42743e-17 6.56678e-18 1 

-0.925032 -0.865535 0.65629 
0.457271 0.394831 0.0209327 
-5.27918e-18 9.63315e-18 1 

-0.180022 0.0578603 0.663783 
-0.100198 0.0513461 -6.30507 
-9.25575e-18 4.58187e-18 1 

-0.130406 -0.0128345 -0.893724 
-0.0314392 -0.074957 0.186387 
-6.12487e-18 -3.28972e-19 1 

-0.341329 0.0411419 0.321738 
0.0884102 -0.00583999 -0.454561 
3.65519e-18 3.42674e-18 1 

-1.08243 0.0209778 0.193656 
-0.29114 0.428727 1.97123 
4.401e-18 -3.63189e-18 1 

-1.22797 0.0626687 -0.802536 
0.105299 0.443288 -2.12803 
1.48692e-17 1.81234e-18 1 

-0.112177 -0.0372098 0.12761 
0.0300171 -0.0489765 -0.128884 
-2.1409e-18 -4.95006e-20 1 

-0.149076 -0.0498979 0.231346 
-0.117333 -0.116346 0.0787291 
-9.82888e-18 -8.26729e-18 1 

-0.9598 -1.12652 0.363516 
-0.278258 0.309098 0.563208 
4.4842e-18 -6.09671e-18 1 

-0.916991 -0.568686 -1.72984 
1.12395 0.813416 -0.944632 
-3.79611e-18 9.71805e-18 1 

-0.279741 -0.194588 -0.825387 
0.223875 0.0946104 -0.112061 
8.56921e-18 0 1 

-0.17875 0.0201765 1.05743 
-0.05373 0.0969953 -0.135244 
9.68003e-19 -6.70739e-18 1 

-0.096998 -0.0250671 0.187524 
0.0036074 -0.086788 -0.00926969 
-8.36647e-18 -6.4191e-18 1 

-0.253179 0.00396979 -0.0619937 
0.138733 -0.0965493 0.0588877 
-9.64976e-19 4.82488e-18 1 

0.0399692 0.100862 -1.47948 
0.231548 -0.0655028 1.0815 
-4.91406e-18 1.11039e-17 1 

-0.450217 0.378692 1.45504 
-0.417376 0.17621 -0.746746 
-8.62254e-18 -1.09964e-17 1 

-0.0982915 -0.149332 1.62852 
0.512812 0.130808 -0.202192 
5.17445e-18 -5.75658e-18 1 

-1.92443 -1.27765 1.83366 
0.150437 1.29296 3.13574 
-1.1946e-18 -7.76488e-19 1 

-0.679729 0.247696 0.250828 
-0.32185 0.327152 1.92803 
1.04909e-17 3.04561e-18 1 

-1.46867 1.35667 -12.9283 
-1.71375 1.64405 -2.98708 
-8.04384e-18 1.16862e-17 1 

-0.0608644 -0.177851 0.0608779 
0.154355 -0.0410932 0.133811 
-1.84308e-17 7.29883e-18 1 

-0.24357 -0.0643069 0.0322074 
0.0276671 0.0586123 0.0819613 
8.84247e-19 4.86336e-18 1 

-0.708855 -0.168731 8.03344 
-0.0416148 0.402626 30.7267 
1.59171e-18 5.36475e-18 1 

-0.149511 -0.609035 -0.28316 
0.245251 0.0202222 0.192994 
2.7184e-18 0 1 

-0.103543 0.000431224 -0.563294 
0.0168372 -0.0644112 -2.28257 
-3.89626e-18 2.45556e-18 1 

-0.980978 -1.31894 -2.67659 
0.53602 0.769161 1.01942 
-8.44816e-18 1.48714e-17 1 

-0.141463 -0.228294 -0.367492 
-0.0351326 -0.39536 -0.0978242 
-5.26965e-18 -1.12304e-17 1 

-0.209769 0.258057 -0.479546 
-0.246902 0.00787494 -0.0206796 
-1.10373e-17 7.30163e-18 1 

-0.0257415 -0.418004 -0.745162 
0.34934 0.0977763 0.613677 
1.47162e-18 1.24151e-17 1 

-0.967701 0.11516 -6.28984 
0.108919 0.674922 -2.60757 
-8.68009e-18 -1.60248e-17 1 

-0.070774 -0.160942 -0.0101184 
0.134251 -0.105071 -0.245154 
-9.92309e-19 -2.72885e-18 1 

-0.287635 0.299358 -1.22546 
0.0491008 -0.0845061 0.61064 
-6.17608e-18 5.89882e-18 1 

-1.07892 0.312069 1.21313 
-0.321842 0.548315 -0.257084 
-3.25236e-18 -1.92587e-18 1 

-0.105139 0.442321 -0.0213076 
-0.165428 0.0612504 0.634017 
-5.03156e-18 -1.36813e-17 1 

-0.93459 0.916023 2.41566 
0.107202 0.0941298 -0.552762 
2.14198e-18 1.02509e-17 1 

-0.332089 0.0436885 -1.03791 
0.440786 0.120614 -0.0821019 
-2.23328e-18 2.27464e-18 1 

-0.270536 -0.0792043 -0.111524 
-0.0101963 0.119772 0.13508 
-1.12672e-17 -1.32168e-18 1 

0.571662 0.957183 0.0240062 
-0.988389 0.445718 0.929641 
2.88906e-18 1.94355e-18 1 

-0.28658 0.192708 0.03149 
-0.63646 -0.113026 0.481319 
1.1989e-18 2.34088e-18 1 

-0.158638 0.0495459 0.524146 
-0.09928 -0.0540743 1.13939 
5.99963e-18 -1.72858e-17 1 

-0.117268 0.0902464 -0.0731074 
-0.100192 -0.0546164 0.0707181 
1.04994e-17 7.79334e-19 1 

-0.0727314 -0.00625353 -0.125103 
0.00922781 -0.0606186 -0.194105 
-5.89022e-19 -2.8273e-18 1 

-0.783788 -0.444921 0.563211 
0.121288 0.245628 -0.344183 
1.26473e-18 3.07149e-18 1 

-0.0948532 -0.068836 0.0150132 
-0.114265 -0.0491836 -0.111153 
4.09095e-18 1.11571e-18 1 

1.35179 -0.995294 0.174412 
1.09637 1.28489 0.130458 
6.88592e-18 2.58222e-18 1 

-1.62362 -1.50305 2.80304 
-0.634605 0.182114 -0.0269415 
-6.78685e-18 2.05163e-18 1 

-0.0085058 0.00611674 0.354357 
-0.177988 -0.00354391 0.290195 
-4.12978e-19 5.67845e-18 1 

-1.15089 0.31859 1.32864 
0.237928 0.241654 -0.145955 
1.33934e-17 5.96881e-18 1 

-0.115524 -0.00231807 -0.213993 
0.00469681 0.0230691 0.27147 
-1.57329e-18 -2.8358e-18 1 

-0.433181 0.376759 0.105703 
-0.0657601 -0.125448 0.244191 
2.71433e-17 -1.28816e-17 1 

-0.145753 0.0299904 0.0751018 
0.0417963 -0.145994 0.366592 
9.40576e-18 -1.37013e-17 1 

-0.902892 -0.283172 -2.21742 
1.21198 0.440286 -0.0529191 
1.59719e-18 -2.48742e-18 1 

-1.21856 0.0798608 0.454582 
-0.31016 0.45065 -0.0490021 
2.24027e-18 4.6438e-18 1 

-0.106449 0.0742544 -0.127008 
0.015542 -0.0507353 0.118461 
-1.04923e-18 4.24609e-17 1 

-0.0607904 0.00250244 0.0380702 
0.0188637 -0.130682 0.204449 
-1.91424e-17 -1.62433e-18 1 

-0.0858775 0.142905 -0.143978 
-0.243997 -0.0661867 0.310391 
3.18735e-18 2.73201e-18 1 

-0.937182 0.198296 -5.7037 
-0.0357551 1.12024 -1.1652 
1.08213e-18 -7.06958e-18 1 

-0.109935 -0.423632 1.97119 
1.02326 0.426451 0.1869 
-2.12121e-18 -8.48606e-18 1 

-0.15879 -0.132029 -0.304265 
-0.0251844 -0.0537773 -0.0968825 
4.02613e-19 -1.61045e-18 1 

-0.536407 -0.211652 -0.723222 
0.102833 0.13653 1.79685 
-5.35769e-18 -1.08879e-17 1 

-0.35716 0.0883431 0.202111 
-0.104644 0.0876566 -0.732854 
-4.03782e-19 7.32864e-18 1 

-0.0847764 0.0305265 0.440374 
-0.0521702 0.043777 0.0662033 
5.29045e-18 3.21409e-18 1 

-1.15531 0.190802 1.56943 
0.216145 0.419351 -0.868122 
1.03232e-17 8.84205e-18 1 

-0.0692147 -0.38554 0.0309045 
0.395068 0.0893877 -0.153476 
0 1.54762e-18 1 

-0.317103 -0.00587178 -8.4329 
-0.0458033 0.164582 -15.2562 
4.54305e-18 1.47948e-19 1 

-0.471018 -0.412962 0.954189 
-0.167405 -0.171317 -0.759885 
9.74533e-18 -2.26636e-18 1 

-1.46395 0.0637429 6.53031 
0.19094 0.773769 0.706946 
3.52595e-18 1.42131e-18 1 

-0.11984 0.0418957 -0.0326663 
-0.0925227 -0.0116327 -0.0931332 
-7.53602e-18 4.88335e-18 1 

-1.53929 -0.0250948 -0.0127926 
0.0204722 0.56401 1.07685 
-2.34749e-18 -7.5484e-18 1 

-1.16525 0.244658 -0.290621 
-0.181046 0.529668 1.24407 
-5.87354e-18 2.38347e-18 1 

-0.103242 0.0265056 0.0919444 
-0.0268396 -0.0227525 -1.47934 
-4.97994e-18 -5.18409e-18 1 

-0.121044 -0.0472191 0.00243088 
0.0085498 -0.0516123 -0.0454618 
4.18468e-18 -1.21012e-17 1 

-0.295442 3.45592 -9.49756 
0.00012431 0.109548 2.95723 
1.44535e-17 -4.72336e-20 1 

-0.111242 0.108464 -0.125566 
-0.115266 -0.0647586 0.582448 
1.07321e-18 -2.64414e-18 1 

-2.28084 -0.860379 1.0181 
-0.897995 0.209982 0.366661 
5.19436e-18 9.66151e-18 1 

-0.254062 -0.909319 0.766099 
0.29944 0.278576 0.543533 
1.62822e-17 -1.66286e-18 1 

-0.139233 -0.201297 -1.25855 
0.152247 -0.0663249 0.700179 
1.31204e-17 -1.58798e-17 1 

0.242109 -0.79272 1.94693 
0.913445 0.685654 0.637701 
-5.12038e-18 -2.52623e-18 1 

-0.130456 -0.0909238 0.723192 
0.0916694 0.0792598 0.0381867 
4.09134e-18 7.44891e-19 1 

-3.6194 1.59902 -5.14049 
-1.09035 1.43758 0.251382 
7.71637e-18 6.23591e-18 1 

-0.195615 -0.323216 0.169277 
0.319293 0.0835815 0.376877 
-2.64109e-18 6.85534e-18 1 

-1.61161 -1.26407 2.59334 
-0.434135 0.410168 1.2832 
7.63787e-19 -9.5223e-18 1 

-1.51985 -0.870002 154.654 
0.0370806 0.289265 66.3128 
-2.69195e-18 -1.6149e-17 1 

-0.398563 0.525557 1.07765 
-0.0545536 0.204048 -0.178859 
-1.37106e-17 1.3916e-17 1 

-0.866333 -0.0641549 -0.683902 
0.483906 0.301672 -0.0791563 
-1.04267e-17 1.19651e-18 1 

-0.128144 0.0558209 1.45889 
-0.0234092 -0.0691651 12.7029 
-6.44099e-18 -1.03211e-17 1 

-0.120199 -0.203501 -0.128389 
0.00985798 -0.0562335 -0.125067 
-6.03802e-18 3.38186e-19 1 

-0.66092 0.381954 0.484303 
-0.0599201 0.144161 -0.893209 
-6.44458e-18 -1.78442e-17 1 

-1.26091 -0.517883 -12.187 
0.157212 0.528593 3.62098 
-5.84991e-19 8.51074e-18 1 

-0.110471 -0.0255365 -0.173211 
0.118185 -0.00597864 0.0624223 
-3.53022e-18 5.99303e-18 1 

-0.17055 -0.00875356 0.616329 
0.147037 0.111437 -1.39996 
-3.3535e-18 -5.90054e-18 1 

-0.949954 -0.40708 -0.196735 
0.254889 0.513255 0.168729 
8.04052e-20 6.84952e-18 1 

-0.166844 0.0424119 -0.510831 
0.0404179 -0.0260719 -1.02358 
-1.40867e-17 -1.02624e-18 1 

-0.222118 0.100265 0.340316 
0.0629765 0.0801631 -0.163463 
6.57328e-18 -1.59821e-17 1 

-2.01727 -1.82476 8.84853 
-0.220028 0.59062 -0.134249 
-6.12956e-18 1.0897e-17 1 

-0.272356 0.181986 -3.32219 
-0.00971273 0.168017 1.42877 
1.32571e-17 -9.20901e-18 1 

-0.136552 0.0444502 -0.216018 
0.0244365 -0.00401004 -1.48205 
-4.00081e-18 -6.43453e-18 1 

-0.444891 -0.444644 34.7922 
-0.395042 0.242204 7.71583 
-2.72905e-18 1.51147e-17 1 

-0.229096 0.0908009 0.979288 
-0.110077 0.0138739 8.51669 
3.01843e-18 -5.11661e-18 1 

-0.503609 0.0165581 0.112393 
0.177653 0.324348 -0.428639 
-6.14124e-19 -4.10695e-18 1 

-0.354178 -0.127277 -0.0028407 
0.172511 0.037233 -0.332785 
1.45068e-18 1.30561e-17 1 

-0.263303 -0.629899 0.500007 
0.494852 0.230182 -0.167237 
-1.40912e-17 -1.92153e-18 1 

-1.05253 -0.0249092 -0.353135 
0.094939 0.137467 0.438406 
-1.89072e-18 4.50373e-18 1 

-0.10752 -0.0185168 0.537418 
0.0491059 -0.00408989 0.163932 
-5.91245e-18 1.66548e-18 1 

-0.212769 0.0191133 0.175441 
0.111057 -0.0911073 -0.0490995 
-5.36489e-18 -1.66676e-18 1 

-0.597721 0.465605 0.224961 
-0.354779 0.275953 -0.370139 
-5.90036e-18 1.30775e-17 1 

-0.0524891 -0.322295 -0.78158 
0.0820196 -0.0611593 0.0776868 
-2.02114e-18 -1.53691e-17 1 

-0.0538752 0.0799581 -4.81797 
-0.0392125 -0.0923984 0.183693 
-1.44253e-19 -6.33603e-18 1 

-0.0918358 -0.00024511 0.0131779 
0.030351 -0.073858 0.068514 
-1.2459e-17 -1.04979e-17 1 

-0.813833 0.672715 0.36049 
-1.08713 0.836685 -1.29384 
1.02862e-18 3.72876e-18 1 

-0.314725 -0.319585 0.220734 
0.329337 0.191741 0.34254 
7.44394e-18 8.57032e-18 1 

-0.136101 0.0754619 0.590616 
-0.0617212 0.0202883 3.08367 
1.24678e-17 3.05643e-18 1 

-0.493687 -0.226945 -0.0556769 
-0.331023 0.177659 0.222612 
1.25562e-17 -1.23659e-18 1 

-0.284802 -0.216012 0.223743 
0.0717355 0.161377 -0.292228 
-7.03753e-19 -7.59622e-18 1 

-0.747141 0.615657 0.422014 
0.614296 0.0438407 -0.284418 
-1.18685e-18 1.05498e-18 1 

0.076966 -1.07747 -0.680833 
0.596443 0.510892 0.209829 
-3.55733e-18 6.21435e-18 1 

-2.94671 -2.5908 -1.07021 
1.07166 0.993679 -0.655929 
2.31979e-17 -9.02142e-18 1 

-0.52612 0.0749995 0.602604 
-0.242604 0.14804 -1.02912 
9.40591e-18 -4.72349e-18 1 

-0.0375657 0.177899 -0.0247138 
-0.16484 -0.0302856 -0.132523 
5.37531e-19 2.62046e-18 1 

-0.228726 0.0504986 -0.0933993 
-0.442049 0.109686 -0.145927 
-5.14416e-18 -8.7055e-18 1 

-0.119981 -0.115913 -0.622274 
0.0831068 -0.016127 0.537205 
-3.34029e-18 -1.50537e-17 1 

-0.212728 -0.135908 -1.83727 
0.128421 -0.100812 0.709272 
-1.44418e-18 2.53333e-17 1 

-0.154712 -0.0502634 0.341954 
-0.0294606 0.089865 -0.322107 
-9.07789e-19 1.56385e-17 1 

-0.0974141 0.048243 0.0026075 
-0.175278 0.0700976 -0.0226121 
-5.83153e-18 3.48714e-18 1 

0.136382 -0.253489 0.339625 
0.29747 0.00401903 0.894389 
-1.99693e-18 -9.0467e-18 1 

-0.147839 0.10918 -0.841844 
-0.0257101 0.00678161 1.92694 
-8.89451e-18 6.57823e-18 1 

-1.43908 1.25006 5.4279 
0.772095 0.450523 1.63663 
1.58843e-17 3.92311e-18 1 

-0.0105769 -0.264385 0.0514304 
0.422265 0.0240861 -0.132072 
1.01231e-17 -9.3732e-18 1 

-1.19011 -0.03699 -5.51607 
-0.178113 0.514786 2.79063 
-3.47303e-18 3.79228e-18 1 

-0.711094 0.0501775 -0.785758 
-0.154099 0.344044 0.202855 
-2.12686e-18 3.92651e-18 1 

-0.740196 0.0442781 -0.134886 
0.301644 0.383726 1.65655 
3.01939e-18 -8.37733e-18 1 

-0.270659 0.496256 -0.464226 
-0.128495 0.278437 0.941451 
6.47678e-18 -1.00502e-17 1 

0.861408 0.182043 1.75518 
-0.558815 0.75881 1.61561 
8.3462e-18 6.81323e-18 1 

-0.182723 0.299288 1.00943 
0.0487615 0.0346764 1.2218 
-7.48961e-18 5.83606e-18 1 

-0.446224 -0.404763 -0.399322 
0.0979615 0.141042 0.853236 
9.23348e-18 -8.67047e-18 1 

-0.093007 0.0870505 -0.323408 
-0.30084 -0.0332948 -0.126651 
-1.11726e-17 5.75062e-19 1 

-0.408542 0.14769 5.12423 
0.176681 0.0354914 -1.14948 
-5.8361e-19 -9.48366e-18 1 

-0.217897 0.129345 -1.97495 
-0.117716 0.0433706 -0.702201 
4.31146e-18 8.92027e-18 1 

-0.469506 -0.369052 0.256327 
0.134712 0.245837 -0.413915 
-7.5525e-18 6.08773e-18 1 

-0.119132 -0.141464 -4.18812 
-0.116467 0.0743509 0.736181 
7.0582e-18 9.88574e-18 1 

-0.0272764 -0.0416029 0.162503 
0.0382077 -0.00515444 0.0843945 
-1.29605e-18 -3.06137e-18 1 

-0.17681 -0.145987 -0.287451 
0.0873036 0.0761665 0.258797 
-1.38779e-17 -1.3496e-17 1 

-0.557545 0.291524 1.014 
-0.636574 0.311904 -0.527695 
-3.4551e-18 2.86125e-17 1 

-0.117969 -0.00260583 0.26404 
-0.0169034 -0.108688 0.142596 
-1.00479e-17 1.474e-17 1 

-0.453512 -0.647287 0.280549 
-0.104702 0.22403 0.0821909 
4.63482e-18 1.14386e-17 1 

-0.072408 0.125658 -0.081472 
0.159767 0.00247654 -0.374863 
1.14445e-19 -1.33996e-18 1 

-0.293644 0.100028 10.9363 
-0.115404 0.175106 -3.2441 
4.39646e-18 -7.3494e-19 1 

-0.298671 0.235036 0.32024 
0.137209 0.0688445 -0.65924 
4.5047e-18 -7.83915e-18 1 

-0.14167 -0.0419015 -1.51469 
0.021451 -0.0411544 1.6547 
-1.48853e-18 -4.01497e-18 1 

-0.132937 0.0043995 1.76972 
0.0046893 0.0797761 -14.6006 
2.13837e-18 2.96019e-18 1 

-0.128552 0.0425366 -0.397872 
-0.0585658 -0.0701636 -0.0677492 
3.71729e-18 4.32759e-18 1 

0.0402218 0.273844 0.236972 
-0.296657 -0.0531586 0.0134627 
1.67778e-18 7.62629e-18 1 

-0.383888 -0.147891 0.90915 
0.00894257 0.154262 2.23879 
-7.34116e-18 5.63782e-18 1 

-0.102541 0.0524234 1.58257 
-0.221211 -0.0509461 -1.94438 
-2.92455e-18 -6.46795e-18 1 

-0.393125 0.958921 -34.5762 
-0.934063 1.52947 11.5737 
7.11125e-18 1.08601e-18 1 

-0.823898 -0.01417 -1.81958 
-0.293554 0.394413 0.273854 
-3.25575e-18 9.37859e-18 1 

-0.774069 -0.103988 -97.5493 
0.137806 0.27549 -41.2783 
5.30442e-18 3.22022e-18 1 

-0.714094 -0.414669 -1.38639 
-0.0714665 0.248885 -0.132533 
-7.03314e-18 4.47563e-18 1 

-1.31569 0.917421 -1.32649 
-0.790816 0.895623 -1.52628 
-3.02585e-18 4.63639e-19 1 

-1.774 -1.80556 0.0588779 
-0.00543971 0.908999 -9.48677 
5.01977e-18 8.15712e-18 1 

-0.218861 -0.724102 1.83007 
0.272051 0.167036 0.18557 
3.76441e-18 -4.08006e-18 1 

-1.6625 -2.03077 -1.0106 
0.258135 0.697117 0.186553 
-9.61773e-18 -1.25449e-18 1 

-0.351147 -0.176004 0.709902 
-0.025122 0.240187 0.322133 
5.91826e-18 -4.43412e-18 1 

-0.107243 -0.145819 0.0309646 
0.0926842 -0.0373467 0.0258465 
-8.87901e-19 1.12816e-17 1 

-0.126457 -0.0117833 -0.338356 
0.00258619 -0.0729048 0.65002 
-1.06393e-17 9.29104e-18 1 

-0.187314 -0.041727 0.0566156 
0.0328839 -0.00904265 -0.144521 
-3.81654e-18 -3.77366e-18 1 

-0.0957145 -0.0319835 0.260033 
0.0351695 -0.0570876 -0.495184 
5.30523e-18 -2.94881e-18 1 

-0.0811632 -0.0351585 -0.563544 
0.00806939 -0.0237105 -0.0842001 
-2.52725e-18 -9.67546e-19 1 

-0.227445 0.123871 -1.03802 
-0.183009 0.0671589 0.291788 
-3.10019e-18 -8.46343e-19 1 

-0.927519 0.214616 7.60889 
-0.262399 0.379088 -5.19337 
1.10816e-17 3.93584e-18 1 

1.05499 -1.04152 -0.673634 
1.07984 1.35848 -0.0062464 
-2.24657e-18 -7.6265e-18 1 

-0.24635 -0.411239 1.36387 
0.378802 0.121865 2.21941 
3.14148e-18 4.38346e-18 1 

-1.89228 1.51002 6.39526 
-0.33859 0.781443 1.29427 
-7.87715e-18 -1.46337e-18 1 

-0.145408 -0.0249305 -0.00398063 
-0.0242538 -0.0606117 -0.160614 
9.43946e-18 4.79796e-18 1 

0.253159 0.61721 -0.483023 
-0.770313 0.270157 -0.652492 
-1.7699e-17 -1.13077e-18 1 

-0.320763 -0.0463356 0.166758 
0.109703 -0.0479926 -0.0236339 
-2.59385e-17 8.95508e-19 1 

-0.0880528 0.0639883 -0.320298 
-0.142494 -0.0135971 0.293109 
-7.19939e-18 -2.92775e-17 1 

-0.679898 0.22909 0.121922 
-0.0655517 0.136384 -0.674968 
2.22139e-17 3.60783e-19 1 

-0.473408 -0.580274 1.45744 
0.274262 0.339246 0.0796499 
-2.35363e-19 -1.56516e-17 1 

-0.131959 0.0430939 0.620372 
-0.00744556 0.00261629 -0.657905 
4.77475e-18 1.7897e-18 1 

-0.678556 -0.111904 -1.02854 
-0.0761528 0.202021 -0.0864094 
-4.77943e-18 6.88238e-18 1 

-0.211805 0.014926 -0.472412 
-0.0363867 -0.0601813 0.258422 
-5.59261e-18 -6.01469e-18 1 

-0.379792 0.251702 1.20329 
-0.0866287 0.0974739 0.654385 
-1.05986e-17 -2.94456e-18 1 

0.618179 -0.996766 0.0597959 
1.08886 0.856992 -1.02616 
1.76829e-17 -1.01175e-17 1 

-0.0379363 0.0281828 -0.19625 
0.0350979 -0.0322177 -0.712673 
-2.41058e-18 1.04688e-18 1 

-0.364823 -0.80184 2.43766 
1.12736 1.29336 -1.96627 
-3.22712e-18 2.68228e-18 1 

0.425513 -0.910853 0.584412 
0.944631 0.669369 -1.28833 
-7.15756e-18 5.00414e-18 1 

-0.222301 0.0354126 -1.68816 
-0.188418 0.0381082 -0.321557 
-1.79939e-18 -1.62255e-17 1 

-0.527488 -0.373317 0.107101 
0.0771867 0.0841808 0.573206 
-5.25417e-18 -8.963e-18 1 

-1.81725 -0.502465 -1.61936 
0.595755 0.772684 2.2259 
-5.81828e-18 -8.01477e-18 1 

-0.815498 0.198782 1.64755 
-1.22966 0.529136 -1.06184 
1.43008e-17 6.80991e-18 1 

-1.66185 -0.477557 -8.13858 
-0.221179 0.927588 2.62158 
1.92893e-18 -1.20967e-17 1 

-0.154412 0.0698443 1.13829 
0.0527596 -0.0628843 -0.645892 
1.01729e-17 5.14772e-18 1 

0.642431 -1.09188 -0.240925 
1.03271 0.835576 -0.148677 
3.09392e-19 -1.12541e-17 1 

-0.46198 -0.261974 -0.281209 
0.12717 0.178076 -0.217107 
9.95766e-18 -6.06119e-18 1 

-0.123905 -0.41687 -3.43086 
0.396458 0.0946896 0.40399 
2.53172e-18 7.38046e-19 1 

-0.530151 0.553327 -4.26837 
0.349601 0.0785599 0.468697 
1.77577e-18 -2.58644e-18 1 

-0.105215 -0.0586683 0.131367 
0.103473 -0.0274971 -0.0510552 
-5.28332e-18 -6.71525e-18 1 

-0.125039 -0.136658 -0.0371084 
0.123034 -0.0295434 0.211037 
1.31239e-18 -1.31978e-18 1 

-0.954784 -1.98571 3.88399 
0.33263 0.79481 4.43262 
5.11541e-18 1.68809e-17 1 

-0.213055 -0.62682 0.59561 
0.0400603 0.0629663 -0.588461 
3.0739e-18 1.73834e-17 1 

-0.482983 0.22686 1.53664 
0.0482214 0.22923 0.741206 
-8.73908e-19 5.40575e-18 1 

-0.0526469 -0.0162992 0.520679 
0.000319964 -0.0396588 0.159912 
1.04913e-17 -1.94284e-19 1 

-0.138005 0.0251252 0.0109109 
0.0760036 0.0386069 0.367388 
-8.79243e-19 -2.1688e-18 1 

-2.37876 -0.335855 2.9886 
0.905211 0.598747 -1.7743 
-7.77977e-18 6.99657e-18 1 

-0.399791 -0.239608 -0.171458 
0.141233 0.343133 -0.134491 
4.84179e-18 9.21609e-18 1 

-0.110275 0.129957 0.286231 
-0.0944088 0.0663532 -1.04463 
8.30932e-18 7.90644e-18 1 

-0.72843 -0.0920818 0.747503 
0.00861187 0.166953 -0.82018 
-3.04347e-18 1.18721e-17 1 

-0.134218 -0.173583 -0.876188 
0.184686 -0.0170365 -0.4768 
-4.34232e-18 9.02897e-18 1 

-0.121057 -0.0232121 0.653292 
0.0326069 0.0446843 -3.99901 
1.86623e-18 -7.26208e-18 1 

-0.905718 0.0118841 -1.07219 
-0.322572 0.323013 -1.78731 
2.48922e-18 -4.96271e-18 1 

-0.543817 -0.102223 0.985025 
-0.418576 0.358746 -1.02236 
-9.84906e-18 9.56441e-18 1 

-0.209523 -0.0147513 0.15325 
0.0174086 -0.0686355 -0.175974 
3.63233e-19 8.70837e-17 1 

0.288264 0.789481 1.42726 
-0.869611 0.494507 2.7365 
9.52384e-19 -5.44975e-18 1 

-0.278102 -0.445161 4.3168 
0.175112 1.04336 4.55156 
-1.67683e-18 7.34136e-18 1 

-0.553291 -1.81137 11.9354 
-0.10625 0.219812 -6.33524 
4.12903e-18 8.61712e-18 1 

-2.03625 -0.273047 5.53068 
-0.108035 0.478766 0.593577 
6.1693e-18 1.93951e-17 1 

-0.504894 -0.969541 1.44513 
-0.292662 0.164085 -0.700364 
-8.37613e-18 -2.70613e-17 1 

-0.0767936 0.00246408 0.345405 
0.0488191 -0.0324941 -0.0214758 
-9.87357e-18 -1.36478e-18 1 

-0.321989 0.183961 3.80797 
-0.379521 0.258863 -1.67442 
8.03818e-18 -1.20486e-17 1 

0.745486 0.983605 -0.163989 
-1.05616 0.860707 -0.164119 
-1.63125e-17 -6.99826e-18 1 

-0.157203 0.185709 0.171107 
-0.000230459 0.0257214 -0.163748 
1.53136e-19 5.32772e-18 1 

-0.106615 -0.0456196 -0.151491 