# vtk DataFile Version 3.0
Output file generated by Yade's KinematicLocalisationAnalyser
ASCII
DATASET UNSTRUCTURED_GRID

POINTS 13483 float
618.241 31.7462 -0.415829
770.607 69.0381 -0.558171
121.318 6.10325 -0.43263
793.086 4.12637 0.509385
507.782 7.66717 -0.29514
318.661 36.3955 0.453047
157.92 6.95559 0.43933
578.652 10.4935 0.158754
504.097 25.6256 0.14676
726.172 14.3596 0.569598
212.81 8.93675 -0.116962
260.092 6.3509 -0.256009
660.299 33.4034 -0.13542
643.533 14.3277 -0.121624
138.677 17.7775 0.554421
223.746 35.0584 0.198837
220.194 12.9776 -0.285881
292.781 9.6482 0.388601
345.613 33.1506 0.438865
532.099 8.58856 0.342461
417.283 37.5644 -0.116566
600.129 45.9939 -0.28753
792.165 43.651 -0.482507
707.296 57.8756 0.125707
466.227 16.1908 0.309101
244.109 44.4702 0.129351
499.105 29.2518 -0.450746
595.351 21.1756 0.226421
45.4743 15.4952 0.466525
721.597 33.7221 -0.389291
490.821 4.9389 0.343535
16.9331 23.4369 -0.28577
782.231 61.0338 0.268525
503.514 2.54079 0.474706
78.9926 44.8305 0.0997158
530.445 31.236 0.315586
538.438 16.5328 -0.451969
348.868 22.6201 0.207387
542.808 26.0702 -0.315124
355.811 34.0443 0.497095
243.922 14.4892 -0.365537
440.701 37.3303 0.074742
684.085 10.5123 -0.157861
194.872 6.22756 0.371571
56.248 7.01595 -0.122389
69.536 8.84273 -0.263861
696.527 9.55086 -0.521308
23.597 11.6547 0.272627
622.152 47.7351 0.352282
687.361 28.4557 0.372855
174.186 32.7936 -0.310762
760.936 58.7362 -0.126967
35.8383 28.5274 -0.109644
542.404 3.01058 0.332537
143.875 7.37541 -0.490829
604.347 35.1766 0.432916
512.196 28.9058 0.130548
176.618 0.953408 -0.273834
33.0543 2.39211 0.307857
354.028 17.9175 0.267245
633.221 49.3891 -0.137939
470.067 32.7967 0.19673
405.927 1.03243 0.197852
707.962 7.91783 0.35048
26.9905 43.3372 0.235805
260.049 30.6391 -0.312813
727.065 8.56328 0.341332
680.556 52.3259 0.384163
424.526 8.62917 -0.508968
579.3 3.58878 -0.365844
744.961 45.4517 0.428355
132.429 7.67032 -0.275627
506.773 28.104 -0.136457
486.36 14.8428 -0.179156
299.047 16.5687 -0.364641
20.9669 13.7667 -0.267725
780.335 49.4836 0.331782
337.792 38.6407 -0.310435
685.155 25.3853 0.365156
696.951 13.5126 -0.456836
783.648 17.0056 -0.306413
473.443 34.7224 -0.16727
93.7738 38.9024 -0.278765
696.577 46.9342 0.226608
658.765 48.2091 -0.121437
795.742 48.2468 0.109192
783.515 0.756142 -0.546037
295.747 29.65 0.435041
631.825 6.71978 -0.117507
24.5457 5.25679 0.539731
135.139 39.0082 -0.146641
522.057 15.1546 0.208793
773.178 40.5544 -0.539345
198.184 28.7403 0.261248
45.5025 35.0525 -0.275021
502.356 1.25798 0.130709
239.161 8.86587 -0.380664
745.74 68.3747 -0.240232
764.422 46.2335 0.211977
367.504 20.5857 -0.270524
165.99 27.3449 -0.440585
560.092 41.6104 -0.462775
387.3 15.4441 -0.414754
421.751 30.3755 -0.101143
385.235 4.5639 0.400675
558.123 10.958 -0.123757
797.781 11.0612 0.232463
81.5398 39.6751 -0.407858
341.467 5.03295 -0.195236
572.093 9.64278 -0.355729
366.619 45.218 0.443288
26.2866 25.1967 -0.503975
30.7377 5.68006 0.344149
579.088 33.8921 0.462616
515.054 24.801 -0.149153
26.9297 37.2508 0.414991
94.847 31.3562 0.210916
331.25 16.0765 -0.296039
611.889 19.0749 0.133099
485.483 39.0669 0.297028
742.202 7.13005 -0.466182
734.282 6.72489 -0.295517
394.774 36.8259 0.0963823
648.93 26.0901 0.10151
242.468 16.8645 0.550495
336.774 3.91043 0.454123
105.348 31.8485 -0.357706
118.437 24.4714 0.255791
555.348 41.9968 0.0679633
311.931 18.6446 0.530168
715.837 36.1779 0.109051
684.009 52.6949 0.108171
491.945 20.9839 -0.375944
763.143 25.4607 0.320918
437.653 24.6984 0.238979
283.228 24.2047 -0.297715
688.827 40.2157 0.308837
284.819 29.3432 0.385815
589.244 13.299 -0.244506
338.861 35.3335 0.202054
516.049 12.2757 0.517539
374.276 32.3178 0.0878045
440.343 16.8713 -0.103218
325.164 42.8884 0.435386
194.274 30.0923 0.117234
773.318 65.5958 0.118099
795.005 12.9141 -0.34679
6.16741 12.2554 0.429537
444.148 22.4578 -0.422904
39.3484 22.8543 0.0762489
384.836 31.2451 -0.46479
405.338 24.8467 -0.252438
76.3927 11.9273 -0.485859
52.5501 34.8981 0.514031
230.527 13.5749 0.412215
633.424 39.8164 -0.402286
592.104 22.0341 -0.488542
76.5208 21.0477 -0.487884
711.015 57.349 0.406463
767.95 3.89616 -0.502518
674.37 47.1166 0.469177
703.449 2.26669 0.434319
563.809 27.5038 0.410148
601.67 46.2191 0.439615
525.634 18.6614 -0.491645
790.535 3.04271 0.341024
228.716 25.6334 -0.109195
130.719 36.0028 0.193887
252.909 6.72449 0.398732
96.5386 4.50297 -0.249948
65.805 10.0854 0.230047
282.737 36.4018 -0.353682
17.3147 25.2756 -0.353117
569.749 19.2893 -0.506046
621.84 42.6865 0.226565
475.794 21.266 -0.35944
799.62 68.8054 0.352097
417.625 8.64775 -0.128824
447.222 37.1769 -0.288539
550.849 3.50121 -0.200599
23.6315 24.1493 0.375764
591.136 4.47205 0.481533
560.151 4.33879 -0.294985
210.985 11.3753 0.476653
436.479 16.2714 -0.248162
319.378 6.34788 0.34521
398.361 18.8698 -0.357454
737.915 60.08 -0.0277626
197.019 25.4526 -0.422078
773.338 12.0213 -0.457923
740.316 56.9258 -0.332214
393.875 10.3428 -0.157003
724.93 2.25544 -0.572737
620.356 26.9183 -0.432588
748.107 17.9732 -0.466223
442.896 44.1639 -0.273922
510.64 12.8639 0.399159
478.1 44.4898 0.230604
458.295 8.76617 -0.131803
677.975 46.2299 -0.275135
675.989 42.7254 0.291981
196.671 39.2001 0.346008
781.552 17.6269 -0.143399
603.67 46.8864 -0.247791
11.7171 17.0575 0.257982
419.474 25.6926 0.347929
191.923 23.2642 -0.405227
95.4376 39.8784 -0.205606
770.551 40.307 -0.440055
672.772 53.9941 -0.355471
327.442 25.5938 0.362766
547.744 10.2252 0.314193
84.2267 44.661 -0.174422
253.972 25.9118 -0.460856
572.068 24.9258 0.358687
501.653 18.8451 -0.42021
269.626 0.891469 -0.344096
569.634 43.2475 0.373697
548.729 43.9872 -0.48762
496.388 35.1062 0.397352
514.54 1.71674 -0.669296
711.599 19.6173 0.413512
183.777 12.1817 -0.190666
515.628 38.5899 0.459902
580.343 41.2514 -0.108182
75.0617 0.958263 0.269968
258.308 4.77881 0.175376
796.122 16.3116 -0.155291
784.401 18.8861 -0.4414
801.046 15.1759 -0.665942
311.77 8.5707 -0.230808
748.684 29.1404 -0.456448
418.793 43.0253 -0.362515
462.559 0.810725 -0.398349
663.767 45.3334 -0.539025
27.7499 30.8421 0.307827
339.898 41.2538 0.594641
259.176 2.91187 0.340592
785.547 58.2029 0.196443
717.015 50.8163 -0.253076
295.338 10.9939 0.24009
682.654 36.5254 -0.079774
574.073 2.58176 0.244128
557.786 6.55036 0.414241
99.3689 18.5909 0.494801
311.729 1.02916 -0.226097
352.972 2.26071 -0.364982
14.1886 7.67884 0.447592
4.44478 31.5738 0.252697
165.799 19.0878 0.412944
69.8844 42.0742 0.22067
68.0511 29.2371 0.335324
436.366 14.4156 -0.446938
377.659 35.5565 -0.473829
759.357 61.19 0.107512
19.8513 4.01607 -0.26921
72.675 6.91145 0.133385
643.185 39.991 -0.162216
302.93 0.912048 0.365632
375.689 15.9595 -0.130635
241.916 4.69914 -0.373966
665.982 25.4725 0.192763
465.753 8.42135 0.41496
753.141 22.5395 -0.444644
649.561 29.7123 -0.305528
683.707 23.6931 0.100071
432.944 27.1874 0.482098
104.976 45.5967 -0.314
558.907 45.5 -0.0671234
746.431 12.9362 0.297189
244.058 30.6289 0.237561
32.7864 17.4394 0.187987
346.38 13.9197 0.504128
110.716 41.1612 -0.466989
275.46 42.4251 -0.21197
438.711 1.59797 -0.311961
774.428 43.4555 0.393992
696.409 0.766903 -0.545726
341.992 3.46378 0.549883
309.08 27.8141 0.148854
477.044 41.3565 0.235459
83.9822 8.19902 -0.451349
203.143 45.3766 -0.378236
766.533 50.2342 0.339334
510.912 41.3992 0.0748583
205.454 41.2678 -0.264782
165.431 43.1155 0.386767
801.204 40.8617 0.471776
796.374 11.7349 -0.593978
623.689 3.23797 -0.649715
195.4 24.6509 0.0911325
565.374 28.7457 0.104433
567.356 29.4741 0.250135
422.195 5.68793 -0.139678
497.328 0.958278 0.374475
759.258 66.0729 -0.545034
87.1771 31.1599 0.209389
671.08 22.5519 -0.468459
282.463 15.5215 -0.355152
9.66399 2.40871 -0.323666
129.264 37.8254 0.188665
68.4473 23.0952 0.518701
708.199 42.6889 0.290024
789.134 65.7061 -0.253796
190.51 28.626 0.18266
793.042 15.9934 -0.342823
46.6999 37.1661 0.245532
93.6461 29.6585 0.164712
652.494 12.582 0.395736
427.168 17.4387 -0.550037
535.377 16.885 0.1053
244.549 28.6697 -0.180057
638.831 4.54677 -0.40212
800.17 10.6676 0.549522
30.8916 31.9503 -0.267514
278.139 7.70987 0.192759
228.223 15.3219 0.265857
1.06779 36.1713 0.150815
231.551 14.6465 -0.369255
217.7 11.0602 0.122741
220.178 26.3366 -0.285784
136.815 28.5649 -0.128591
564.022 15.4388 -0.368703
171.498 14.3806 0.322479
779.649 60.4039 0.238765
178.647 3.8726 0.501822
48.5161 39.7471 -0.354912
735.271 69.2862 0.425207
289.688 32.3648 -0.392943
693.846 28.411 0.474397
780.652 43.9653 -0.525828
309.784 9.18397 -0.106441
740.709 37.9366 0.357649
338.881 2.55111 -0.401553
429.461 23.8347 0.385171
689.629 22.133 0.746385
108.601 12.035 0.43979
499.313 3.86219 -0.524249
755.01 23.0532 -0.177639
90.9691 7.69103 0.225764
290.342 14.7437 0.208772
437.285 11.7232 -0.216151
788.937 3.89698 0.606927
410.943 1.99606 -0.525922
181.705 39.3303 0.324656
749.429 10.9569 -0.352622
132.564 37.0385 0.178878
271.284 31.4244 -0.377387
413.908 21.9937 0.216151
591.711 15.0816 -0.314635
399.766 9.90018 -0.494679
471.883 27.4518 -0.433494
770.885 68.0477 0.466295
48.9562 11.0197 -0.121547
308.39 39.3342 -0.280973
391.888 26.201 -0.408107
423.322 20.8192 -0.260201
537.008 46.023 0.35627
752.997 67.3613 0.239343
682.547 42.5492 0.397299
232.042 35.1755 -0.329381
14.2288 32.0244 0.164308
674.041 42.8016 -0.143904
526.2 41.739 -0.537278
236.178 39.912 0.108622
697.362 41.4574 -0.0995675
155.124 9.33893 0.238834
378.437 21.0042 0.281344
478.838 42.4225 0.114147
427.237 19.1814 0.175765
768.908 72.3469 0.291052
440.213 3.84388 0.517842
51.273 25.4091 -0.317546
486.263 32.5859 0.34181
449.353 42.1906 0.383023
781.712 54.3334 -0.237336
739.971 36.2243 -0.230106
558.291 19.7949 -0.157204
772.266 58.1816 -0.430497
302.491 2.18979 -0.469092
390.748 28.7515 0.444658
30.1045 39.0629 0.302134
740.527 41.0983 -0.142488
628.068 20.7378 -0.483312
478.809 0.78037 -0.469099
129.721 4.6116 -0.27566
440.834 41.6899 -0.113229
12.0782 0.923833 0.314098
788.824 6.29019 -0.103663
382.07 39.3663 -0.39806
[...]
POINT_DATA 13483
TENSORS Strain_matrix float
-0.0946522 0.114692 0.846804 
-0.216641 0.0999453 1.28807 
0.0101134 0.00570053 0.067395 

-0.0272967 -0.0461257 8.04203 
-0.219155 0.0724306 -1.82965 
-0.000984583 0.00529447 -0.759687 

-0.0337006 0.00797213 -0.124255 
0.0231912 0.0377236 -0.347783 
-0.00143577 0.00106242 0.0925046 

0.00865149 0.0595727 -0.0304929 
-0.0859529 -0.00447998 0.150561 
0.00833529 0.00163598 -0.0281389 

-0.0684585 -0.0531816 -0.0260164 
0.0828513 0.0215312 -0.00361364 
-0.0114796 0.0206753 0.342415 

-0.0223733 -0.00910307 0.46584 
-0.00102009 -0.000192179 0.140841 
-0.000560513 -0.000133949 0.0837914 

-0.0205097 -0.00178907 -0.107659 
-0.0055814 0.0115574 0.199289 
-0.00343687 0.000195995 0.0194995 

-0.0383902 -0.0573804 -0.0356998 
0.108637 0.00574535 0.15589 
0.00016167 -0.00715419 0.0265307 

-0.0742543 0.000757023 0.278301 
0.0632804 0.0289181 -0.177138 
0.0177576 -0.0135512 0.148403 

-0.0307542 -0.00615988 0.0707316 
-0.00849586 0.00358935 -0.192937 
0.0335415 0.0161202 0.178898 

-0.000951911 -0.00813291 0.0460299 
-0.00636754 -0.00228368 -0.00424259 
0.0526252 -0.031661 0.254965 

-0.0097237 -0.00407589 0.00484143 
0.000643577 0.00459894 0.00238064 
0.000535515 0.00041952 -0.000491045 

0.0383636 -0.170821 1.28303 
0.346788 -0.013346 0.627004 
-0.0112459 0.00114431 0.0310211 

-0.0615811 0.0378178 0.0416773 
-0.0137386 0.0076423 0.0211765 
-0.00540637 -0.00500808 0.123238 

-0.0361936 -0.0093936 -1.36287 
0.00901845 0.0191523 -0.0022949 
0.00365622 -0.011247 0.341066 

-0.030263 -0.0257063 0.18589 
0.0491594 0.0195262 -0.129577 
0.0208455 -0.00950122 0.0957584 

-0.00664942 0.000149509 -0.0126857 
-0.0139919 -0.00739163 -0.0172374 
-9.97042e-05 0.000140162 0.0196588 

-0.0113753 -0.000435326 0.00539809 
0.000450031 -0.00299716 -0.00878161 
0.000290288 0.00071009 0.0212739 

-0.0102794 -0.0222164 0.005405 
0.0271558 0.0138562 0.0251333 
0.00348752 -0.00120771 -0.0210322 

-0.0249416 0.026283 -0.0318422 
-0.0536458 0.0158926 0.240129 
-0.0144196 0.0154467 -0.0856967 

6.0007e-05 -0.0145436 0.316014 
0.0180653 0.0564907 -0.410866 
-0.011006 0.0223996 0.208012 

-0.0307812 -0.0855154 0.0744137 
0.0605844 0.0168155 -0.0374283 
0.000583413 -0.00366244 0.0536317 

-0.0154992 -0.312158 2.63109 
0.00349474 -0.00863084 0.192187 
-0.00560775 0.00739608 -0.108726 

0.124675 0.275603 0.108002 
-0.377742 0.0765184 0.0356906 
0.0613909 -0.0289353 0.0480678 

-0.0133259 0.0100299 -0.0128486 
-0.0186736 0.00335104 0.100784 
-0.0010168 -0.000341965 0.00392224 

-0.0354873 0.0175368 0.0255316 
-0.00939057 0.0152557 -0.0241938 
-0.0141895 0.00152666 -0.0170418 

-0.0167739 -0.064201 -0.239007 
0.0298139 0.000397476 1.06086 
-0.00804217 0.000986387 -0.0366663 

-0.0361114 0.130112 0.0257347 
0.00475333 -0.0197355 -0.157101 
0.00109343 -0.00625152 0.000198304 

-0.0144928 0.00766511 0.0188661 
-0.0038411 0.000451125 -0.0197748 
8.0726e-05 0.000417917 0.0271259 

0.114207 -0.302323 -1.28898 
0.157733 -0.0342776 -0.799221 
0.000405348 0.0268738 0.0888557 

0.00445644 0.00105388 -0.121399 
-0.012079 0.00160932 0.0401863 
-0.00860355 0.00258541 0.0389019 

-0.008199 0.0246958 -0.0488786 
-0.00707821 -0.00299553 -0.0107714 
0.000880804 0.000524722 0.0230485 

0.026802 0.188176 -0.250666 
-0.191875 0.00740134 -0.00210156 
0.00622496 0.0148003 -0.0325717 

-0.0118705 0.0190883 0.101864 
-0.0333925 0.0162444 0.0204658 
-0.00604788 -0.0229884 0.165881 

-0.0349408 0.021254 -0.0400067 
0.011433 0.0108639 -0.0270114 
-0.00895479 -0.0124833 0.0636389 

0.0177855 0.0459324 -0.228696 
-0.0198512 -0.0240089 -0.0390157 
-0.0021602 0.00771984 0.146552 

-0.0473092 0.0529611 -0.653236 
-0.00998405 0.00659361 -0.741452 
0.0195848 -0.00598719 -0.145809 

0.00604634 0.0198366 0.0329191 
0.0295887 0.0097778 0.0479063 
-0.00183181 0.0015801 0.00799649 

-0.000990831 0.108609 0.178719 
0.00853783 0.0256681 -0.025859 
-0.00391756 -0.00288176 0.0518812 

-0.0172216 -0.00611461 -0.320648 
0.00784901 0.00934565 -0.515429 
0.000532008 0.000383646 0.0388774 

-0.0111394 -0.014232 0.029429 
0.00891424 0.00463812 0.0190178 
0.000638617 0.000156566 0.00521389 

-0.00680899 0.0705044 0.0443869 
-0.082879 0.00276225 0.0012163 
0.00575375 0.00471714 0.0493675 

-0.0718663 0.109212 -0.0132422 
-0.0321925 0.142968 0.182759 
0.0485451 0.0522474 0.437581 

-0.0106961 0.0069663 -0.022644 
-0.00335545 0.0036882 0.0218318 
0.00179099 -0.000108567 0.0157027 

-0.0144306 0.00892157 -0.0513128 
0.000683622 0.0126851 -0.00245832 
0.000786451 -0.000675964 -0.0127189 

-0.0114747 -0.00747661 -0.00677238 
0.0035141 0.00436196 -0.0127776 
0.000151566 0.000316154 0.00708489 

-0.078831 -0.091029 -0.241672 
-0.162132 0.135327 -0.215039 
0.032473 -0.0334611 0.240775 

-0.0143124 -0.000749458 -0.000989987 
-0.00615777 0.0116265 0.000938537 
-0.00217589 -0.0015447 0.00369725 

0.00804224 0.0560476 0.0526087 
-0.0776757 -0.00585309 0.0414364 
-0.00546986 -0.00532168 -0.00784565 

-0.0065919 -0.0489423 -0.00420997 
0.0335312 -0.0225921 -0.123448 
-0.00413229 -0.00215325 0.140293 

0.000820079 0.00972148 -0.00500147 
-0.0287234 -0.0026017 -0.0300657 
-0.000137947 -0.000233105 0.0101553 

-0.303296 -0.733011 -2.40823 
-0.0279995 0.199083 1.302 
0.00557119 -0.00986562 0.0464383 

0.00578506 0.00636343 0.0554064 
0.0191701 -0.0160956 0.10196 
-0.000223846 -0.00162331 0.0121475 

-0.0186029 0.00865103 0.0207005 
0.00526858 0.00212972 -0.00607302 
0.00099864 0.00188057 0.034884 

-0.0030312 0.0309286 0.143686 
0.00852946 0.00861252 0.213783 
-0.0935095 -0.0307272 0.104809 

-0.0480966 -0.0013808 -2.89962 
0.0514243 0.015202 0.5039 
-0.00188702 0.00374444 0.288237 

-0.00285693 -0.00396338 -0.248339 
0.0535727 -0.0387391 -0.450152 
0.00839739 -0.0128368 0.0233906 

-0.0139131 0.0220889 0.00655066 
0.00159857 0.00744063 0.00213565 
0.00067791 0.00702962 0.0181504 

-0.00606608 -0.00589605 0.014829 
-0.00589235 0.00592627 -0.00464447 
0.000638539 -0.000910509 0.00820704 

-0.00962986 0.011796 0.0034695 
-0.012924 0.0263684 0.00534036 
0.00406286 -0.0019009 -0.0481803 

-0.19643 -0.135258 3.71556 
0.123445 0.381017 0.779081 
-0.0102663 0.0140801 0.651629 

-0.00675923 -0.0382962 -0.328407 
0.0573386 0.0110268 -0.0386233 
0.00109426 7.68802e-05 0.00818566 

-0.00979296 0.00193934 -0.0147354 
-0.00573789 0.00321562 -0.0119299 
0.000620778 -0.000495261 0.0182188 

-0.0219856 -0.0291538 0.0275954 
0.0200591 -0.0121221 -0.0467863 
0.00089255 -0.007118 0.0677103 

-0.0451121 -0.0144318 0.0581167 
0.00643086 0.0299633 0.0556427 
0.00340496 -0.0200341 0.0848522 

0.00980117 0.0103817 0.00270509 
-0.00845253 -0.00959346 -0.00639081 
-0.000289955 0.000160345 -0.00517205 

-0.0390124 -0.00057232 -0.0322505 
-0.0285435 0.00271936 0.0313074 
-0.0107676 -0.00714354 0.0742991 

0.0448974 -0.117007 0.466557 
0.102217 0.00525324 -0.0229852 
-0.00360446 -0.00353489 -0.0301569 

-0.0164527 -0.00509159 -0.302824 
-0.00011737 0.000861898 -0.407318 
0.000299966 0.000213864 0.00890342 

-0.0981461 0.096325 0.120897 
-0.174836 0.00673466 -0.287235 
-0.0373506 -0.0417373 0.581747 

-0.306788 0.708306 5.3893 
-0.0494765 0.366846 -4.95466 
-0.0119667 0.00324587 0.105916 

-0.0214897 0.0297038 -0.00159984 
-0.0258536 0.0121389 0.000421946 
-0.0163622 -0.0137592 -0.0108793 

-0.0200588 0.0717382 0.0612671 
-0.00493814 0.0264277 0.0413395 
0.0133008 -0.0163616 0.0397352 

-0.00539886 -0.0314359 0.326521 
0.041996 -0.0177951 -0.22177 
-0.0103667 0.0034328 0.179856 

-0.00881674 0.00121049 0.049635 
-0.00528594 0.0027163 0.0487805 
-0.0191918 0.0174698 -0.249409 

-0.0286484 0.0156891 -0.0156656 
0.00732072 0.018857 -0.00964019 
0.026671 0.0325637 0.124332 

-0.149965 -0.00700584 0.455352 
-0.376902 0.106155 0.0792593 
-0.00876791 0.00123426 0.206802 

-0.0050925 -0.000561437 -0.00668744 
-0.00711444 -0.00110565 0.0164793 
-0.000737265 -0.000284137 0.0227616 

0.0388325 -0.0456149 -0.0770376 
-0.0371419 -0.0211311 -0.0503092 
0.00254443 -0.000294135 0.0428713 

-0.253548 0.179889 0.032472 
-0.182336 0.162258 -0.634294 
-0.00807075 -0.00455776 0.239426 

-0.00585008 -1.89027e-05 0.333942 
-0.104848 -0.0322338 -0.170881 
0.000578567 0.00288824 0.0522758 

-0.00341597 -0.0537376 0.000288764 
0.0506768 0.000711217 0.00883352 
0.000266227 -0.00020795 0.0263059 

-0.00749625 -0.00577843 0.00212645 
0.0093969 0.00244289 -0.0110653 
-0.00178036 -1.11698e-05 0.0366795 

-0.265797 0.047334 -0.329896 
0.00633052 0.118758 0.366799 
-0.0119367 0.00340463 0.566711 

-0.176466 -0.155084 0.109991 
0.0356608 0.17305 0.465469 
-0.0166761 -0.00440088 0.478006 

-0.0291253 -0.0564925 0.154329 
0.129529 0.0815567 0.0140499 
-0.000982086 0.00139391 -0.0598716 

-1.0935 -4.27742 0.895453 
0.0463514 0.358452 0.333081 
0.00834827 -0.095578 -0.0791782 

0.00310405 -0.0147016 0.041495 
-0.00498396 -0.0036324 0.00602508 
-0.00159377 0.00171418 0.00788866 

-0.154625 -0.018413 -0.00504269 
0.130875 0.103177 0.0636303 
-0.0034864 -0.00585086 0.0780638 

-0.0201198 0.147442 -16.9838 
0.00124602 0.0280339 2.9895 
-0.00614499 -0.00860729 0.958398 

-0.0259903 -0.0509319 0.0273407 
-0.0188961 -0.0232357 0.0133013 
-0.000678067 -0.0132464 0.0176847 

-0.118558 0.11618 0.0876752 
-0.0190195 0.096255 0.134199 
-0.00948421 -0.0468639 -0.0503162 

-0.113262 -0.250601 1.16067 
0.0134895 0.0793256 0.899263 
0.00269315 0.00299921 0.202095 

-0.0092372 0.00685442 -0.00546453 
-0.00537089 -0.000632268 0.0240836 
-0.000164213 -8.77459e-05 0.0101146 

0.0043814 -0.0495556 0.363165 
0.0362402 0.037136 -0.455479 
0.0227116 -0.0183817 -0.0168672 

-0.0174251 -0.0162403 0.0727422 
0.0118985 0.0166871 0.0384239 
-0.0227611 -0.201387 0.402637 

-0.0114732 -0.00781873 -0.00756486 
-0.000704648 0.00298601 -0.00289104 
-0.000948248 -7.28068e-05 0.00217086 

0.0515169 -0.0988216 -0.133862 
0.0888249 -0.00350266 0.0512513 
-0.0251072 -0.011774 0.142729 

-0.294846 -0.102402 -0.732506 
-0.195113 0.206472 0.391785 
0.00187567 -0.00379778 -0.0492391 

-0.000237184 -0.0581749 0.00700263 
0.0470019 -0.00361467 0.0777507 
0.000604575 0.000534733 0.0238357 

-0.00786807 -0.00694352 -0.684464 
-0.0180901 0.0138695 -0.26834 
-0.000595878 5.62588e-05 0.129416 

0.00230122 0.0203518 1.11409 
0.0103318 0.0157586 -0.373544 
-0.000998983 -0.00343093 0.0277261 

-0.00786923 -0.00779855 0.0769493 
0.00649109 0.00743136 -0.150112 
-0.000426926 0.00466152 -0.0230474 

0.0061828 -0.00570978 -0.191016 
0.0246778 0.011382 0.161206 
0.0181786 0.01766 0.0862207 

-0.0135465 -0.00694774 0.0725056 
-0.00764409 0.0126738 0.0255025 
0.00111382 -6.61292e-06 0.0112939 

-0.0741334 0.121873 -0.113158 
-0.1824 0.0197081 -0.119737 
-0.00108358 -0.0405217 0.228866 

-0.0468906 0.0203203 0.0074348 
0.0308681 -0.0342249 -0.0490729 
0.0362996 0.0199237 0.0319268 

-0.0333521 0.00223787 0.361848 
-0.0102686 0.0197071 -0.164273 
-0.00105481 -0.00951757 -0.564571 

-0.0124003 0.0129853 0.0186238 
0.0203494 -0.000350229 -0.0407759 
-0.00305292 0.00456522 0.0594964 

-0.0198977 -0.0106769 -0.157483 
0.00793857 0.0207454 -0.489293 
0.00393414 -0.000731693 0.0501819 

-0.00941057 0.00362315 -0.192513 
-0.00690774 -0.0248919 -0.667302 
-0.00105451 -0.0187491 -0.307741 

-0.0129646 0.000548728 0.32757 
0.00507446 0.00768245 0.00181472 
-0.000453831 -0.00102172 0.133359 

-0.00284738 0.0104203 -0.0120879 
-0.00860066 0.00242127 0.00410231 
-0.000287295 -0.000142137 0.00302706 

-0.0519382 0.0401499 1.02527 
-0.0860813 0.0203675 -0.968956 
0.000682827 0.000307358 0.134778 

0.0206747 0.122508 0.00213415 
-0.228073 0.00311461 -0.330045 
-0.00814847 0.0066557 0.0393922 

-0.012257 -0.013135 -0.144351 
0.0160097 -0.00221276 0.171698 
-0.00133677 0.000482737 0.0307308 

-0.00941282 -0.00630956 -0.0148518 
0.0284896 0.00750958 0.0336143 
-0.000247278 0.000909532 0.00847976 

-0.0105008 0.00522036 0.000271928 
0.00541206 0.00344733 0.0204771 
-0.00625049 -0.00369388 0.0317468 

-0.139022 -0.00964973 0.265965 
0.119851 0.0675926 0.163967 
-0.0335364 -0.058578 0.224038 

-0.0111378 -0.0436191 -0.0986725 
0.0696019 0.00218737 0.0963726 
0.00443786 -0.00235121 0.0831074 

-0.00645303 0.0129839 -0.0341601 
-0.0150702 -0.0494774 -0.167943 
-0.00808155 -0.00279755 0.0571965 

-0.022795 0.0148009 -0.0404954 
-0.0172394 -0.00423288 0.0172018 
0.00118147 -0.000168001 0.0355082 

-0.00673742 -0.00786423 -0.000969612 
0.00892626 0.00425545 0.0201924 
0.000332327 0.000876276 0.0107115 

-0.0284449 0.166467 0.361203 
-0.259805 0.0869998 -0.134766 
0.00443039 0.000254081 -0.0357231 

-0.0140684 0.00138075 0.709987 
-0.000475209 0.0100727 1.67914 
-0.000631301 0.000206854 0.66629 

-0.0244053 -0.0213681 -0.0871282 
0.00185107 0.0359456 0.000266345 
0.0286743 -0.0932434 0.245254 

-0.0077737 -0.00676545 0.0251885 
-0.00249202 0.0135421 0.101128 
0.000531992 0.000470311 0.0168739 

-0.0258561 0.0257043 -0.0432833 
0.021437 0.040925 -0.0651132 
0.000915518 -7.83617e-05 0.0105925 

-0.000329341 0.0515538 0.0618429 
-0.0408984 0.00402419 0.0379049 
-0.000413188 0.0042644 0.0287594 

-0.017551 0.00175404 -0.474426 
0.00666396 0.00710533 -0.119234 
-0.000321427 8.57831e-05 -0.034488 

-0.00261724 -0.244784 -0.102447 
0.14007 -0.0292198 -0.125453 
-0.043392 -0.033928 0.505096 

0.0323822 -0.151307 0.0265677 
0.257813 0.0389399 -0.0794384 
0.0060699 0.00747977 -0.0616568 

-0.0458429 0.043984 -0.768821 
-0.0280164 0.0447945 -0.242788 
-0.00839291 0.0245627 0.393162 

0.107034 -0.0221195 0.0840451 
0.0281679 -0.0558669 -0.070045 
-0.0144259 -0.00151275 -0.0876719 

-0.0416783 0.0396633 0.046196 
-0.0879965 0.0422553 0.119233 
0.00085097 -0.00286745 0.018246 

-0.0439189 -0.00484351 -0.0250532 
-0.0248003 0.0301262 -0.0015846 
-0.000927426 0.000448983 0.0191936 

-0.378428 0.558174 2.10669 
-0.338615 0.456546 -1.22181 
-0.0332304 -0.0114396 0.143963 

-0.0178703 0.0154155 0.127046 
-0.00206846 0.0157687 0.0827189 
0.000980258 0.00200175 0.066155 

-0.0386235 0.101925 0.0686416 
-0.0198424 0.0250475 -0.0695825 
0.0317564 -0.0453125 0.197788 

-0.00298991 -0.00074784 0.0134661 
-0.00560871 -0.00324873 0.0381443 
-0.000229947 -0.00108445 0.00837812 

-0.0442113 0.0252382 0.411491 
-0.00399027 0.0139863 0.738549 
0.000452455 -0.00258829 0.368184 

-0.0426137 -0.0137882 -0.155675 
-0.0571581 0.0239301 -0.0520824 
0.000375306 0.000128934 0.0406979 

-0.0333292 -0.0692071 -0.0403082 
0.0730342 0.0109234 0.0420201 
0.0431247 0.0430832 0.43452 

-0.00465149 0.00235877 -0.0866339 
-0.00665933 -0.00346322 -0.108086 
4.30541e-05 -0.000883639 0.0125688 

-0.0105847 0.0156039 0.00368081 
-0.0169553 0.010353 -0.0168211 
0.000301502 -0.000185347 0.00681207 

0.0854815 0.284459 -0.0436672 
-0.307896 0.0404756 -0.0858217 
0.0007445 -0.00263604 -0.0854599 

-0.161578 0.388333 -0.302339 
-0.298147 0.287312 -0.831042 
0.0566388 -0.00746373 0.106081 

-0.0148031 -0.00191967 -0.404166 
0.000479846 0.00247421 -0.243433 
-0.000363462 -0.00088802 0.0506976 

0.00321228 -0.030658 -0.10279 
0.0215435 0.00331624 0.0781028 
0.00188604 0.00163284 0.0484822 

-0.0279165 0.043603 0.137121 
-0.0508944 0.0337283 0.0325814 
0.00207067 0.000544839 0.0373841 

0.00875039 0.0100151 0.104733 
-0.0140964 7.17271e-05 -0.235379 
0.000473244 -0.000254677 0.0118002 

-0.0311123 0.0304484 0.177924 
0.0285845 0.0373208 -0.27555 
-0.000450078 -0.00261325 -0.00167585 

-0.0153906 -0.00849143 0.129781 
0.00724087 0.00211128 -0.0662388 
0.00656406 -0.00323777 -0.10894 

-0.0426292 0.0045119 1.67489 
-0.0175104 0.0405666 1.97933 
0.00140589 0.00705635 0.37077 

-0.0371323 0.00328533 0.312377 
-0.0021162 0.0337311 -0.11947 
-0.00153503 -0.000896985 -0.0157465 

-0.0785977 0.0168002 -0.434736 
-0.0840881 0.174628 -0.412142 
-0.0861986 -0.105655 0.669413 

-0.00455112 0.0443503 0.0118379 
-0.0186819 -0.0038853 -0.148717 
0.00141388 0.00205911 0.0687793 

-0.0208292 -0.0361404 -0.0606873 
-0.00637085 0.018855 0.140589 
0.000438102 -0.000193083 0.150138 

-0.498478 0.179771 -19.0159 
-0.34897 0.498554 10.2118 
0.00720643 -0.0422714 -0.647226 

-0.162255 -0.180265 -0.180676 
0.0423989 0.153858 0.159387 
0.0412133 -0.0216755 0.168632 

-0.100201 -0.0349306 0.194485 
-0.104938 0.0663986 1.87603 
0.00270371 -0.0159019 0.193827 

-0.0254301 -0.0345296 -0.028346 
0.0109038 -0.0130837 -0.0189695 
0.00242695 -0.0114918 0.145155 

-0.0816738 0.152476 -0.410533 
0.115946 0.0703105 -1.60533 
-0.00557045 -0.00651419 0.0690997 

-0.0328313 0.0223854 0.926725 
0.0552966 0.0810022 1.13468 
3.12112e-05 -0.00132526 0.0518058 

-0.0275005 0.0429248 -0.940198 
-0.0330665 0.0140884 2.23008 
-0.0191967 0.0080878 -0.39783 

0.000407107 -0.0379338 -0.107149 
-0.0676937 0.0169817 -0.0561538 
0.0146596 0.0020322 -0.00294544 

-0.0648204 0.0816642 -0.0523467 
-0.0503204 0.0486078 -0.145492 
-0.00150203 0.00127238 0.00122577 

-0.0147306 -0.00337708 0.030192 
0.0153469 0.00435261 -0.0102298 
4.8845e-06 0.00101547 0.0047489 

-0.0152076 0.000496374 0.016797 
0.00484548 0.00618164 -0.00997456 
8.29889e-05 0.000302786 0.00245371 

-0.0309839 -0.0178713 0.0189988 
0.00492282 0.0192708 0.0259171 
-0.000148276 -0.000506019 0.0458016 

-0.0200452 -0.000807787 0.0164335 
0.00258196 0.00474709 0.0217772 
-0.0015344 0.0017711 0.00798221 

-0.00916534 -0.0122602 0.114013 
0.0154926 0.00505534 0.0782965 
0.00724286 -0.0071168 0.153593 

-0.0153754 0.00270674 0.0487102 
-0.00747894 0.0140155 0.00836954 
-0.000509314 0.000640222 0.021869 

-0.0634042 -0.0358838 0.321486 
-0.0239664 0.0524835 -0.626663 
-0.000783948 0.0057849 0.128155 

0.0099578 0.0012474 0.0659502 
-0.0449704 -0.0103108 -0.000701117 
-0.0826489 0.0708707 0.342378 

-0.00147506 0.0192736 -0.0168856 
-0.0105814 0.00505932 0.0105469 
0.00056315 0.00122965 -0.00897295 

0.00146139 -0.0540891 0.0952666 
0.10718 0.00797196 -0.192883 
-0.00686358 0.0166961 -0.0743275 

-0.0298113 -0.00543725 0.0500528 
-0.00761643 0.0082781 -0.00174449 
-0.030413 0.0351596 0.242165 

0.000155215 0.0531912 -0.082122 
-0.0685875 0.000695961 0.0316464 
0.000280972 -0.000867783 0.0187329 

-0.0904984 -0.0696741 -0.0385043 
0.0309866 0.0276728 -0.120925 
0.00858716 0.0167588 0.0395315 

-0.00493803 0.00122303 -0.102937 
0.00212878 0.0012059 0.015601 
-0.000310115 8.84635e-05 0.00725288 

-0.0782118 0.00248294 0.198181 
0.00292336 0.0888258 -0.11166 
-0.0202534 0.00949015 -0.125375 

-0.0348747 -0.0518335 -0.104807 
-0.00319376 0.0114995 0.0494883 
0.00171438 0.00768775 0.183558 

-0.0146487 0.0077124 0.00310794 
-0.00642845 0.00415568 -0.406329 
-0.000798813 0.0117876 0.191385 

-0.0274096 0.0147283 0.0423864 
-0.0371825 0.0181915 -0.208493 
-0.0463312 0.0241895 0.0648592 

-0.0108761 -0.00922557 -0.00527988 
0.00564906 0.00335725 -0.0119259 
0.000906968 -0.000196197 0.0113724 

-0.00573951 0.0185148 0.0884165 
-0.0271733 -0.0170703 -0.00894608 
-0.000579913 0.000281136 -0.000723167 

0.15595 -0.477311 0.00573072 
0.523375 0.158924 -0.0136189 
0.00318755 -0.00132115 -0.0631174 

-0.00746048 0.00778521 -0.0089964 
-0.012194 -0.00285778 -0.0419872 
2.19062e-05 0.000107058 0.00360538 

-0.820709 -0.631558 -5.18024 
0.484625 0.641341 3.02356 
0.0256708 0.0272656 -0.211951 

0.145419 -0.53318 -0.0388471 
0.523083 0.160987 -0.0621692 
-0.00583804 -0.0121289 0.0622495 

-0.0209178 -0.0101371 0.0363312 
0.0333292 0.00678115 -0.0119605 
0.0028958 -0.0224748 0.118593 

-0.065601 -0.00830211 -0.0223989 
-0.001009 -0.000790066 0.326179 
0.00540442 0.00837311 0.0129337 

-0.110581 0.148294 0.665728 
-0.0536891 0.108783 0.236647 
0.0016014 0.00149459 0.221428 

-0.000696174 0.0101398 -0.109244 
-0.0155655 -0.0812966 -0.0782036 
-0.0483633 0.0268062 0.205148 

-0.0119283 0.0612577 0.105164 
-0.0864572 0.00227216 -0.00413081 
3.54348e-05 0.000599986 0.0844107 

0.0246684 -0.0220571 0.0395846 
0.0550335 0.00397437 0.0222436 
-0.00317193 -0.0141971 -0.0494017 

-0.0222856 -0.0532183 -0.00678954 
0.0655972 0.00151605 0.0257796 
-0.00145921 -0.0017046 0.0369963 

-0.0128456 0.0082197 0.00326498 
-0.00820707 0.0169715 0.00914019 
-2.41601e-05 0.000605003 0.00556378 

0.00454577 -0.140116 -0.0536811 
0.120216 -0.00870736 0.0122111 
0.0212353 -0.025579 0.440778 

0.0248246 -0.070082 0.104215 