# vtk DataFile Version 3.0
Output file generated by Yade's KinematicLocalisationAnalyser
ASCII
DATASET UNSTRUCTURED_GRID

POINTS 13483 float
551.547 32.8267 0.538263
641.688 77.808 0.52942
115.592 6.08266 0.494836
676.609 4.13542 0.302232
476.003 7.88812 0.377862
303.073 36.5495 -0.479206
150.042 7.42223 0.461157
521.588 11.4856 0.148464
473.263 28.9736 0.146272
620.928 15.1322 0.721574
202.222 8.9934 -0.0976147
247.104 6.28737 -0.253293
585.903 69.9373 -0.16539
571.242 19.4672 0.0691709
131.761 18.5091 0.564056
211.661 36.7273 0.400449
209.315 13.1855 -0.294336
278.507 9.97708 0.41105
328.834 33.5309 -0.504806
494.106 13.2691 -0.446811
396.367 37.7002 0.0968905
540.018 54.3019 -0.272828
667.97 58.9957 -0.442144
602.355 68.3337 -0.471679
442.259 16.2154 -0.37786
231.84 45.753 -0.125671
472.386 33.8144 -0.140381
535.819 23.7464 0.353412
42.7936 16.2906 0.378699
627.614 70.6534 0.3558
462.034 5.80426 0.437112
15.7835 24.8966 0.36265
655.784 81.857 -0.265982
472.24 2.53773 0.47363
75.271 45.599 0.11288
500.721 49.5995 -0.320136
496.519 26.7042 0.506302
331.238 22.6881 -0.2011
502.603 45.2484 -0.322547
337.665 34.1668 -0.437198
231.583 15.0019 -0.365909
418.883 36.5079 0.111722
597.697 24.9614 -0.172345
184.805 6.21617 0.388732
52.5504 7.38262 0.0774651
65.3254 8.95246 0.295256
594.762 8.27828 0.678254
21.7284 11.9352 0.265289
546.785 53.3012 -0.461218
596.035 48.4716 -0.334355
166.414 33.0587 0.318276
645.13 64.4669 -0.133499
33.0429 29.2015 0.126257
500.686 2.63968 0.516764
136.758 7.71995 -0.507996
539.887 38.657 0.639966
487.071 38.2408 0.12804
167.84 0.945738 -0.278797
30.9662 2.45324 0.29033
336.563 18.0043 0.249395
552.271 58.081 -0.238383
443.82 38.0617 0.178425
384.832 1.02101 0.206711
605.529 9.62562 -0.625956
25.5301 44.8855 0.235786
246.626 31.185 -0.331593
620.998 8.75462 0.500008
601.133 91.6002 -0.343943
402.57 9.24807 -0.658103
523.38 4.50987 -0.509651
632.799 42.6206 -0.521676
126.08 7.75646 -0.334321
479.332 34.9522 -0.130391
458.686 17.9774 -0.144872
284.662 17.09 -0.337639
19.3408 14.1754 0.255721
665.359 75.6077 -0.426818
321.662 40.2369 -0.298515
592.94 45.2298 0.373276
599.587 24.059 -0.272198
664.65 26.5893 0.283277
447.155 38.867 -0.181012
89.2041 39.2617 -0.292062
591.39 60.7415 0.21994
577.854 76.9406 0.108056
673.551 66.3437 0.12964
667.36 0.704305 -0.702775
280.977 29.1092 0.442521
567.582 6.26493 -0.154772
22.9287 5.53216 0.631433
128.228 41.0097 -0.188942
486.504 19.9927 -0.195047
657.251 53.9101 0.523837
189.656 28.8306 0.250683
42.7468 35.2393 -0.305443
471.135 1.23024 0.141886
227.53 8.67249 -0.431354
628.808 54.0306 -0.265257
643.506 48.2419 0.242471
349.052 22.0999 -0.276683
158.099 27.7234 -0.470086
528.36 66.9016 -0.405835
367.358 16.6741 -0.51014
399.552 30.2577 0.118349
365.588 5.28973 0.420481
506.763 17.9656 0.139623
675.743 20.3718 -0.28245
77.1615 40.3489 0.392186
324.344 4.97368 -0.22309
516.848 10.121 -0.366861
348.265 45.5716 0.462963
24.1127 26.3591 -0.448495
28.7624 5.9174 0.292892
518.845 41.8085 0.424816
478.557 29.8734 0.138839
25.1922 38.9305 -0.429119
89.9932 31.6625 0.218648
315.052 16.6569 -0.279648
550.228 18.8283 -0.131855
457.683 42.8579 0.357863
635.775 9.09841 -0.513084
629.183 7.69664 0.26075
375.705 39.9047 0.146252
569.718 47.021 0.104584
230.278 17.8072 0.477786
319.82 3.93046 0.4569
100.402 32.0154 0.408167
112.483 23.9766 -0.395901
522.502 67.595 -0.0695926
296.946 18.6639 0.592488
622.25 70.3294 0.112331
606.49 90.4245 -0.0638489
462.615 25.6437 -0.439418
654.859 35.6489 0.331268
415.742 23.6906 -0.283132
268.51 24.7569 0.310704
588.231 68.2129 -0.292194
270.985 29.2719 0.421915
530.037 16.1221 -0.217912
322.684 36.8985 0.205114
482.491 14.2456 0.570448
356.357 32.9336 -0.126384
417.512 17.0274 0.133188
309.012 43.6783 -0.438333
185.91 30.1669 -0.140579
646.697 78.5077 0.140824
673.815 21.0538 -0.325781
5.97065 13.3094 0.441648
421.661 22.6754 -0.43831
36.5301 23.5094 0.0931612
366.481 32.7397 0.387804
382.855 25.0301 -0.271113
72.3406 12.104 -0.538457
50.1082 34.0582 -0.482559
219.467 13.8913 0.419123
558.013 54.535 -0.425724
533.178 25.1355 -0.483897
72.1194 21.1331 -0.510979
603.52 72.6336 0.422503
660.165 2.29834 -0.639624
594.239 85.4727 -0.493355
601.664 2.24823 -0.617635
509.513 38.5914 0.390993
541.413 53.2745 -0.459691
488.831 24.7123 -0.508139
676.39 7.38468 -0.317983
217.574 25.2199 0.120918
123.68 38.2017 -0.204883
240.106 6.80347 0.404211
91.5011 4.50422 -0.283687
61.6446 10.1616 -0.265943
268.486 37.0931 0.321974
16.581 26.4638 -0.335917
516.925 25.8298 -0.57089
550.527 46.4844 0.232507
447.948 23.7256 -0.372117
672.269 88.2872 -0.365992
395.905 8.82853 -0.11818
425.115 37.9388 -0.401371
507.92 4.71264 0.207884
21.9209 24.1651 -0.431335
532.697 5.64471 0.396675
510.751 11.0752 0.411038
200.601 11.4424 0.520715
413.921 16.7194 -0.221773
304.181 6.36296 0.377944
378.277 19.0752 -0.385094
620.352 47.5019 0.105091
187.845 25.9765 0.415475
660.616 23.1073 0.454548
622.018 42.4155 -0.476571
373.304 10.4907 0.19871
619.436 2.55211 0.481777
552.22 31.7424 -0.490195
642.099 17.8324 -0.405894
419.493 45.8003 0.267162
477.377 14.5495 0.461751
451.23 49.3881 0.236208
434.424 8.48211 0.152197
598.006 86.0072 0.269724
597.172 81.4133 0.154188
187.177 39.4737 0.4044
662.962 29.8858 0.145741
541.86 61.6574 -0.271996
11.287 18.068 0.265516
396.76 26.0302 0.363367
182.817 23.3168 -0.416649
90.8588 40.065 0.220962
654.867 51.4735 0.425473
589.735 88.6027 0.223336
311.524 26.7985 0.334007
503.033 19.0653 0.601405
80.2932 45.5191 0.179788
240.779 26.6778 -0.480332
520.5 31.3075 0.41988
471.293 23.7879 0.446887
256.48 0.881266 -0.345875
538.796 67.8033 -0.181243
514.128 68.9536 -0.434063
469.823 39.6906 0.396588
482.784 2.4558 -0.651971
608.418 22.5464 -0.489609
174.546 12.7051 -0.197134
486.106 49.5772 -0.461853
521.086 51.0118 -0.119909
70.6964 0.972307 -0.28152
245.395 4.71997 0.18708
672.078 26.1922 0.19533
665.183 28.1574 -0.663885
676.708 25.785 -0.590596
296.822 8.51061 -0.238182
640.727 28.2244 -0.453944
397.978 42.4428 -0.364048
438.722 0.779791 -0.465007
585.019 76.8181 0.402827
25.7098 32.4655 -0.303177
323.764 42.4159 0.660325
246.249 2.86151 0.3672
659.224 79.248 -0.227986
620.913 83.7004 0.224494
280.935 11.4185 0.26303
583.811 62.8261 0.0857996
519.257 2.49299 -0.321133
508.363 13.8779 0.416665
94.1157 18.7628 0.475218
296.657 1.03005 -0.228543
335.42 2.25279 -0.371452
13.2991 7.84791 0.572963
4.3387 32.3065 -0.313683
157.361 19.7376 -0.402172
66.2172 43.3087 -0.26296
64.6479 30.0801 0.337244
413.533 14.8516 -0.457595
359.196 36.5336 0.489296
641.643 64.8364 0.187822
18.516 3.94554 -0.290292
68.4226 6.99593 -0.139899
563.205 62.7236 0.134064
288.058 0.942546 0.385266
356.731 17.0484 -0.11061
229.758 4.64369 0.368274
576.44 45.2 -0.180816
441.655 8.37317 0.450108
644.332 25.3334 -0.429574
573.741 60.8428 -0.352085
592.441 43.3911 -0.221465
411.198 27.5079 0.544729
99.6264 46.15 -0.318235
527.17 70.7433 0.0558823
640.148 12.4942 0.28184
231.35 31.7652 -0.258921
30.749 17.8728 -0.202348
328.871 13.9072 0.50664
104.773 41.7362 0.511073
261.52 42.7563 -0.219545
416.24 2.21586 -0.238011
663.441 70.1798 0.425015
597.448 2.52435 0.620144
324.817 3.44195 0.583546
293.61 27.1947 0.164618
450.457 46.0499 0.209848
79.4235 8.29758 -0.486992
192.505 46.6621 0.395046
650.244 56.3827 0.395038
481.045 49.1702 -0.085998
195.057 42.6314 -0.300406
157.452 43.486 0.390438
675.151 61.6606 -0.376949
674.676 22.6615 -0.547941
559.793 3.13989 -0.650305
186.487 24.7798 -0.112585
506.013 42.7821 0.117261
508.563 40.8113 0.368784
400.488 5.96119 -0.13626
466.217 0.870206 0.346589
640.044 64.1093 -0.498166
82.6924 31.6783 -0.244543
581.673 44.3999 0.470799
268.43 15.7489 -0.388785
8.42279 2.63313 0.385238
122.663 39.9995 0.26043
64.5381 22.703 -0.574176
614.719 68.1943 0.327522
660.754 87.2813 -0.163968
182.155 28.6931 0.182856
670.528 24.868 0.492835
44.3131 37.3685 0.239972
88.6577 30.1433 0.190826
574.581 21.5816 0.569716
404.324 18.9594 -0.501801
493.404 26.0492 -0.11902
231.705 29.805 0.204653
574.766 4.17293 -0.500056
678.158 21.3879 0.484322
28.5781 33.3701 0.299675
264.376 7.83702 0.203527
217.163 15.484 0.308893
1.03858 36.8339 -0.162486
220.461 14.9592 -0.374162
206.995 11.156 0.113507
209.281 27.1203 -0.269341
129.213 29.6989 -0.122791
512.452 23.1945 -0.355753
162.933 14.6096 -0.366565
653.561 78.681 -0.239092
169.813 3.8312 0.515074
46.6008 38.9488 0.442983
619.823 57.8033 0.483035
275.445 33.1122 0.385149
602.164 44.751 -0.481893
664.442 67.5572 -0.495949
294.892 9.14815 -0.104041
626.05 35.4761 -0.402544
321.795 2.50636 -0.440078
407.051 24.612 0.373938
597.987 36.8213 -0.596835
103.405 12.6962 -0.400555
468.024 3.77667 -0.582051
647.932 24.4732 0.212746
86.1799 7.74872 0.28473
276.065 14.9927 0.214547
414.222 12.0407 -0.212032
675.084 7.15204 0.70598
389.703 2.00509 -0.542139
173.686 39.3333 0.314704
642.643 10.1117 -0.405054
125.567 39.2063 0.198106
257.318 31.8986 -0.392166
391.421 22.2632 0.217785
532.575 18.0188 0.455987
378.933 9.80528 -0.533503
445.714 32.0841 -0.421087
642.845 77.8136 -0.418656
45.9793 11.8804 0.172514
292.838 39.7283 0.275383
372.152 28.8765 -0.355628
400.696 21.5683 -0.260686
501.468 66.7635 -0.356671
636.464 56.9923 -0.212073
601.484 80.4218 -0.357803
220.057 36.0802 -0.394583
13.5344 32.7805 -0.192507
595.108 81.7054 0.120691
491.789 60.7638 -0.446472
224.21 40.9399 0.134191
597.389 55.0826 0.142121
147.523 9.85725 0.279651
359.248 22.3174 0.353748
452.123 47.3263 0.0985141
405.202 20.3618 0.243159
637.369 77.1508 0.296586
416.944 4.15615 0.614581
48.5033 25.9865 -0.333233
458.888 36.4427 0.336213
425.553 43.5205 0.51013
659.114 72.9555 -0.251309
628.603 31.2467 -0.262906
509.321 31.055 -0.186482
651.321 72.3238 0.474434
287.667 2.25694 -0.469019
371.067 31.3453 0.449734
28.3736 40.5507 -0.306849
628.715 36.3078 -0.164465
563.711 20.9864 -0.563101
451.704 0.858721 0.663498
123.43 4.59262 -0.349084
417.898 40.9654 0.15624
10.8419 0.944776 -0.38148
670.596 10.5891 0.0927157
362.958 40.7779 -0.447679
564.883 7.94133 -0.53195
[...]
POINT_DATA 13483
TENSORS Strain_matrix float
-1.08733 -0.215336 -13.5808 
0.317115 0.257241 6.51407 
-1.13873e-18 5.23816e-19 1 

-1.84544 2.73645 16.6426 
0.138406 0.699477 0.94169 
7.06412e-19 -7.10184e-18 1 

-0.167549 -0.028827 -0.182209 
0.0924389 -0.0345415 1.04085 
1.70035e-17 1.34121e-18 1 

-1.42011 0.500868 1.36734 
-0.559047 0.714326 0.985479 
6.76349e-18 -5.24604e-18 1 

-0.344364 -0.477387 -0.917239 
0.111827 0.141319 0.302546 
1.40319e-17 2.67274e-19 1 

-0.123322 -0.0444818 -0.43408 
0.0321635 -0.0131025 -0.260351 
7.75683e-18 -1.21315e-17 1 

-0.205121 -0.0618947 -0.758325 
0.0445875 -0.00738131 -0.39267 
-7.78414e-18 -5.07849e-18 1 

-0.350055 0.203734 -0.163639 
0.044673 0.0328086 -0.412016 
3.17695e-18 -1.95912e-17 1 

-0.2579 1.18639 -0.866442 
-0.303307 0.271194 -0.723898 
-4.22161e-18 1.57523e-17 1 

-0.937109 -0.315384 -61.8907 
-0.138575 0.186457 53.9271 
-1.84344e-18 -1.25119e-17 1 

-0.113324 -0.0444251 -0.155582 
0.0540363 -0.0762748 0.0452497 
-3.03751e-17 1.59165e-17 1 

-0.121709 -0.0874328 0.226147 
-0.0320727 -0.096488 0.0720902 
-8.68347e-18 -1.11257e-17 1 

-1.96605 3.8198 20.5939 
0.00425235 0.619525 1.63069 
1.15037e-18 6.32702e-18 1 

-2.63881 -2.17831 0.128125 
0.878327 1.11909 -0.571066 
-1.24042e-17 2.31938e-17 1 

-0.278601 -0.0617796 2.72202 
0.0634306 0.0687327 -0.723742 
4.61276e-18 1.61107e-18 1 

-0.343124 -0.174165 -0.687692 
0.0583771 0.147244 1.4251 
-1.01371e-17 -7.83482e-19 1 

-0.118112 -0.0671301 0.18827 
-0.00271813 -0.0675598 -0.0646506 
-6.98279e-18 6.25165e-18 1 

-0.215274 -0.0200858 0.0105374 
0.0628375 -0.0637873 -0.0459852 
-9.22077e-18 6.08251e-18 1 

-0.229036 0.0171012 2.23636 
-0.0032042 0.0548372 -0.120516 
2.32514e-18 -1.54519e-18 1 

-1.03555 -0.0522154 -0.949653 
0.184016 0.474572 -0.401808 
1.74172e-17 -1.5551e-18 1 

-0.17238 -0.0179894 -0.29817 
0.162571 -0.000484313 0.0358558 
5.73724e-18 -3.25979e-18 1 

-2.74474 -0.294913 -28.7758 
0.153779 0.926004 -2.75644 
1.00659e-17 -5.6582e-18 1 

-2.00079 -2.5691 -13.4178 
-0.151307 0.159226 0.790809 
1.45225e-18 7.73324e-18 1 

-0.832368 1.36648 -51.507 
-0.0349927 0.821168 -26.1376 
-8.92237e-19 8.77503e-18 1 

-0.208888 -0.106367 0.852725 
0.0848253 -0.0383035 0.000847033 
-6.05373e-18 -8.55872e-18 1 

-0.271027 0.0144216 -0.119649 
-0.00699546 0.0896907 0.0689138 
1.21543e-17 -7.67205e-18 1 

-0.133811 0.590354 2.57156 
-0.0680766 0.104358 -1.1673 
3.27101e-18 -8.76165e-20 1 

-0.467274 0.216373 -0.272051 
0.353889 -0.0157095 -0.553713 
-1.32964e-17 9.34905e-19 1 

-0.119755 0.0662356 -0.519632 
0.0591077 -0.0760335 0.523081 
1.3893e-18 -4.40953e-18 1 

-0.28583 -0.431637 -0.145209 
0.448972 0.231524 -0.231929 
9.20031e-18 -1.26504e-17 1 

-0.530402 0.166009 0.29575 
0.085073 0.0430418 1.13578 
-1.53602e-17 6.88312e-18 1 

-0.161499 0.175707 0.187564 
-0.0235838 0.105261 0.0569622 
-2.27665e-18 -2.55586e-18 1 

-0.36587 -0.783089 1.23555 
0.316195 0.264486 -0.583939 
-8.48224e-18 -8.42607e-18 1 

-0.1912 0.0499833 -0.607966 
-0.0315198 0.0416998 -0.245094 
2.52225e-19 -3.15561e-17 1 

-0.0887954 0.0302849 -0.187213 
-0.0988287 -0.107621 -0.370625 
-1.94883e-18 9.31106e-18 1 

-0.659949 0.29042 7.69531 
0.443455 0.325202 -0.856883 
-4.5456e-18 -9.0912e-18 1 

-0.593272 -0.0770224 -0.419397 
-0.00388747 0.208597 2.65112 
6.46273e-19 -4.00074e-18 1 

-0.0883654 -0.0860655 -0.419668 
0.139267 -0.0927207 -0.353717 
-2.25793e-18 -1.9387e-17 1 

-0.5399 4.32043 -7.44987 
0.0677735 0.337124 1.54848 
-5.06019e-18 1.3775e-18 1 

-0.142085 -0.0391409 0.122362 
0.0672722 -0.0162627 -0.932324 
-7.78007e-18 -7.83564e-18 1 

-0.186508 0.0416478 -0.320463 
-0.116198 -0.0215475 -0.296703 
-9.7056e-19 4.77698e-18 1 

-0.128813 -0.147469 -0.273297 
0.132719 -0.0835856 0.516782 
1.94754e-18 -1.23344e-18 1 

-2.99626 0.0139837 0.801948 
-1.41249 0.509972 1.34117 
3.70464e-17 -8.90342e-18 1 

-0.150554 0.0648908 0.477134 
-0.0793848 -0.0536436 1.04457 
3.96729e-18 -1.41165e-17 1 

-0.15735 0.0956316 -0.088171 
-0.0504627 -0.02477 -0.0252189 
7.58377e-18 9.26905e-19 1 

-0.101626 -0.0136786 0.106694 
-0.00854922 -0.0538035 0.15364 
-2.50479e-18 -3.95748e-18 1 

-1.56821 1.18304 26.6531 
-0.767152 0.827609 9.37747 
4.55545e-18 -1.39651e-17 1 

-0.070711 -0.010769 -0.00524551 
-0.00580497 -0.100376 0.0106013 
5.36296e-18 -3.86133e-18 1 

-1.65115 -0.0613745 -8.88816 
-0.041116 0.424336 -2.12601 
2.6613e-18 -2.63482e-18 1 

-0.248453 -1.16511 7.37227 
-0.244014 -0.104567 1.22418 
1.82884e-18 -1.44859e-18 1 

-0.145843 -0.0274 -0.00966142 
0.00496553 0.00285277 0.328359 
1.13004e-17 4.94743e-18 1 

0.275104 -1.06588 1.08061 
0.805964 0.464627 0.603032 
6.8433e-18 3.60174e-19 1 

-0.139775 0.0467781 0.166829 
-0.0875039 0.0112688 0.0336744 
-4.44402e-19 -8.47141e-19 1 

-0.236174 0.107146 -0.0689923 
-0.220606 -0.164353 0.154481 
-8.26962e-19 3.59549e-18 1 

-0.183169 -0.0327687 0.328547 
0.0597714 -0.0563934 -1.6899 
1.29208e-17 1.03961e-18 1 

-0.587988 -0.226544 -26.5535 
-0.114371 0.189636 6.28672 
7.97821e-18 4.615e-18 1 

-3.14336 1.72539 -1.41011 
0.335422 0.918113 1.72757 
7.05997e-18 2.95519e-17 1 

-0.127245 -1.41573 -1.2827 
-0.00220073 0.0262572 -0.635056 
-1.98444e-18 7.93996e-17 1 

-0.0708472 0.0148966 0.0565352 
-0.0112501 -0.101303 0.163115 
-1.00429e-17 -1.0651e-17 1 

-0.133322 -0.0195561 -0.458757 
0.0349665 0.0533977 -0.172448 
3.79087e-18 -7.56342e-18 1 

-1.72204 -0.989548 -3.88938 
0.878926 1.16851 0.255623 
-1.59425e-17 9.02293e-18 1 

-0.0814763 -0.221873 0.302202 
0.136874 0.0244133 -0.289774 
-2.47646e-18 8.32296e-18 1 

-0.134225 -0.0795405 -0.260053 
-0.0125771 -0.059889 -0.109022 
5.51913e-18 -2.41483e-17 1 

-0.550459 0.0901395 -0.548447 
0.12434 0.0892215 -0.332398 
1.32472e-17 -9.18881e-18 1 

-0.105608 0.0610618 0.0509256 
-0.0524905 0.0203017 0.278902 
8.18446e-18 -8.83043e-18 1 

-0.260651 0.0148087 -0.219554 
0.0227136 0.0345173 0.24799 
-1.08986e-17 -1.53921e-18 1 

-0.754372 -0.215882 0.225757 
-0.100109 0.134465 0.176097 
-3.17649e-18 2.06605e-17 1 

-0.030636 -0.0437099 -0.750398 
0.0432106 -0.055369 1.09806 
1.02401e-17 2.53536e-18 1 

-0.19393 -0.000533292 0.0322229 
-0.0126066 -0.0395954 7.70644 
2.40651e-18 1.48414e-18 1 

-0.447129 -0.0817459 0.413271 
-0.120417 -0.0320212 -0.345787 
3.90863e-18 3.37119e-18 1 

-1.02448 -0.15323 2.71641 
0.761581 0.338864 0.851379 
5.00043e-18 -8.06887e-18 1 

-0.130136 0.0144334 -0.0488309 
-0.0331833 -0.0511097 0.0595965 
-9.58381e-18 -7.3484e-18 1 

-1.19914 2.08016 4.71619 
0.23475 0.122325 1.15322 
2.05e-18 7.06711e-18 1 

-0.273582 -0.0970224 -0.809814 
0.0454748 0.152345 -1.45572 
-2.70463e-18 1.26011e-18 1 

-0.125409 0.024578 -0.231858 
-0.0392029 -0.028854 -0.0903836 
-1.21988e-18 -3.29602e-18 1 

-0.195161 0.0322617 -0.0791074 
-0.0778729 -0.00292294 -0.106437 
1.25926e-18 -6.21759e-18 1 

-0.843922 0.27899 15.0328 
0.335567 0.189484 10.051 
1.12305e-17 -4.01515e-18 1 

-0.147141 0.0695562 0.0583332 
-0.0516219 -0.0128806 -0.196156 
4.05826e-18 -9.17939e-19 1 

-0.61822 0.105856 1.09309 
-0.383788 0.233512 0.537546 
4.05863e-18 -2.02142e-18 1 

-4.27859 0.89727 3.4441 
-1.91614 0.95076 0.909202 
2.417e-18 -1.68554e-17 1 

-1.26216 0.0822869 3.00863 
-1.75989 0.412963 0.579306 
-1.92748e-18 4.65255e-18 1 

-0.112894 -0.25668 0.857494 
0.0719631 0.0381507 -1.07305 
-7.5695e-19 1.76159e-18 1 

-0.0786525 0.0531666 -0.125304 
-0.0464616 -0.0336766 0.339155 
2.6544e-17 1.83638e-18 1 

-1.25723 0.164864 -0.68891 
-0.926654 0.520528 -0.570501 
-1.67709e-19 -3.19089e-18 1 

0.0652798 -0.743039 -0.176262 
0.572227 0.204967 -0.417974 
-6.00786e-18 -1.34701e-17 1 

-0.155 0.51113 -0.159488 
-0.377404 0.179675 0.197641 
-9.30667e-18 1.24089e-17 1 

-1.89657 31.4027 101.214 
0.0207435 0.496424 1.49135 
1.286e-18 5.19466e-17 1 

-0.110622 -0.00841645 -0.0808644 
0.00277189 -0.115259 0.0395121 
-7.36382e-18 -1.30798e-17 1 

-0.315282 0.0149918 -0.351778 
0.0628963 -0.0138704 0.181255 
-9.6455e-18 1.12531e-17 1 

-0.158593 0.000678745 -1.75964 
0.0169573 -0.0167555 4.33528 
3.16188e-18 6.72893e-18 1 

-0.167854 0.0137187 0.143279 
-0.128725 -0.0201196 -0.147397 
-4.27977e-18 4.53181e-18 1 

-0.409347 -0.155749 -0.290556 
0.186512 0.158408 0.320971 
1.16135e-17 -1.71762e-17 1 

-1.02154 -0.21587 5.40826 
0.000772117 0.326678 1.15761 
3.6703e-18 6.86037e-19 1 

-0.131576 0.00390798 0.0142851 
-0.0395466 -0.0289248 0.381133 
-2.76262e-17 -3.22542e-18 1 

-0.112951 0.0949166 0.0309992 
-0.0140094 0.0214632 -0.387568 
1.53827e-18 1.07969e-18 1 

-0.170567 0.0979908 -0.0284046 
0.0172802 -0.0136273 0.063169 
-1.01246e-17 1.63532e-18 1 

-0.196335 -0.0414642 0.715048 
-0.0185887 0.0127832 -1.09816 
6.41325e-18 -1.15736e-17 1 

-0.228206 -0.719311 -0.992835 
0.62374 0.317132 0.229062 
9.33771e-18 -9.88538e-18 1 

-1.76477 1.85347 3.54867 
0.461566 0.431814 -0.516246 
3.6339e-19 -6.22954e-19 1 

-0.143293 0.0656699 -0.162533 
-0.0320551 0.00656045 0.387597 
1.28188e-17 5.99825e-18 1 

-0.132264 0.0151163 2.57438 
-0.0325112 -0.0198043 0.233958 
5.59699e-18 1.79792e-18 1 

-0.017828 0.0210097 0.00520463 
-0.102823 -0.079927 0.257149 
4.99976e-18 1.29632e-17 1 

-0.200246 0.0234623 -0.328405 
-0.0415054 -0.00855931 0.355832 
2.9982e-18 -5.44312e-18 1 

-0.151916 0.130259 0.0462506 
-0.0554188 -0.0506037 -0.0204267 
3.94663e-18 -5.55249e-18 1 

-0.222437 -0.0834177 0.256488 
-0.150468 -0.107727 0.248863 
-8.75973e-19 4.79561e-18 1 

-0.575327 -0.199922 0.21632 
0.190887 0.202515 0.0798305 
2.6439e-18 1.96404e-18 1 

-0.976715 -0.700852 -0.0171794 
0.229694 0.2884 -0.505111 
2.6472e-17 -1.79707e-17 1 

-0.11784 0.086673 -0.369726 
-0.135903 -0.00609634 -0.306737 
-2.6768e-18 -8.09412e-18 1 

-0.166305 0.0670129 0.094889 
0.0703812 -0.123253 -0.0877002 
-4.20541e-19 1.36948e-17 1 

-1.03269 0.171574 -1.48157 
-0.26772 0.265013 -1.47053 
2.69932e-17 3.9046e-18 1 

-0.167845 0.100155 3.7159 
0.087534 -0.0574908 1.46906 
-1.99137e-19 -4.13403e-18 1 

-0.237497 0.0665929 -0.380749 
0.0728307 0.0922091 1.3645 
1.92611e-18 -2.8581e-18 1 

-0.114465 0.0557881 0.0568908 
-0.0652779 -0.0713259 0.119273 
-1.31937e-17 5.05222e-18 1 

-0.31033 0.143282 -0.528031 
-0.322802 0.224838 -1.0741 
-2.76168e-18 3.77914e-18 1 

-1.39986 0.516345 6.58309 
0.281013 0.668204 -1.15773 
5.05698e-18 2.58652e-18 1 

-0.13326 0.0212395 -0.985455 
-0.0423266 -0.0130187 0.573153 
-5.77896e-18 -4.62317e-18 1 

-0.136577 0.0659961 -0.353015 
-0.0631586 -0.0369558 -0.0559135 
-1.48237e-17 -6.37984e-18 1 

-0.128756 0.0613256 -0.1054 
-0.0249368 -0.0321015 -0.0506042 
2.71294e-19 -7.95433e-18 1 

-0.256497 0.0885605 0.311705 
-0.00260951 -0.140612 -0.200918 
-5.13081e-18 -4.00706e-18 1 

-0.164779 -0.0446743 0.0896774 
0.0630491 0.0168345 0.184229 
-3.71315e-18 6.60116e-18 1 

-0.857038 0.301793 -1.06351 
-0.0955564 0.0959322 0.472031 
7.55517e-18 -7.68109e-18 1 

-0.256632 0.387366 -0.0132866 
-0.095552 -0.00569871 0.37188 
8.28598e-18 1.13092e-17 1 

-0.1777 0.0925773 -0.619088 
-0.00873274 0.0457621 -0.0201883 
-7.09861e-18 1.72436e-19 1 

-5.17319 3.32835 -17.8112 
0.409516 0.956566 -1.00151 
3.92791e-18 1.4152e-18 1 

-0.198326 0.0490555 0.0611088 
-0.138965 -0.0356861 -2.20018 
-3.85255e-18 6.09728e-18 1 

-0.135859 -0.00418482 0.122301 
-0.075427 -0.120932 0.30653 
4.56096e-18 -1.56564e-17 1 

-0.145912 0.0237172 0.165446 
-0.0807153 -0.018366 -0.0905297 
-6.67714e-19 -3.4758e-18 1 

-0.273299 0.184879 1.21532 
0.0989297 0.0588904 -1.07084 
1.4135e-17 -4.32154e-18 1 

0.0107248 0.0292303 -0.227221 
-0.0642094 -0.0784023 0.0845623 
-5.14735e-18 -1.35457e-18 1 

-0.327845 0.0822726 -0.638806 
0.217117 -0.00534915 0.0898806 
-1.30481e-17 -1.76186e-17 1 

0.06131 -0.533249 -0.534175 
0.529537 0.16498 0.372715 
-5.31787e-18 -1.08548e-18 1 

0.0246196 0.0804939 0.0626108 
-0.0621964 -0.0522408 0.0392684 
-3.40405e-18 -2.02825e-18 1 

-0.169148 -0.198626 -0.0747171 
0.245251 0.0267047 0.672449 
1.5321e-18 -8.82622e-19 1 

-0.589995 -0.153787 0.172888 
0.173461 0.157156 -0.323397 
-3.36704e-18 1.27114e-17 1 

-0.180972 0.0386182 -0.654916 
-0.0998785 -0.0106501 -0.129706 
-9.07026e-18 -4.05309e-18 1 

-0.194066 0.116727 0.0120424 
-0.00915936 0.154151 -0.733511 
1.06605e-17 -2.54597e-18 1 

-4.14036 4.6695 -0.737267 
-0.725591 1.21166 6.78418 
7.31771e-19 -5.85417e-18 1 

-0.147818 -0.0274756 -1.22037 
0.028589 0.0412076 -1.61585 
7.04261e-18 -2.08831e-17 1 

-0.387935 -0.0538816 0.048433 
0.316223 0.155015 -0.337532 
-2.50134e-17 9.07406e-18 1 

-0.08582 -0.0822605 0.0411256 
0.037166 -0.0519847 -0.0518657 
2.06312e-18 -2.06312e-19 1 

-0.260036 -0.0406577 -3.65781 
0.284922 0.00562672 3.63509 
-4.00875e-19 5.59361e-19 1 

-0.153326 -0.00529661 0.169221 
-0.0930261 0.000494233 0.0610911 
1.72828e-18 3.2673e-18 1 

-0.154847 -0.0605805 0.180667 
0.0129176 -0.0317109 0.0767546 
-6.90734e-18 -6.72557e-18 1 

-0.111114 -0.0399189 0.0538597 
0.0266768 0.000570193 0.153663 
5.53874e-18 2.55634e-19 1 

-0.0984012 0.0268247 0.231944 
-0.0658852 -0.0327203 0.375954 
-5.5968e-18 -2.43339e-19 1 

0.119556 -0.955911 -1.5365 
0.462914 0.324817 0.684599 
-1.00701e-17 -8.73445e-18 1 

-1.27285 -0.152894 1.17509 
-0.366577 0.492882 -1.41846 
3.36782e-18 7.28177e-19 1 

-0.136704 0.0334682 -2.04141 
-0.0540477 -0.060017 -0.103883 
-7.37631e-18 -1.17622e-17 1 

-0.139322 0.05263 -0.10824 
-0.0251426 0.00114863 -0.22455 
-7.73955e-18 -7.94058e-18 1 

-0.144559 0.0768014 -0.315266 
-0.109455 -0.00457724 -0.172192 
-4.95289e-18 -1.4751e-17 1 

-0.245321 -0.0184221 -0.654143 
0.0908037 0.161034 1.34541 
6.08497e-18 -4.26575e-18 1 

-0.36265 0.153216 -1.29585 
-0.0234663 0.188537 -0.82436 
8.63355e-18 2.45565e-18 1 

-0.131606 -0.0492804 -0.540918 
0.0408206 -0.076062 -0.622033 
-1.23796e-18 8.92881e-18 1 

-0.174887 0.000573623 -1.49549 
0.111623 -0.00678651 0.750318 
5.73834e-19 8.83574e-19 1 

-0.0984686 -0.00583524 -0.042391 
0.0163477 -0.0778714 0.0859542 
3.81435e-18 5.44907e-19 1 

-0.00179465 -1.04903 -0.0765591 
0.871641 0.82809 0.0889293 
-7.46321e-18 -2.68209e-18 1 

-0.511078 0.205056 0.23738 
-0.0558324 0.156962 -0.167132 
6.47574e-18 9.28758e-18 1 

-0.124975 -0.0313198 -1.09933 
0.0296464 0.0133787 -0.655118 
-3.76821e-18 -1.71463e-18 1 

-1.32432 3.28421 31.3488 
0.267221 1.61553 18.4064 
1.19952e-19 6.35746e-18 1 

-1.78514 0.196205 48.4592 
0.147619 0.403016 -4.49344 
-1.41464e-18 -1.10789e-17 1 

-0.351241 -1.94118 297.069 
0.0851269 0.546806 -35.8442 
3.09216e-18 -7.49065e-18 1 

-0.454183 -0.405587 -0.529447 
-0.00136883 -0.0737268 -1.21805 
1.42828e-17 -1.67454e-17 1 

-1.86775 -2.57496 1.24764 
-0.487525 0.0188959 1.47503 
4.91008e-18 -1.11573e-17 1 

-2.57227 1.00745 2.22966 
-0.221431 1.05741 -0.810773 
-8.1608e-18 -2.23945e-17 1 

-1.16976 -0.65163 3.64035 
0.45869 0.368399 -0.988301 
-1.42128e-17 5.95432e-18 1 

-2.30532 -2.22837 0.0263281 
0.109219 1.1449 0.248566 
6.08307e-19 -1.61903e-17 1 

-0.197577 -0.104228 0.241118 
0.067574 0.162581 -0.0910719 
6.60739e-19 5.86762e-18 1 

-0.274741 0.0739564 -0.126545 
0.110935 0.107199 0.419452 
-7.73019e-18 7.24883e-18 1 

-0.129325 -0.00175107 0.076751 
0.0216553 -0.0858959 -0.13585 
-2.29975e-18 9.69692e-18 1 

-0.210836 -0.0531502 0.0415085 
0.0334811 0.00433374 0.159741 
1.69643e-17 -3.70279e-18 1 

-0.162482 -0.00115436 -0.10411 
-0.0558132 -0.022137 0.0825804 
5.90117e-19 4.25529e-18 1 

-0.107891 -0.097546 0.0978837 
0.0534187 -0.0135419 0.0166522 
-8.39478e-19 5.27672e-18 1 

-0.184544 0.212641 0.613367 
-0.0771887 0.120243 0.600262 
-1.16086e-18 -2.5797e-19 1 

-0.502723 0.16866 2.07974 
-0.376532 0.177418 0.843897 
-6.54193e-18 -3.44483e-19 1 

-0.368474 -1.21168 0.604696 
0.49956 0.354811 0.313147 
-5.81162e-18 -1.20107e-17 1 

-0.170782 -0.459695 0.0214798 
0.449412 0.114177 0.407968 
1.1545e-17 -5.10494e-18 1 

0.219102 -0.755365 -0.112237 
0.690262 0.265068 -0.109133 
1.92599e-17 -1.02039e-17 1 

-0.151708 -0.0563851 0.00280863 
0.00646281 -0.0565746 -0.163844 
-9.80878e-18 -5.36044e-18 1 

-0.312714 -0.143304 -0.383374 
0.115641 0.0985554 -0.128314 
-3.17068e-18 7.20767e-18 1 

-0.651283 -1.42114 -0.68814 
0.970213 0.732198 -1.33369 
-1.27559e-17 3.63742e-18 1 

-0.331927 0.0649494 -0.840094 
0.148696 0.0617397 0.771837 
-6.74804e-18 0 1 

-0.678629 -0.0634972 0.200412 
-0.0299552 0.190748 0.184589 
-5.90262e-18 -1.59961e-17 1 

-0.622227 -0.269201 -2.72805 
-0.0307563 0.311809 -1.00837 
-1.13584e-18 6.59192e-19 1 

-0.140046 -0.0125162 1.86331 
0.0405766 -0.0530335 -0.0291809 
-2.66691e-19 4.7634e-18 1 

-0.268587 -0.00782272 0.139234 
0.11722 0.0196147 -0.184895 
6.34287e-18 -4.16685e-18 1 

-0.199358 -0.019542 -0.471836 
-0.0110964 -0.0583123 0.263638 
-5.89648e-18 -5.4753e-18 1 

-0.431779 -0.102534 -0.741306 
-0.131461 -0.000723341 -1.19901 
1.33072e-17 -4.40737e-18 1 

-0.29642 -1.00749 0.448476 
0.635243 0.589028 0.37616 
-8.90837e-18 -4.8102e-18 1 

-0.164592 0.0854055 -0.410647 
-0.11226 -0.0235572 0.400604 
3.38178e-18 -1.25516e-17 1 

-1.62977 -0.254299 0.26612 
-0.0706898 0.604172 0.94712 
-1.07706e-17 -1.89112e-17 1 

-0.091675 -0.971706 -0.303995 
0.718614 0.456086 0.519929 
-1.66048e-19 1.13157e-17 1 

-0.21859 -0.0449278 -0.147496 
0.0983098 0.000133237 0.121992 
8.66788e-18 -6.08273e-18 1 

-1.01037 -0.544936 -1.02023 
0.0765486 0.465471 -0.645095 
4.62489e-18 2.89882e-17 1 

-1.58958 0.55239 3.194 
0.321827 0.553134 1.21451 
-8.25735e-18 6.08437e-18 1 

-0.704653 -0.0614981 0.49019 
-0.421657 0.12557 0.468194 
-2.08926e-17 -1.20866e-17 1 

-0.426442 -0.20902 -0.538428 
0.0742068 0.307555 -0.842565 
3.93555e-18 -2.0341e-17 1 

-0.324191 0.0276458 0.608879 
0.103504 0.0260884 -0.31251 
-2.964e-17 -6.52454e-18 1 

-0.336734 -0.215148 -0.431646 
0.0138393 0.0149306 -0.786965 
9.55851e-19 -6.26613e-18 1 

-0.134086 -0.0840624 -0.176941 
-0.0443056 -0.0829065 0.234388 
-6.02883e-19 6.7322e-18 1 

-0.203531 -0.242443 -0.261515 
0.357915 0.0987206 0.299967 
5.54268e-18 -4.13353e-18 1 

-0.481878 -0.262083 0.352587 
0.0221837 0.267305 -0.384428 
-2.87002e-18 -1.81663e-17 1 

-0.387248 -0.206498 -0.30274 
-0.00329767 0.128644 -0.435006 
9.0869e-18 8.52999e-18 1 

-1.08837 0.33826 2.62761 
-1.30014 1.29104 -0.512882 
1.50469e-17 7.12325e-18 1 

-4.48968 5.12578 -4.91399 
-0.96134 1.65593 -1.74748 
4.35222e-18 -1.82947e-19 1 

-0.346255 0.200323 -0.346673 
-0.186826 -0.0196616 0.168869 
-7.58599e-18 5.44909e-18 1 

-0.105529 0.0335719 0.0240029 
-0.0905705 -0.00552539 0.218592 
1.2035e-19 -8.42453e-19 1 

-0.114427 0.0360797 -0.410848 
-0.024717 -0.0203381 -0.445578 
5.62861e-18 1.86381e-17 1 

-0.137597 0.0260714 0.524556 
-0.0184749 0.0219156 0.0633263 
1.88698e-18 -1.07154e-18 1 

-0.171996 -0.038097 -0.136122 
0.148348 -0.0495679 -0.781244 
7.91065e-19 -7.01411e-18 1 

-0.0229878 -0.458515 -0.501853 
0.27533 0.0981043 -0.556646 
1.40277e-18 4.0914e-19 1 

-0.0757097 0.00310879 -0.426169 
-0.0658473 -0.0023673 -0.183114 
-3.32342e-18 1.2357e-17 1 

-1.06027 -0.000833039 8.986 
0.0563056 0.389596 -4.73739 
-1.3677e-19 3.94583e-18 1 

-0.0927895 0.180198 0.020991 
0.00986353 -0.102183 -0.449108 
4.31689e-18 -1.63779e-17 1 

-0.122563 -0.0347961 -1.1606 
-0.0592628 0.0179712 1.24099 
8.8451e-18 3.65458e-18 1 

-1.79912 -0.432884 2.74614 
0.124897 0.804691 -3.48083 
-6.24875e-18 -3.4486e-18 1 

-0.940656 0.201654 -1.63566 
-0.212739 0.431276 -1.31454 
-5.94516e-18 -5.7025e-18 1 

-0.16179 0.00117353 0.0344227 
0.00892619 -0.0684668 -0.281139 
6.80896e-18 4.6661e-18 1 

0.00352303 0.0728474 0.0311113 
-0.0602369 -0.0276535 0.363619 
1.19873e-17 1.28884e-17 1 

0.0833888 -0.209147 -1.39109 
0.300309 -0.0659594 2.77218 
4.84146e-18 -6.52835e-18 1 

-0.111806 -0.162398 -0.626044 
0.041837 0.00140245 -0.324033 
-2.3728e-18 4.77002e-18 1 

-0.531509 0.237551 4.48302 
0.0613614 0.022837 -10.1099 
6.85655e-18 -2.32901e-17 1 

-0.430579 -0.233299 0.196052 
0.2882 0.129443 0.495192 
-1.02714e-17 -7.20536e-18 1 

-0.0871492 0.0200132 0.446271 
0.109285 -0.0491134 0.0695122 
1.57173e-17 -1.37526e-17 1 

0.00612983 -0.62303 -1.91725 
0.642005 0.301484 -2.30934 
-5.04344e-18 -5.89301e-18 1 

-0.230685 0.384444 -0.640099 