# vtk DataFile Version 3.0
Output file generated by Yade's KinematicLocalisationAnalyser
ASCII
DATASET UNSTRUCTURED_GRID

POINTS 13483 float
627.696 28.3928 0.434948
804.939 59.5582 0.561467
123.201 6.14213 0.457067
833.804 4.24522 0.424381
513.065 7.77132 -0.262113
322.679 35.0664 0.26257
160.336 6.9049 0.430609
588.136 10.1675 0.150139
509.717 23.0158 0.169341
753.705 12.7061 0.431658
215.76 9.02926 -0.112383
263.484 6.29383 -0.261838
680.131 29.9023 -0.163491
656.424 14.0191 -0.0836143
140.445 17.0697 0.414853
227.007 34.4926 0.407973
223.104 12.9794 -0.284516
296.231 9.64443 0.390576
349.317 32.7172 -0.360984
539.253 8.51254 0.351842
421.329 36.6546 0.103913
611.334 45.8949 -0.255366
830.381 37.9464 -0.530984
728.102 43.1838 -0.484969
470.846 16.0606 0.283977
247.259 44.1497 -0.127638
504.726 27.3607 -0.539276
606.037 20.2818 0.228925
46.0777 15.5483 0.457352
751.585 36.8393 0.327341
495.422 4.92297 0.322332
16.8304 23.4498 0.305187
819.478 59.8954 -0.284987
508.821 2.4895 0.481028
80.3034 44.466 0.104046
536.394 30.7462 0.335497
545.822 16.5419 -0.408981
352.749 22.5165 -0.187871
548.673 25.4015 -0.325818
359.594 33.1905 -0.429736
247.387 14.6601 -0.359823
445.662 35.7009 0.0803546
706.166 6.9992 0.119046
197.715 6.25223 0.367082
56.7367 7.039 0.0833786
70.1984 8.93671 0.289004
723.462 7.94742 0.633671
23.9923 11.6503 0.284819
633.005 45.0174 -0.370642
708.109 22.5466 -0.363558
177.157 32.4005 0.308672
803.794 47.0551 -0.143682
35.8065 28.148 0.123546
549.841 2.94496 0.334849
145.725 7.45802 -0.497624
614.353 35.183 0.436233
518.821 26.8004 -0.143658
179.389 0.94048 -0.271229
33.4752 2.42271 0.295375
357.96 17.7981 0.269972
644.286 45.9451 -0.139453
474.714 33.723 0.191487
409.813 1.02931 0.197853
734.966 9.97651 -0.368904
27.1808 43.0454 -0.234955
263.16 30.4888 -0.32402
753.578 8.02456 0.269562
700.663 46.5565 0.374614
428.671 8.68907 -0.475129
589.053 3.5621 -0.3387
783.095 32.895 -0.500677
134.121 7.68687 -0.310042
512.545 25.6163 -0.118994
490.985 14.9515 -0.149718
302.466 16.7382 -0.340031
21.109 13.6525 0.238839
827.139 52.3112 -0.359519
341.623 39.1361 -0.287755
705.231 19.7545 0.379372
724.38 12.8815 0.209504
822.375 13.8233 -0.20306
478.187 34.5055 -0.191635
94.9707 38.4325 -0.27954
716.017 34.3898 0.23147
675.834 38.6422 0.116877
837.784 43.0424 0.139025
817.582 0.768011 -0.769443
299.117 28.7369 0.467696
645.008 6.37392 -0.127677
24.879 5.27502 0.525023
136.753 38.3168 -0.151254
528.145 14.4685 0.239148
815.208 37.375 0.481844
201.081 28.6369 0.231163
45.4684 34.2573 -0.300556
507.73 1.15739 0.134923
242.577 8.89144 -0.363713
783.434 44.2727 -0.247983
801.561 35.2081 0.241922
371.824 20.9571 -0.257199
168.711 26.964 -0.462898
568.146 37.9341 0.42404
390.818 15.6854 -0.446478
425.626 29.6493 -0.106939
389.017 4.51203 0.409636
566.426 10.8872 -0.0876506
838.783 10.9106 -0.296702
82.6182 39.2706 0.399482
345.263 5.01378 -0.19428
581.421 9.48229 -0.355767
370.909 43.7496 0.455981
26.1956 24.3073 -0.497952
31.1144 5.7526 0.325137
589.323 32.5863 -0.43976
521.523 24.1101 0.14062
27.1684 36.9563 -0.423952
95.9194 30.8841 0.221255
334.855 15.9664 -0.28043
624.107 18.7687 -0.149168
490.373 37.7384 0.319309
771.182 7.84861 -0.369371
763.762 6.88471 0.217727
399.018 37.3175 0.104464
663.213 25.2147 0.11523
245.801 17.0813 0.496632
340.536 3.88285 0.458454
106.664 31.5306 0.377427
119.823 23.8202 -0.257235
563.3 38.1714 0.0743622
315.816 18.8179 0.478743
746.767 39.1506 0.123378
704.56 45.7717 0.131265
496.837 20.4519 -0.431345
807.601 19.6615 0.314941
442.748 23.2793 -0.232737
286.363 24.0274 0.291762
706.469 33.8196 0.362763
288.327 28.6061 0.386953
599.8 12.5216 -0.203938
342.784 35.8277 0.203672
522.525 11.3011 0.487038
379.182 31.7001 0.0926162
444.924 16.7481 -0.108325
328.66 42.2253 -0.356468
197.254 29.8704 -0.126631
809.987 58.791 0.0692311
835.828 13.0979 -0.431423
6.21219 12.4603 0.473903
449.091 22.4307 -0.416431
39.4926 22.4635 0.0842178
389.184 31.4973 -0.374192
408.514 24.7965 0.291981
77.3925 12.042 -0.518802
53.5355 33.0863 -0.426148
233.883 13.5398 0.412118
645.714 38.3939 -0.401266
602.249 21.3895 -0.471758
77.472 20.8749 -0.505828
730.298 47.0059 0.445607
800.51 2.27111 -0.501318
693.323 41.5755 -0.507109
731.135 2.37154 -0.546868
572.695 26.5092 0.398123
613.09 46.07 -0.454334
532.014 17.9363 -0.419326
832.169 3.63661 -0.394293
231.49 24.6542 0.112056
132.33 35.3073 -0.200618
256.258 6.73291 0.400125
97.709 4.26392 -0.280108
66.4437 10.1311 -0.207469
286.064 36.1259 0.297489
17.0968 25.1865 -0.368218
578.84 19.1457 -0.395769
632.408 39.925 0.226175
480.104 20.8318 -0.392294
836.119 63.5145 -0.377784
421.637 8.59097 -0.101425
452.215 36.1181 -0.393554
558.53 3.44514 -0.187838
23.5418 23.8871 -0.407621
602.28 4.61108 0.409528
568.667 4.34951 -0.287966
213.959 11.5123 0.488896
440.994 16.5299 -0.19708
323.05 6.33339 0.340877
402.465 19.1285 -0.320535
771.633 42.9747 -0.111129
199.413 25.7026 0.423272
813.886 10.3075 -0.547338
771.556 38.9969 -0.354983
397.695 10.2436 -0.160398
751.638 2.26369 0.43164
632.094 25.4748 -0.389456
779.15 18.1639 -0.433994
447.4 42.7061 0.318946
516.672 12.6719 0.382797
483.497 44.1589 -0.225693
462.703 8.60138 0.126052
697.012 40.8581 0.252702
694.581 36.8187 0.329059
199.569 38.9808 0.365729
820.657 15.1042 -0.172182
615.132 46.4548 -0.0764263
11.7584 17.0683 0.228406
423.12 25.416 0.347673
194.432 23.0185 -0.410417
96.6195 39.3019 0.206935
812.312 35.5178 0.493043
690.516 46.4419 -0.240362
331.286 25.5536 0.347598
555.174 10.1271 0.319723
85.4887 44.4016 0.170258
257.368 25.8542 -0.474214
581.847 22.9852 0.363964
506.426 18.5719 0.410771
273.04 0.889046 -0.343271
577.725 39.6539 -0.36783
556.619 40.3953 0.467756
501.56 32.8285 0.399245
519.813 0.83081 -0.54524
739.958 21.4454 -0.400363
186.538 12.0498 -0.173517
521.21 36.6981 -0.455932
590.044 39.7797 0.134324
75.6113 0.969314 -0.276833
261.666 4.6975 0.181212
835.064 16.3898 0.232435
823.649 15.2983 -0.43647
840.912 15.4257 -0.731417
315.441 8.56682 -0.228784
784.129 23.2898 -0.441848
423.214 41.4575 -0.32812
466.985 0.811201 -0.401082
682.214 36.7624 0.528873
27.985 30.6475 0.242966
343.786 41.0804 0.534664
262.542 2.84425 0.331535
822.491 56.7439 -0.246615
749.515 52.1995 -0.227866
298.821 11.0093 0.234071
700.375 29.6985 -0.0855411
583.27 2.66466 0.296641
566.381 6.43584 0.418483
100.468 18.317 0.485976
315.328 1.03043 -0.225037
356.764 2.25957 -0.365152
14.3627 7.59424 0.410121
4.53256 31.0766 -0.271435
168.287 19.0565 -0.392912
70.8359 41.6957 -0.207807
69.4536 28.7612 0.31423
440.654 14.6522 -0.43523
382.144 35.2309 0.482205
800.81 48.2186 0.150393
20.1624 4.03337 -0.266756
73.3498 6.95212 -0.137588
655.464 37.5489 0.171369
306.511 0.918117 0.361665
379.739 16.0181 -0.104645
245.174 4.60307 0.374264
685.631 22.1806 0.20255
470.258 8.32111 0.410266
787.484 22.2845 -0.446161
662.276 29.4257 -0.34179
704.248 17.8217 0.0897738
437.425 26.8005 0.518571
106.291 44.6933 0.322112
566.948 41.7163 0.0774085
776.889 13.3452 0.302041
247.685 30.2968 -0.237012
33.2821 17.0792 -0.184226
350.149 13.9533 0.49457
111.905 40.3741 -0.464609
278.999 42.1157 -0.199606
442.961 1.6051 -0.296561
824.998 47.0836 0.416001
724.115 0.801773 0.548471
345.789 3.44632 0.548882
312.387 26.4221 0.152872
482.217 41.075 0.227748
84.7872 8.10454 -0.455275
205.918 44.9656 0.37746
806.537 40.7704 0.394407
516.206 39.0063 -0.0971431
208.419 41.1713 -0.274376
167.707 42.465 0.226501
839.403 38.3819 -0.394382
837.416 12.2217 -0.566125
635.915 3.4521 -0.470015
198.098 24.5055 -0.104056
574.565 27.3048 0.104024
576.619 27.0716 -0.262153
426.342 5.67018 -0.136029
502.598 0.927026 -0.29314
798.099 49.4706 -0.480209
88.4517 30.8916 -0.236303
691.643 18.4077 0.437439
285.83 15.4421 -0.361847
9.8761 2.33503 -0.35034
130.833 36.9337 0.194712
69.6851 22.7551 -0.477131
739.347 39.4446 -0.337726
824.999 64.5913 0.160583
193.49 28.3555 0.186352
831.235 14.167 -0.323848
46.8969 36.3848 0.261138
94.6785 29.3052 0.178827
666.305 12.4947 0.585127
430.818 18.121 -0.488257
542.543 16.573 0.121967
248.253 28.3395 0.181644
652.438 4.45182 -0.389344
841.239 10.7087 0.584477
30.9991 31.6651 0.283891
281.552 7.69836 0.192463
231.54 15.1683 0.274406
1.08727 35.6839 -0.150886
234.871 14.6108 -0.367255
220.711 10.9938 0.11518
223.367 26.3603 0.270168
138.651 27.7863 0.118722
573.186 14.9565 -0.348661
174.108 14.1406 -0.357716
816.838 57.3406 -0.233887
181.441 3.81146 0.509884
49.2328 37.402 0.415002
776.124 51.1594 -0.436179
293.223 31.8478 0.378984
714.705 22.0836 -0.47291
827.521 46.883 -0.506398
313.465 9.17594 -0.107666
770.771 30.7447 -0.353356
342.658 2.552 -0.3981
433.499 23.927 0.357337
710.89 15.7867 0.426462
109.955 12.1193 -0.407899
504.29 3.90586 -0.482841
790.859 20.1309 -0.188805
91.9211 7.67421 0.20776
293.724 14.7072 0.201088
441.44 11.8392 -0.204479
830.876 3.95751 0.55929
414.794 1.93893 -0.53427
184.493 38.7296 0.295614
779.475 10.2304 -0.421082
134.062 36.4733 0.193846
274.348 31.4917 -0.424967
417.512 21.695 0.224636
602.267 14.4297 -0.313663
403.612 9.79985 -0.486255
476.51 27.8521 -0.438578
805.964 59.2326 -0.432018
49.509 10.9425 0.130205
312.059 38.387 0.26216
395.831 27.4081 -0.35052
426.953 20.8842 0.277548
545.062 44.5901 0.356454
792.145 44.6917 -0.253524
700.059 35.7328 0.347796
235.56 34.1325 -0.397019
14.4489 31.5134 0.150727
692.952 37.8667 -0.131918
531.978 41.593 -0.239163
239.491 39.2651 0.113992
719.923 31.1056 0.159634
157.589 9.27499 0.212828
382.288 21.1875 0.346881
484.062 42.0614 0.101837
431.864 19.5057 0.20977
801.431 60.2206 0.289947
444.49 3.85963 0.500855
51.8074 25.2055 -0.31999
490.585 31.4327 0.352129
453.681 41.5079 0.443829
821.289 50.5525 -0.230412
768.452 27.8641 0.248478
566.706 18.3964 -0.213918
813.36 51.6434 0.482104
306.047 2.20753 -0.4615
394.779 29.8344 0.466894
30.3027 38.8063 -0.297825
773.747 31.3783 -0.16042
640.509 20.0755 -0.502427
483.513 0.770304 -0.476263
131.607 4.50302 0.280193
445.221 40.1297 0.101226
12.3572 0.909199 0.31588
830.441 6.38088 0.187117
386.206 39.4446 -0.398311
[...]
POINT_DATA 13483
TENSORS Strain_matrix float
-0.169027 -0.0403442 0.721213 
0.0846308 0.054565 0.227573 
-3.68354e-19 1.49367e-17 1 

-0.427554 0.00520485 -30.7399 
0.139313 0.706989 23.1116 
-2.04861e-18 7.39563e-18 1 

-0.107034 -0.0155782 0.15233 
-0.0222927 -0.0416239 0.0744146 
9.11079e-19 -6.71921e-18 1 

-0.818634 0.534765 0.49575 
-0.29676 0.301807 0.161426 
4.34655e-18 2.58443e-18 1 

-0.258727 -0.0416368 -0.0466585 
0.000993112 0.0334372 -0.424612 
6.22194e-18 1.06476e-17 1 

-0.0890986 -0.0822275 -0.064602 
0.0344238 -0.0386866 -0.0879334 
2.13615e-18 3.13663e-17 1 

-0.0818181 -0.0203284 0.0903051 
-0.00341475 -0.0903916 0.0772042 
-8.40315e-18 6.76351e-18 1 

-0.0938757 0.0119934 -0.0899161 
0.0557864 -0.0492818 -0.0098165 
-4.97719e-18 -1.40203e-19 1 

-0.112888 -0.0317859 -0.0305574 
0.0706812 0.016664 -0.129022 
-3.81802e-18 -1.07704e-17 1 

-0.295784 0.235414 -0.0811685 
-0.179737 -0.0621599 0.512725 
-7.22684e-18 3.48437e-18 1 

-0.0742801 0.00877606 -0.154712 
0.0144962 -0.0628526 0.044129 
-1.64492e-18 2.63605e-18 1 

-0.0936272 -0.0559159 0.205502 
-0.0503941 -0.0958477 0.0603767 
4.80948e-18 1.67978e-19 1 

-0.26084 0.37785 2.94751 
0.0196794 0.0805492 0.253918 
-1.117e-17 -4.95102e-18 1 

-0.148269 -0.0074913 -0.278672 
-0.00023729 -0.0248156 0.186618 
-2.65984e-18 6.28689e-19 1 

-0.10421 0.00448946 0.0140962 
0.00553895 -0.0601877 0.259418 
7.3704e-18 5.81128e-18 1 

-0.0825408 -0.00749216 0.418434 
-0.0604091 -0.0204608 0.00227892 
3.39062e-18 -5.76558e-19 1 

-0.0723957 -0.0384696 0.109545 
-0.00954325 -0.0886601 -0.0620856 
3.36111e-18 -1.96759e-18 1 

-0.152202 -0.0166115 -0.0368864 
0.0196764 -0.0735373 -0.0200943 
5.86682e-18 8.33158e-18 1 

-0.121051 -0.00957031 -0.168354 
-0.0158549 -0.0246808 -0.712431 
-2.63914e-19 8.14363e-18 1 

-0.0972845 0.0515525 0.229548 
-0.0993375 -0.0868521 0.254213 
-4.21624e-18 2.84789e-18 1 

-0.0934372 -0.0359293 -0.17384 
0.0758641 -0.0368618 -0.00699784 
-9.57909e-18 -2.48594e-18 1 

-0.122964 -0.0885842 0.0383705 
0.0418571 -0.123431 0.349298 
6.86068e-18 -5.19967e-18 1 

-1.58111 -0.848971 -6.24629 
-0.490093 0.241916 0.705321 
-4.50228e-18 1.20109e-17 1 

-0.203795 -0.0788369 -0.368037 
0.0854593 0.024513 -0.339522 
8.43487e-18 -1.35243e-17 1 

-0.0735019 -0.0331538 -0.233469 
0.0876888 -0.0324613 -0.0702527 
-2.28181e-18 3.19453e-18 1 

-0.150119 0.0693507 0.0257764 
-0.0514294 0.0462909 -0.00705848 
6.73014e-18 -1.45144e-17 1 

-0.104335 -0.0232637 2.008 
0.0175574 -0.0232513 -3.7988 
-1.17288e-19 -6.05204e-18 1 

-0.116393 -0.01694 -0.523404 
-0.0261355 -0.019094 -0.395449 
-1.4413e-17 1.5279e-17 1 

-0.0900956 0.00070923 0.512784 
0.0447734 -0.0719867 1.53978 
-1.78408e-18 -2.53518e-18 1 

-0.198949 -0.0870379 0.433957 
0.196752 -0.0247077 0.274824 
2.37078e-18 2.96637e-18 1 

-0.088197 -0.00516112 -0.34079 
-0.0507976 -0.168317 0.407659 
-7.46478e-18 8.25836e-18 1 

-0.145523 0.0282789 -0.00770896 
0.0151681 -0.0388346 0.0652796 
4.53094e-18 1.57598e-18 1 

-0.53909 -0.631732 1.54023 
0.146051 0.245236 -0.572617 
-3.69017e-18 -3.80732e-19 1 

-0.137091 0.100891 -2.07451 
0.00870373 0.0853388 -1.58528 
-4.66413e-18 -3.29456e-17 1 

-0.0390588 -0.00285369 -0.0432106 
-0.0747088 -0.114617 -0.224498 
-6.57346e-18 4.3437e-18 1 

-0.340326 -0.0564875 0.449118 
-0.111818 0.116342 -0.123954 
-6.75033e-18 -7.2385e-19 1 

-0.106845 0.00174176 0.147883 
0.00631145 -0.0411041 -0.722608 
-3.11752e-18 -1.34978e-18 1 

0.00368043 -0.0544862 0.0151332 
0.0103345 -0.161612 -0.0176996 
-1.24973e-18 -4.16576e-19 1 

-0.117769 -0.201418 0.0472248 
0.0815389 0.0755925 -0.0135641 
-4.12842e-18 2.35586e-18 1 

-0.0943171 -0.0283104 0.354969 
0.0247722 -0.0197575 -0.125348 
-2.11821e-19 -9.86944e-19 1 

-0.123596 0.00822525 0.0058734 
-0.0559463 -0.0549125 -0.152916 
-5.16873e-18 4.99841e-18 1 

-0.0657054 -0.0461681 -0.142383 
0.0178644 -0.0495401 0.482976 
-7.49988e-19 6.95823e-18 1 

-0.257717 0.0031921 -0.115096 
-0.0334539 0.00370556 -0.0316229 
1.58209e-17 -2.10946e-17 1 

-0.0674683 -0.0168319 0.554243 
-0.00424671 -0.07374 -0.167322 
-9.75842e-19 -3.50155e-18 1 

-0.0949768 0.0128196 -0.00765156 
0.0180065 -0.0589171 -0.0545825 
1.10252e-17 3.70344e-18 1 

-0.0750202 -0.00819342 -0.00533895 
-0.00121423 -0.0659713 -0.0201758 
4.30591e-18 1.61634e-17 1 

-0.216907 0.0824777 -6.46314 
-0.0368566 0.0187287 5.00839 
-5.28032e-18 -1.99246e-18 1 

-0.0559196 -0.0224591 0.0176672 
0.000703779 -0.119483 0.0411604 
-2.44286e-18 -1.38075e-18 1 

-0.198876 0.138335 -0.170361 
-0.145041 0.0339943 -0.274947 
-3.09732e-18 -9.80163e-18 1 

-0.234678 -0.136779 -0.894413 
-0.089298 0.105912 -0.334298 
-4.33829e-18 9.52636e-18 1 

-0.105317 -0.0614933 -0.00743155 
0.0171008 -0.0062894 0.268109 
7.81995e-18 5.08297e-18 1 

-0.07143 -0.354732 0.202248 
0.246481 -0.0203827 -0.311116 
4.62006e-18 -1.02215e-17 1 

-0.0889024 0.0023754 0.0815325 
-0.0257981 -0.00584324 -0.0744385 
1.32407e-18 1.69687e-18 1 

-0.118293 0.0456201 0.094211 
-0.0227543 -0.0544642 0.0192283 
6.16429e-18 -9.90296e-18 1 

-0.109999 -0.00639916 2.05108 
-0.00907479 -0.0631167 -0.114604 
-2.92104e-18 -3.42941e-18 1 

-0.180328 -0.0654575 -1.61264 
0.0398869 0.058844 0.339512 
1.82128e-18 4.10663e-18 1 

-0.0719179 -0.0566126 0.0387462 
0.0674394 -0.0329431 0.00858724 
-5.00218e-18 -2.75631e-18 1 

-0.0957229 -0.319696 0.0829703 
-0.00175075 0.00394509 0.00330694 
-8.69827e-19 7.76346e-17 1 

-0.0426259 0.00837581 -0.0152721 
-0.00447705 -0.130464 0.0485496 
1.35747e-17 1.32082e-17 1 

-0.0763163 -0.0140827 -0.146818 
-0.0700376 -0.0514173 0.105526 
-6.2088e-18 7.45055e-18 1 

-0.166386 0.336281 -0.493005 
0.119885 0.0716737 -0.176727 
-7.19706e-18 -1.08831e-17 1 

-0.0707541 -0.121568 0.448759 
0.0453057 -0.0437973 0.170098 
-6.81753e-18 1.42534e-17 1 

-0.101312 -0.0888838 -0.261142 
-0.0104106 -0.051695 -0.129025 
6.68742e-19 1.37289e-17 1 

-0.209806 -0.0319986 -0.328042 
0.252746 0.0876163 0.137256 
7.53644e-18 -1.18844e-17 1 

-0.0954012 0.00282018 -0.0245401 
0.0116766 0.0129604 0.0819945 
4.79002e-21 -8.89028e-18 1 

-0.215485 0.0438403 -0.0815227 
-0.00482519 0.000598104 0.070249 
-2.59942e-18 5.33566e-18 1 

-0.167674 0.00145642 0.0891786 
-0.11775 -0.115196 0.158821 
9.88918e-18 -7.80725e-19 1 

-0.19274 -0.11085 -0.851682 
0.122664 0.0368854 0.873752 
-5.04933e-18 -2.17053e-17 1 

-0.110039 -0.00508822 0.262464 
-0.0574793 -0.0753226 0.251438 
-1.0287e-17 -2.18673e-18 1 

-0.139503 -0.0197734 0.085361 
-0.0225858 -0.0729666 0.0540161 
-3.57444e-18 -1.78165e-19 1 

-0.683231 -0.342244 1.06129 
0.399849 0.295586 -0.211354 
3.3853e-18 6.77059e-18 1 

-0.0637834 -0.0190743 -0.0102221 
0.00268081 -0.0623498 0.126539 
-2.14271e-18 -8.30299e-18 1 

-0.0578385 -0.015252 -0.15297 
-0.0154098 -0.0236109 0.144306 
1.40538e-17 1.01995e-17 1 

-0.093628 -0.0361151 0.114533 
-0.0340876 -0.0443048 -0.30335 
-7.1316e-18 9.6544e-18 1 

-0.0997904 -0.011106 -0.414076 
-0.014824 -0.0478523 -0.283558 
-4.74078e-18 1.86245e-18 1 

-0.0659226 -0.027267 0.0624708 
-0.0373754 -0.0553076 -0.0243162 
6.65522e-19 -1.6638e-18 1 

-0.141555 -0.568709 0.32285 
0.520733 0.205282 0.514278 
9.76679e-18 -2.91647e-18 1 

-0.0883553 0.060023 -0.538042 
-0.061479 -0.0342088 0.155383 
1.21431e-17 6.6591e-18 1 

-0.246251 -0.01502 0.201877 
-0.0458453 -0.0473745 0.171057 
-3.6896e-18 8.90593e-18 1 

-0.0738305 -0.0383853 -0.760686 
0.0970262 -0.00722566 -0.986303 
-1.63604e-18 -2.8358e-18 1 

-0.083223 0.64406 -0.0324487 
-0.609647 0.12844 0.0784258 
1.93986e-18 -1.00873e-17 1 

-0.0665682 -0.0782728 0.238797 
0.108876 -0.00437487 -0.0187754 
8.54305e-19 -4.87457e-18 1 

-0.0584737 0.0251205 0.00392928 
-0.00975865 -0.031733 0.128008 
-3.49423e-18 -3.74062e-18 1 

-0.352162 0.0931292 0.0266078 
-0.165932 0.149934 0.308641 
-1.35885e-17 6.97929e-18 1 

-0.227647 -0.113553 -0.123978 
0.12157 -0.00144589 -0.336426 
1.79871e-17 8.24796e-18 1 

-0.204907 0.510587 -0.305922 
-0.353093 0.198734 0.267098 
8.71189e-18 1.02031e-17 1 

-0.684748 3.1772 75.0195 
0.00983587 0.306385 23.3319 
2.32009e-18 2.01765e-18 1 

-0.100966 0.102135 0.139443 
-0.0578461 -0.104017 -0.174585 
-1.60515e-17 -1.0808e-17 1 

-0.181575 0.060896 -0.194087 
-0.0188937 -0.0278508 -0.167575 
7.59251e-18 -2.48964e-17 1 

-0.103646 0.0419039 -3.4133 
0.00394656 -0.0491184 3.06757 
-4.91853e-18 -7.4915e-18 1 

-0.105408 -0.00131447 0.251759 
-0.0582764 -0.0421455 -0.107204 
-2.96926e-18 -1.18135e-17 1 

-0.120445 -0.0180075 -0.0499327 
0.0274207 -0.0535497 0.247509 
6.79339e-18 1.78773e-18 1 

-0.648908 0.242153 -19.2473 
-0.313133 0.24841 3.57722 
2.1577e-18 -5.08007e-18 1 

-0.118964 -0.0164567 0.0828452 
-0.0262678 -0.0216691 0.315101 
1.68414e-18 1.90005e-18 1 

-0.0934933 0.0166932 -0.0910587 
0.00411134 -0.000899347 -0.195931 
6.74011e-18 3.66477e-18 1 

-0.117842 0.214576 -0.322809 
0.0143369 0.183967 -0.439459 
-6.27285e-18 -5.24439e-17 1 

-0.0949854 0.0354998 0.00831565 
-0.0308538 -0.0400534 -0.165695 
-9.36487e-18 7.17147e-18 1 

-0.350482 0.0211198 -0.0928531 
0.379229 0.169091 0.19765 
-2.3143e-18 2.3143e-18 1 

-0.673541 0.461505 4.55323 
0.2181 0.377123 -0.138526 
1.72967e-18 1.41662e-18 1 

-0.0846982 0.0535991 0.208298 
-0.0859017 -0.0408407 0.120275 
-9.55758e-18 1.2713e-17 1 

-0.0996072 -0.00310892 -0.453362 
-0.00485741 -0.0293294 0.472156 
3.54279e-18 3.35005e-18 1 

-0.132413 -0.0288124 0.0942304 
0.00257915 -0.00565101 -0.338092 
-4.04209e-18 1.89473e-19 1 

-0.100643 -0.000486189 -1.14893 
-0.0188824 -0.0371627 -0.000977552 
-3.4072e-19 -5.20147e-18 1 

-0.11813 0.0680526 0.137393 
-0.0633833 -0.0565446 0.107593 
6.24843e-18 -6.22949e-18 1 

-0.104577 -0.0062359 0.115442 
0.0191372 -0.0910051 0.402879 
-9.69841e-18 1.00926e-17 1 

-0.121398 -0.00777883 0.200781 
0.0289943 -0.0446728 0.0453996 
-6.24926e-19 8.28027e-18 1 

-0.465462 -0.0194411 0.425139 
-0.229022 -0.0289425 -0.331502 
2.24124e-18 -1.27578e-17 1 

-0.0761586 0.0255919 -0.406441 
-0.0997343 -0.0338786 -0.336183 
-7.61056e-18 1.43595e-19 1 

-0.1231 0.0547061 0.0973857 
0.0595945 -0.108294 -0.100753 
3.69011e-18 7.7217e-18 1 

-0.124628 0.00785952 -0.336959 
0.0176764 -0.0686742 0.0629084 
9.11115e-18 -1.03444e-17 1 

-0.131151 0.0352391 2.22325 
0.0521618 -0.0508934 0.12666 
1.12109e-18 6.52271e-18 1 

-0.101319 0.0305384 -1.48174 
-0.016676 -0.0510087 -2.36044 
1.1546e-18 -2.74283e-20 1 

-0.0659369 0.031002 -0.00941004 
-0.0208641 -0.113833 0.0392987 
-1.88666e-17 -1.5613e-17 1 

-0.165342 -0.075456 -0.0919331 
0.138097 -0.013281 -0.131682 
-2.78857e-18 -1.72377e-18 1 

-0.201128 0.169406 0.0311642 
-0.123345 0.102215 -0.0470885 
4.7752e-19 -2.9845e-18 1 

-0.0967971 -0.0119298 0.168443 
0.0212816 -0.00624365 0.201264 
1.6839e-18 1.37097e-18 1 

-0.107065 0.0278339 -0.240375 
-0.0109279 -0.0421956 -0.0446298 
5.72916e-19 4.48784e-18 1 

-0.108471 0.0320788 -0.1101 
0.0355691 -0.0504129 -0.0528091 
-1.00543e-17 8.78106e-20 1 

-0.14939 -1.17217e-05 0.00435605 
0.0993373 -0.0972234 -0.0542595 
-2.23549e-18 8.19678e-18 1 

-0.137086 0.0469628 0.00663875 
-0.0112107 0.00634263 0.17522 
-4.02437e-18 -5.32093e-18 1 

-0.402683 0.02268 -0.959248 
0.0801175 -0.0133222 0.0509027 
-7.82127e-18 8.40786e-18 1 

-0.246931 0.359988 -0.267304 
-0.15184 -0.0093699 0.0958324 
2.98688e-17 1.02183e-17 1 

-0.0821685 0.0326054 0.00832848 
-0.0676849 -0.00857808 -0.133544 
7.9463e-18 -9.71695e-18 1 

-0.223913 0.147173 0.320141 
0.0555653 0.120637 0.0694664 
9.30349e-18 2.75092e-18 1 

-0.0838537 -0.0123214 1.98777 
-0.00506793 -0.0672208 3.18039 
6.24467e-19 -1.4289e-18 1 

-0.0984249 -0.0216278 -0.0554446 
-0.0264076 -0.112685 -0.0717268 
1.42039e-17 -1.00394e-17 1 

-0.109978 -0.00070217 0.102954 
-0.0458579 -0.0290318 -0.0925421 
-4.17931e-18 -8.64467e-18 1 

-0.204288 0.0697889 -0.269971 
0.0247312 0.0566061 -0.215134 
-3.04431e-18 -8.69803e-19 1 

-0.0696876 -0.041865 0.0728156 
0.0140091 -0.0317326 -0.0425105 
-8.95655e-19 1.32934e-17 1 

-0.0915401 0.0103198 0.691871 
-0.00516996 -0.0574186 -1.33699 
1.8375e-18 3.94956e-18 1 

-0.0851522 -0.198309 -0.221784 
0.220645 0.0392619 0.0227241 
-3.25612e-18 -1.93632e-18 1 

-0.320454 0.143421 -0.00065986 
-0.0583203 0.105228 0.299567 
5.56623e-18 1.47963e-18 1 

-0.111576 -0.00856569 -0.385156 
-0.00714449 -0.0312017 -1.68748 
-1.58219e-20 -5.59041e-19 1 

-0.521681 0.250945 0.183953 
-0.0872208 0.0553318 -0.321987 
-8.01389e-18 -9.73781e-18 1 

-0.111813 0.0178024 -0.179755 
-0.0377109 0.0159691 -0.177566 
8.11272e-18 3.9817e-18 1 

-0.123335 0.101288 -0.13371 
-0.00457388 0.0934018 -0.76812 
-9.5328e-18 2.47204e-18 1 

-0.341911 0.281588 -0.182536 
0.0739173 0.0976204 -1.53294 
3.00671e-19 4.14128e-18 1 

-0.0961634 -0.0270142 -0.798626 
0.0493664 -0.010279 -1.45548 
-2.60985e-18 3.22393e-18 1 

-0.10929 -0.024708 0.0273291 
0.0966405 -0.03754 0.0950425 
1.58194e-18 -1.96591e-18 1 

-0.0691139 -0.0356036 -0.0358762 
-0.0970752 -0.0367232 -0.0717006 
7.1838e-18 -6.89178e-18 1 

-0.141493 -0.00844364 -0.0280733 
0.0317581 -0.0454153 -0.0992083 
9.47486e-18 -3.38191e-18 1 

-0.0971776 -0.039271 -0.0563274 
-0.0190587 -0.0449944 -0.0644211 
-3.2854e-18 -3.78203e-18 1 

-0.0921822 -0.0288626 0.0977202 
-0.0138314 -0.0414015 -0.120896 
-1.92763e-18 -2.7091e-18 1 

-0.0739113 -0.0576146 -0.0416374 
0.0648885 -0.0140595 0.11998 
-7.33673e-18 8.5775e-18 1 

-0.0695865 -0.0189503 0.267213 
-0.0303925 -0.0384922 0.287112 
-1.19854e-17 -4.88549e-18 1 

-0.130799 -0.777454 -1.05728 
0.275588 0.241745 0.832845 
1.13394e-17 1.42886e-18 1 

-0.479565 0.257498 0.989798 
-0.563835 0.087286 -0.280658 
-8.23706e-18 -7.97135e-19 1 

-0.0986347 -0.00875248 -0.302337 
-0.0273191 -0.102113 -0.438986 
1.32855e-17 2.25163e-18 1 

-0.104546 0.046279 -0.0212872 
-0.042719 -0.0465817 -0.410024 
2.26006e-18 7.22957e-18 1 

-0.112507 0.0295865 -0.294277 
-0.0571778 -0.0286653 -0.203139 
1.39769e-18 1.36757e-17 1 

-0.114418 -0.0168728 -0.102945 
0.0215438 0.00352789 0.563615 
-5.05214e-18 -9.2382e-18 1 

-0.194039 0.0489428 -0.224302 
-0.0256347 -0.00476101 0.34137 
-1.76094e-18 -1.95969e-17 1 

-0.092184 -0.0444102 -0.696765 
0.0198814 -0.0670762 0.0509807 
-1.67174e-18 -2.04051e-18 1 

-0.0890366 -0.00655428 -0.210599 
0.027885 -0.02839 -0.145639 
2.83319e-18 2.91481e-18 1 

-0.0766251 0.00210306 0.0782979 
-0.0203079 -0.0642885 0.182161 
1.54873e-17 -4.53603e-19 1 

-0.381663 0.119152 -0.513548 
0.0839938 0.20081 -0.711094 
-1.46266e-17 1.13819e-17 1 

-0.140793 0.0218445 0.303517 
0.0628679 -0.0514432 -0.414598 
1.21128e-17 1.12278e-18 1 

-0.0984736 -0.0161118 0.0760718 
0.0060633 -0.0168945 -2.59669 
-4.56205e-18 -2.14949e-18 1 

-0.32509 0.389783 1.23716 
0.0657144 0.567824 0.938259 
-2.82632e-18 2.17632e-17 1 

-0.76241 -0.187308 0.455455 
0.14861 0.238289 -0.689505 
-1.40012e-17 -5.62876e-18 1 

-0.20228 0.0102558 2.13207 
-0.0190802 0.0522774 0.551355 
1.31196e-18 -1.6509e-18 1 

-0.343042 -0.235519 0.123528 
0.006862 -0.0483348 -0.169622 
-3.68043e-19 -1.84021e-18 1 

-0.137833 -0.0607212 0.316553 
-0.0222623 0.065353 0.0583526 
-1.61328e-17 3.99695e-18 1 

-0.10427 -1.60907 15.2159 
-0.0126657 1.08585 -4.87416 
-9.60942e-19 -1.23631e-17 1 

-0.165854 -0.0747762 0.24326 
0.0356501 -0.0679739 0.315066 
1.26294e-18 -2.35398e-17 1 

-1.17359 0.139202 -0.282023 
-0.266138 0.252293 -0.120168 
7.11196e-19 -2.76576e-18 1 

-0.0613387 0.0149563 -0.0531034 
-0.00643406 -0.0647472 0.0314071 
1.1966e-17 -9.56709e-18 1 

-0.116642 -0.00687791 0.0809642 
0.0179142 -0.000134445 -0.0712998 
1.10537e-17 2.39997e-18 1 

-0.085037 -0.0192709 0.47362 
0.0118364 -0.0945735 0.0681827 
2.61425e-18 -4.13923e-18 1 

-0.114025 0.00809957 0.169173 
-0.00754732 -0.0694881 -0.15114 
6.80416e-19 5.64232e-18 1 

-0.0692558 -0.0217868 0.0405313 
0.0352322 -0.0514217 0.0892142 
-3.69898e-18 9.14748e-18 1 

-0.0722716 -0.0197219 -0.069846 
0.015659 -0.0206089 -0.00885135 
-7.40599e-19 -7.18799e-18 1 

-0.106556 0.0419201 -0.0549686 
-0.00328414 -0.0268749 0.16442 
9.76528e-18 -6.76058e-19 1 

-0.151009 -0.0474936 -0.390909 
-0.0279695 -0.0387062 0.545424 
-6.62234e-18 -4.05798e-18 1 

-0.0532975 0.188374 -0.0895501 
-0.180107 0.0199044 0.00978119 
6.84226e-18 -2.9867e-18 1 

-0.127436 -0.0192967 0.147106 
-0.0342388 -0.087216 0.0830588 
3.21845e-18 -6.62622e-18 1 

0.107182 -0.644027 -0.424067 
0.574959 0.159235 -0.0205657 
7.91951e-19 1.05594e-17 1 

-0.101977 -0.0220795 0.0342388 
-0.0149661 -0.0487255 -0.166554 
8.24555e-18 -8.73059e-18 1 

-0.161434 -0.0244598 0.125628 
-0.0226423 0.032016 -0.1817 
-7.37847e-19 9.19747e-19 1 

-0.144931 0.0560999 -0.054495 
-0.0137909 -0.0776491 -0.0350594 
-6.09087e-18 -3.3973e-18 1 

-0.0984855 0.0344814 -0.00772148 
-0.108751 -0.0183083 0.0133256 
-7.12904e-19 -8.29661e-18 1 

-0.247017 0.0575125 0.0939259 
-0.169096 -0.0398956 0.365413 
7.61309e-20 3.50202e-18 1 

-0.0678029 -0.0123057 -0.0440274 
-0.0344986 -0.0555132 0.0780306 
-1.60567e-17 2.56086e-18 1 

-0.094124 -0.00314493 1.66272 
0.0137007 -0.0581493 1.099 
7.6022e-18 2.82527e-18 1 

-0.196067 -0.0511912 0.00357907 
0.130011 0.0351207 -0.24408 
-5.90352e-18 3.79512e-18 1 

-0.12494 -0.0167966 0.114907 
-0.0563372 -0.0486836 0.138044 
-7.83633e-18 -1.47584e-17 1 

-0.153563 -0.0068747 0.324213 
-0.0506592 -0.0100321 -0.0665833 
9.78126e-19 -2.15095e-18 1 

-0.215352 -0.506847 0.106514 
0.392371 0.30419 -0.0612021 
-7.7009e-18 2.81633e-18 1 

-0.128997 0.0188708 0.0253663 
-0.0738818 -0.0279064 0.0512192 
1.6604e-17 -4.3926e-18 1 

-0.813894 -0.245974 -2.06428 
0.167898 0.0670466 0.193564 
1.69372e-17 8.34674e-18 1 

-0.148169 -0.293287 1.23526 
0.281232 0.0454967 -0.393628 
4.18154e-18 -8.38509e-18 1 

-0.1189 -0.0948085 -0.10048 
0.0687128 -0.0588289 -0.0981866 
-5.69102e-19 1.26919e-18 1 

-0.515187 -0.388355 -0.721462 
0.298153 0.298477 0.54958 
-7.24317e-18 1.49443e-17 1 

-0.131572 -0.0563627 -0.905752 
-0.0179403 0.0942627 2.79742 
4.39683e-18 9.89287e-18 1 

-0.376886 -0.158841 0.147736 
-0.0720473 0.0189274 -0.227772 
1.23388e-17 -5.33568e-18 1 

-0.128646 0.034904 0.111797 
-0.0203172 -0.0122441 -0.609584 
-4.16283e-18 2.10776e-19 1 

-0.116088 0.0753828 -0.0287796 
-0.068397 -0.0832244 -0.142742 
-6.3447e-18 3.59442e-18 1 

-0.079836 0.0225912 -0.205853 
-0.109325 -0.0326332 -0.249786 
-2.98954e-18 1.49477e-18 1 

-0.0964806 -0.0392375 -0.0865369 
-0.0531606 -0.0658039 0.290489 
1.47117e-17 -4.56324e-18 1 

-0.18646 -0.0485037 -0.211253 
0.103894 0.115615 0.882329 
4.8257e-18 -1.85024e-18 1 

-0.161432 -0.0642376 0.158965 
-0.034895 0.0728966 0.74058 
-2.28893e-18 -7.71648e-18 1 

-0.104981 0.00986986 -0.546146 
-0.0297094 -0.0103165 -0.133055 
-4.46555e-18 9.82811e-19 1 

-0.106571 0.759969 -0.746614 
-0.751113 0.305573 0.0379228 
8.56841e-18 3.07807e-18 1 

-0.194766 -0.139429 -0.418394 
-0.00674908 0.0665067 0.206052 
4.12666e-18 3.20229e-17 1 

-0.172894 0.0467358 -0.127791 
0.0124807 -0.0241049 0.0281562 
-1.3167e-18 1.18353e-17 1 

-0.0890305 -0.00934798 -0.168836 
-0.0595147 -0.00321381 0.0434776 
1.96382e-17 -1.3262e-17 1 

-0.0879489 -0.0213568 -0.354768 
-0.00227733 -0.0187026 -0.472344 
1.16692e-17 1.27951e-18 1 

-0.0899883 0.00748794 0.414301 
0.0153695 0.0142914 0.048912 
3.83188e-18 -3.84097e-18 1 

-0.0333578 0.402007 -1.19117 
-0.00269031 0.0727059 0.715348 
-3.28434e-18 -1.4553e-18 1 

-0.175251 -0.044667 0.0351588 
-0.0610187 0.121608 -0.640736 
6.21644e-18 6.20346e-18 1 

-0.0396302 0.0242611 -0.415664 
-0.0573268 -0.0316518 -0.0297887 
-7.19482e-18 -5.63718e-18 1 

-0.130586 -0.032202 0.130315 
0.0339784 -0.0466035 -0.520445 
-1.3378e-18 4.78461e-18 1 

-0.0639517 0.120355 0.0451588 
0.0315935 -0.100301 -0.434501 
-2.78199e-18 -1.14157e-17 1 

-0.068034 0.013775 1.12034 
-0.0460863 -0.0379032 -0.348263 
8.71675e-18 -2.98143e-18 1 

-0.125598 0.0176653 -0.134661 
0.0135114 -0.00924336 0.410459 
-8.68792e-18 -1.26771e-17 1 

-0.0804556 -0.0481338 -0.258415 
0.0295803 -0.0379303 -0.0162943 
-9.49074e-18 -4.94517e-18 1 

-0.109766 -0.0919872 0.0543451 
-0.00398963 -0.102515 0.062179 
-3.92981e-18 2.58905e-17 1 

-0.0955692 -0.113366 0.418707 