# vtk DataFile Version 3.0
Output file generated by Yade's KinematicLocalisationAnalyser
ASCII
DATASET UNSTRUCTURED_GRID

POINTS 13483 float
682.153 26.7015 0.410169
899.999 43.102 0.444939
133.302 6.06093 0.449355
954.319 4.23558 0.25034
554.379 7.38559 -0.302096
348.355 34.0859 0.451484
173.508 6.70745 0.386171
636.238 9.86051 0.136413
550.95 21.9603 0.138241
830.631 11.7806 0.359205
233.2 8.73325 -0.109185
284.299 6.25567 -0.27129
738.984 27.7413 -0.149103
713.941 13.6477 0.0748698
151.991 16.7098 0.326298
245.436 33.688 0.394327
241.012 12.6504 -0.262194
319.238 9.31483 0.380914
376.877 31.7505 0.103481
583.606 8.53875 0.333583
454.922 35.7303 0.0989083
663.138 42.3514 0.252942
949.413 28.5137 -0.442894
799.051 39.8843 -0.433221
508.798 15.7775 0.288191
266.419 43.1406 0.124231
545.623 26.4595 -0.479522
656.517 18.4099 0.237224
49.9314 15.3665 0.44901
824.665 29.5992 0.312615
535.153 4.82811 0.314054
18.5372 22.3965 0.283948
916.229 39.5202 -0.256964
549.751 2.4938 0.455617
86.7373 42.6854 -0.100938
579.991 29.1912 0.261307
590.731 16.3741 -0.407596
380.49 21.9312 -0.177978
593.976 24.7109 -0.32044
388.171 32.2504 -0.385364
266.965 14.3776 -0.314134
481.2 34.4377 0.0685985
771.695 6.6753 -0.0891932
213.956 6.0764 0.382377
61.2995 6.88017 0.104172
75.5996 8.7542 0.280799
791.618 8.33461 0.478312
26.2649 11.36 0.294776
686.815 42.4689 -0.358402
773.475 21.7601 -0.34084
191.587 31.3904 -0.27938
893.905 31.8226 -0.13272
38.6404 27.5649 0.113673
594.978 2.93508 0.311077
157.806 7.36304 -0.442378
665.572 32.1958 0.363432
560.654 25.2461 -0.122441
193.727 0.915682 -0.26542
36.4361 2.4557 0.267444
385.799 17.2818 0.265324
699.709 43.2063 -0.132865
512.985 32.5075 -0.170235
442.169 1.03154 0.186546
804.911 7.40806 -0.317493
29.3043 41.7089 -0.234883
283.915 29.6465 -0.294266
830.724 7.18608 0.190467
764.179 41.7026 0.3463
462.741 8.46128 -0.459138
637.19 3.44862 -0.335346
867.834 27.6015 -0.375641
145.241 7.4281 -0.285254
554.004 24.4053 -0.126489
530.444 14.6889 -0.107102
326.181 16.3843 -0.224772
23.1903 13.2741 0.237405
923.466 29.8861 -0.321706
368.494 37.8319 -0.254198
770.394 18.7602 -0.316622
791.239 12.0349 0.232342
935.515 10.5554 -0.173919
516.775 33.4662 -0.167974
102.536 37.0237 -0.2698
784.421 31.6557 0.00292875
735.154 36.0275 0.0953519
958.09 33.979 0.0988266
926.767 1.18622 -0.465613
322.687 28.1292 0.413636
701.72 6.18595 0.0854154
27.1714 5.20878 0.398669
147.464 36.7628 -0.135879
571.451 13.9221 0.180647
913.016 22.6621 0.487878
217.414 27.8618 0.235959
49.4629 33.5477 -0.263148
548.531 1.16416 0.0943348
261.923 8.73103 -0.329601
871.179 36.4185 0.261971
898.338 24.2868 0.238097
401.053 20.2122 -0.253708
182.528 26.2624 -0.450839
615.306 36.783 0.410263
422.168 14.9297 -0.433453
459.671 28.8232 -0.0983327
420.154 4.42426 0.408734
612.997 10.6983 -0.0906318
959.981 11.0498 -0.176736
89.3784 37.8037 0.390715
372.499 4.70221 -0.176959
629.07 9.1848 -0.315133
400.071 42.557 0.443514
28.6739 23.7924 -0.44636
34.071 5.66375 0.324417
638.458 30.6181 -0.390494
563.865 22.8893 0.14429
29.3208 35.9883 -0.409032
103.516 29.6052 -0.208995
361.253 15.4652 -0.307076
676.822 18.1182 -0.122827
530.173 36.6228 0.29604
851.721 7.50429 -0.330957
841.751 6.07288 0.183624
430.564 35.9197 0.0967964
721.296 23.9515 0.0996721
265.38 16.8338 0.489649
367.221 3.61822 0.463408
115.258 30.5177 0.311644
129.494 23.1075 -0.251886
610.144 37.2564 0.0699379
340.584 18.3775 0.43349
818.859 32.4739 0.103979
769.008 40.8161 0.110592
537.127 19.8774 -0.37849
903.271 8.45674 0.267129
478.443 22.4119 0.224952
308.531 23.5723 0.307798
771.719 28.6236 0.271919
310.699 27.5984 0.376145
649.299 11.2946 0.166679
369.857 34.613 0.186849
565.16 11.1175 0.407149
408.936 30.4145 0.0878307
481.08 16.081 -0.104979
354.846 40.7005 0.429329
213.06 28.8526 -0.114926
905.865 41.0004 -0.160915
954.563 11.5105 -0.274521
6.72305 11.7473 0.471223
485.395 21.7446 -0.39561
42.6787 22.0007 -0.0799803
419.747 30.1082 -0.45697
441.042 24.0408 0.261052
83.4636 11.7469 -0.44578
58.0234 32.3411 -0.424756
252.63 13.0781 0.33274
701.283 36.897 -0.374254
652.244 19.4343 -0.428011
83.8376 20.4507 -0.444197
802.246 43.2936 0.405375
887.493 2.38341 -0.41339
755.777 37.9969 -0.460713
799.626 2.30624 -0.381306
619.972 25.5706 0.388438
664.762 42.7415 -0.440894
575.901 17.7313 -0.348738
950.964 2.87094 0.206793
250.152 24.0391 0.109049
142.666 33.9021 0.150526
276.609 6.46259 0.352602
105.72 3.98075 -0.23458
71.6003 9.70414 -0.175464
308.44 34.8114 0.296799
18.8342 24.1223 -0.362365
626.603 18.6738 -0.382326
686.702 37.4764 0.195343
518.86 20.4757 -0.329216
938.439 34.9991 -0.351894
455.332 8.31528 0.0913181
488.594 34.7916 0.209704
604.439 3.40342 -0.174162
25.7215 23.26 0.368367
652.308 4.22184 -0.377399
615.244 4.35029 -0.277048
231.222 11.1967 0.458135
476.751 16.0273 0.181589
348.424 6.22152 0.301211
434.561 18.4937 -0.334143
856.644 39.7086 0.113152
215.415 25.0561 0.398034
917.5 6.74768 -0.314312
855.6 35.9464 -0.318945
429.484 9.86801 -0.196301
827.248 2.3554 0.378536
686.901 24.068 -0.395406
861.05 17.4114 -0.366185
483.116 41.2122 0.262383
558.569 12.0239 0.316939
522.736 42.7707 0.218125
500.08 8.50361 0.147267
759.469 37.115 0.268625
756.993 33.5084 0.316627
215.453 37.8605 0.338706
933.112 10.424 -0.108187
667.271 43.3612 0.241742
12.6431 16.4961 -0.188128
456.905 24.743 0.338293
210.225 22.3521 -0.388478
104.203 37.9072 0.197734
910.508 20.229 0.408627
751.926 41.4209 0.222467
357.586 24.7653 0.362922
600.845 9.98703 0.319878
92.1748 42.6537 -0.161769
277.666 25.3914 -0.473833
629.574 22.4136 0.371784
547.328 17.8117 0.407777
294.629 0.890216 -0.340694
625.587 38.5481 -0.223754
602.796 39.4016 0.433518
542.319 31.865 0.381039
561.967 0.755867 -0.466501
811.856 17.4485 -0.329987
201.776 11.5621 -0.162003
563.735 34.488 -0.410106
639.491 37.4475 0.11137
81.2681 0.95016 -0.273078
282.367 4.66507 0.163633
953.836 13.3802 0.184456
935.86 12.5067 -0.350404
962.285 15.2927 -0.450867
340.283 8.3568 -0.227694
868.858 21.2311 0.398357
457.346 39.9044 -0.308757
504.596 0.81083 -0.401081
743.009 33.0469 0.421241
30.4746 29.7044 0.0642653
370.699 39.8818 0.453228
283.287 2.8107 0.298797
919.474 36.7826 -0.193764
823.773 44.2479 -0.219898
322.323 10.6017 0.154159
764.474 27.1727 0.0832811
630.758 2.63895 0.222458
612.89 6.36515 0.410853
108.664 17.4878 0.448965
340.044 1.03061 -0.216646
385.457 2.25555 -0.365447
15.7766 7.55744 0.279618
4.85788 29.7818 -0.227789
182.2 18.6458 -0.335392
76.7239 40.4741 0.21081
75.1021 27.7396 0.311066
476.105 14.3511 -0.357664
412.252 33.9023 0.459474
891.598 33.8294 0.115197
22.1358 3.84742 -0.293312
78.9224 6.75696 -0.136812
713.048 36.0339 0.132246
330.946 0.932765 0.315386
409.591 15.6111 -0.0946276
264.865 4.46712 0.385091
747.891 20.2851 0.172566
508.032 8.2119 0.388716
872.108 19.1367 -0.339223
720.438 27.447 -0.303115
769.421 16.9421 0.0700861
472.389 25.6498 0.460817
114.658 43.2553 0.305431
614.199 40.6027 0.0669572
857.8 12.9496 -0.176161
267.27 29.4036 -0.227779
36.3888 16.639 -0.158868
377.648 13.4891 0.47172
121.267 39.0497 -0.382359
300.77 41.0845 -0.187619
478.452 1.04717 0.194572
920.212 26.9615 0.376107
791.368 0.800833 0.455696
373.124 2.98872 0.440859
336.864 25.8228 0.140031
521.507 39.5314 0.196531
91.3844 7.66784 0.450462
222.776 43.3598 0.378016
901.362 26.4941 0.352676
558.367 37.3385 -0.0743093
224.972 40.2422 -0.246117
180.889 40.7629 -0.391574
961.826 30.0052 -0.328357
958.06 11.0801 -0.405751
690.187 3.36176 -0.441371
214.043 23.8059 -0.0920846
622.11 26.6031 0.107963
624.272 26.3613 0.249415
460.249 5.50173 -0.139442
542.909 0.937417 -0.280396
889.312 35.7842 -0.452997
95.7477 29.7063 -0.215678
753.978 17.3646 0.438968
308.539 15.228 -0.320583
11.3216 2.26688 -0.330549
141.174 35.4448 0.189727
75.504 22.2638 -0.431093
810.91 34.4479 -0.293196
926.732 40.5412 -0.160741
209.207 27.3514 0.169459
948.686 11.1344 -0.293246
50.6451 35.4351 0.243706
102.304 28.0688 0.152796
724.905 12.5187 0.351383
465.299 17.8051 -0.446632
587.256 16.2665 0.105479
267.949 27.4861 -0.0757681
709.528 4.45235 -0.421418
963.239 10.5277 0.3068
33.5332 30.7875 0.262329
303.714 7.65641 0.187994
250.187 14.701 0.245788
1.11807 34.2711 -0.147333
253.652 14.1648 -0.35898
238.296 10.7742 0.134401
241.513 25.4375 -0.281183
149.814 26.9081 0.116553
620.299 14.5834 -0.317573
188.551 13.854 -0.317068
913.554 38.2427 0.215785
196.16 3.7951 0.445889
53.4198 36.5439 0.185176
864.195 45.3555 -0.426463
316.039 30.6488 0.375434
780.151 21.9054 0.407395
931.78 26.6674 -0.498779
338.263 8.99539 -0.113638
853.411 27.9517 -0.330446
369.713 2.67341 -0.336737
468.402 23.2176 0.372479
776.74 15.3079 0.415744
119.049 11.618 -0.365189
544.68 3.97228 -0.450388
876.161 16.8874 -0.196833
99.2818 7.48461 -0.179464
316.748 14.3432 0.19911
476.989 11.4056 -0.199485
949.108 2.50714 0.358713
447.707 1.76479 -0.419649
199.558 37.5803 0.269471
860.691 10.3626 -0.273035
144.64 34.937 -0.138202
295.985 30.7126 -0.384023
450.995 21.0855 0.210102
652.108 12.9867 -0.318002
436.069 9.93653 -0.389352
514.702 26.8009 -0.395641
901.351 42.8187 -0.266181
53.5435 10.6833 -0.0795872
336.735 37.0012 -0.105088
427.309 26.0147 -0.348624
461.087 20.5555 0.249206
590.466 42.8957 0.356908
881.372 33.8134 0.19279
763.327 32.7384 0.35675
254.273 33.1272 -0.375089
15.8805 30.1787 0.149537
755.162 34.326 -0.118104
575.599 39.7631 0.0575911
258.409 38.0624 0.0938223
788.766 29.1568 0.113241
170.597 8.96085 0.1861
412.887 20.5137 0.254382
523.29 40.6584 0.0978322
466.533 19.1137 0.183507
896.52 45.3192 -0.290979
479.895 3.31436 0.409147
56.3376 24.4485 0.0819817
530.634 30.4332 0.354249
489.925 40.0273 0.372154
916.77 32.4279 -0.218921
850.371 27.013 0.242328
613.123 17.919 -0.147442
906.056 34.1837 0.408639
329.987 2.04996 -0.434102
426.081 28.1758 0.436684
32.7219 37.7047 -0.297266
856.706 28.6507 0.136373
695.879 18.9365 -0.478872
522.567 0.79433 -0.459151
142.59 4.38011 0.290259
481.188 38.7222 0.105007
13.9707 0.904226 0.312816
947.796 5.21528 0.105072
416.998 37.8474 -0.194778
[...]
POINT_DATA 13483
TENSORS Strain_matrix float
-0.0408477 -0.0234427 -0.0512451 
0.0262066 -0.0472329 -0.0432723 
-2.38613e-19 1.18484e-18 1 

-0.0600247 -0.0295397 -1.159 
0.0125158 0.0141667 -1.02609 
2.03752e-18 2.85134e-18 1 

-0.00698661 -0.00278175 -0.690969 
0.00174529 -0.0960757 -0.332004 
-6.52348e-18 -1.07475e-18 1 

-0.122582 -0.00697604 -0.116822 
-0.0134007 -0.0050197 -0.0505866 
-1.09213e-17 -3.65512e-19 1 

-0.0231674 -0.00104532 -0.0246839 
0.0384736 -0.0993089 -0.00963957 
-3.9898e-18 -2.0899e-18 1 

-0.0239557 0.00291877 -0.504851 
0.0039695 -0.0627336 -0.059706 
-1.22241e-18 -9.47077e-19 1 

0.00603175 -0.0111601 0.0221855 
0.00380839 -0.112209 0.0150607 
5.58068e-18 -9.373e-18 1 

-0.0370049 0.00886497 -0.0869594 
0.00717341 -0.0731049 -0.0537835 
-5.6447e-18 3.11392e-18 1 

-0.031713 0.0246158 -0.321848 
0.0572228 -0.0478514 -0.231614 
-5.35728e-18 -1.64839e-18 1 

-0.102397 0.0185273 0.0333336 
0.0312463 -0.0966845 0.42372 
-1.32029e-17 -7.3943e-19 1 

-0.0145216 0.00702321 -0.0537729 
-0.00883945 -0.0653003 -0.0276607 
-2.63789e-18 6.4818e-18 1 

-0.0257588 -0.0360292 0.0915879 
-0.0660249 -0.095545 0.0627881 
-1.25238e-18 1.03706e-17 1 

-0.0531701 0.0425329 0.234546 
0.0171473 -0.0283016 0.145181 
-1.34599e-18 -1.49328e-18 1 

-0.0917808 0.0219633 -0.257628 
-0.00254126 -0.0512578 0.174909 
-2.86687e-18 -1.22047e-17 1 

-0.0394096 -0.00403497 0.0636603 
0.0191614 -0.0733507 0.35413 
4.34692e-18 5.04514e-18 1 

0.00252691 -0.0273627 -0.0627728 
-0.010306 -0.0512314 -0.228086 
4.22402e-18 4.46237e-18 1 

0.0154554 -0.0344648 0.0542376 
-0.00764074 -0.121535 -0.141792 
5.76695e-18 1.43656e-18 1 

-0.0476599 0.0128896 -0.00498442 
0.0228177 -0.102189 -0.0521047 
2.10656e-18 4.4258e-18 1 

-0.0462274 -0.0406377 -0.1368 
-0.0679042 -0.0397593 0.142394 
-4.86232e-18 -1.72207e-18 1 

-0.0277812 0.0234888 0.202681 
-0.0551041 -0.0906222 -0.129894 
1.26857e-17 -5.57099e-18 1 

-0.0261705 0.00869586 -0.121844 
0.0132604 -0.0329887 -0.0102553 
9.70746e-19 1.21343e-17 1 

-0.0480527 -0.0278866 0.244744 
0.0181679 -0.0358936 0.0311939 
6.56036e-18 5.82006e-18 1 

-0.110707 0.0022372 -0.26929 
-0.0424594 0.00129362 -0.303522 
-5.95582e-18 -4.60815e-18 1 

-0.0483932 -0.00079249 -0.684073 
-0.000727868 -0.0152929 -1.23792 
2.23157e-18 -5.61117e-19 1 

-0.0173534 -0.01795 -0.111425 
0.0722595 -0.0633777 0.0447814 
-1.06422e-17 1.34004e-17 1 

0.00496177 0.0126309 -0.0209529 
-0.0699994 -0.0158223 0.00630999 
1.70272e-19 2.72435e-18 1 

-0.0314917 -0.00190608 0.847879 
-0.00905486 -0.0574248 -2.97024 
-2.49277e-18 1.35035e-18 1 

-0.0415313 0.00331859 0.0193018 
-0.00740197 -0.0526444 0.0404621 
1.14708e-17 1.0233e-18 1 

-0.0281242 0.00957595 -0.512835 
0.0410442 -0.0897039 0.676746 
-5.31486e-18 4.12573e-18 1 

-0.11449 -0.0362238 0.0867828 
0.0140501 -0.0214336 -0.0507868 
-1.22054e-18 -5.28902e-18 1 

-0.0362812 -0.0360413 -0.0248004 
0.00904698 -0.156733 0.387742 
4.48422e-18 -4.99274e-18 1 

-0.0275884 0.036951 -0.12555 
0.090829 -0.114689 0.0090128 
4.54231e-18 5.47917e-18 1 

-0.0747183 0.0215744 0.286533 
-0.00908327 -0.00595287 0.144691 
4.22198e-18 -1.95537e-18 1 

-0.0052511 -2.15964e-05 -0.351152 
-0.0145978 -0.0135737 0.983196 
-2.96912e-20 3.48245e-17 1 

-0.0485575 0.0409181 0.0118755 
-0.0589875 -0.0842787 -0.119532 
1.10544e-17 -1.54248e-17 1 

-0.0403694 -0.0291358 -0.00314134 
0.00541528 -0.0409266 0.162794 
-6.44414e-18 -2.39658e-18 1 

-0.0290653 0.00165205 0.453412 
-0.00812356 -0.0654535 0.184786 
-6.71343e-18 -7.43201e-19 1 

0.057756 -0.0319378 0.076576 
0.0223117 -0.19031 -0.0541499 
1.40233e-17 8.12157e-18 1 

-0.00782723 -0.0360465 -0.0577653 
0.0345483 -0.0717321 0.120683 
6.80542e-18 -1.4803e-17 1 

-0.0102914 0.00229324 0.33836 
0.00711204 -0.0681625 -1.07228 
-1.50506e-18 2.26551e-18 1 

-0.0286697 0.00925579 0.0359223 
-0.0340863 -0.0843871 0.34795 
1.95892e-18 -1.12873e-17 1 

0.0259405 -0.00178374 0.0377935 
-0.0521113 -0.0564391 0.0454619 
-8.58952e-19 -6.84478e-18 1 

-0.0545927 -0.0500175 -0.0063132 
-0.0128654 -0.0580011 -0.120768 
7.21458e-18 -1.01682e-17 1 

-0.0118599 -0.0316569 0.186816 
0.00781835 -0.104246 -0.213324 
-8.02698e-19 -5.99245e-18 1 

-0.0113165 0.0189499 -0.0214455 
0.0122744 -0.0996279 -0.0219818 
6.58326e-18 -7.37879e-19 1 

-0.00808136 0.0022302 0.110479 
0.0274413 -0.0894095 0.001107 
-1.2519e-18 1.3657e-18 1 

-0.0400453 -0.00221596 -1.36949 
-0.0165095 -0.0854261 0.517677 
-2.13625e-18 5.8791e-18 1 

-0.0142434 -0.00124088 0.0125971 
-0.00478694 -0.139488 0.025241 
3.23937e-18 1.06707e-18 1 

-0.0588936 -0.0407072 -0.0607563 
-0.0213105 -0.0338607 0.00698095 
2.53379e-18 -9.55929e-18 1 

-0.0522985 0.0191213 0.0969828 
0.00874651 -0.0348199 -0.194891 
2.53581e-19 3.53378e-18 1 

-0.0232685 0.0322409 0.102778 
-0.0512007 -0.0481168 0.00109288 
5.77598e-18 -1.09584e-18 1 

-0.0597966 -0.026618 -0.0469652 
0.0050672 -0.0371418 -0.185051 
7.53473e-18 -6.64039e-18 1 

-0.00371249 0.0179899 -0.0710263 
-0.0433487 -0.056564 -0.0240334 
1.62664e-18 -3.10721e-18 1 

-0.040609 0.0121432 0.0145864 
0.0103832 -0.0667925 -0.157268 
2.803e-18 1.72508e-17 1 

-0.0201702 -0.0055826 -0.221293 
0.00996229 -0.108292 -0.263911 
-3.28464e-18 -4.72813e-18 1 

-0.0395824 0.00644041 -0.371527 
-0.0033364 -0.0393485 -0.35708 
-5.47602e-18 3.89696e-18 1 

-0.0321624 -0.0562755 0.0518727 
0.0362878 -0.0519366 -0.110256 
7.02841e-18 5.713e-18 1 

-0.0130241 0.0725482 0.106531 
-0.0246959 -0.171101 -0.0462285 
-1.18129e-17 4.88449e-18 1 

-0.00996935 0.0234037 -0.0842463 
0.0168101 -0.150089 0.140582 
1.07086e-17 -1.17167e-17 1 

-0.0283629 0.00642514 0.0354948 
-0.0393002 -0.0821209 0.0935257 
-1.22759e-17 1.13316e-18 1 

-0.0358745 0.149172 -0.246297 
0.0267991 -0.00218049 0.0199227 
-3.44588e-19 2.58629e-18 1 

-0.0196903 -0.00911177 -0.0380788 
0.026216 -0.023988 -0.0376965 
7.34479e-18 2.90588e-18 1 

-0.0302643 0.00699865 -0.0687345 
0.00135248 0.00946757 0.0472818 
8.65862e-18 1.18871e-17 1 

-0.0379746 -0.016396 0.182178 
0.0107025 -0.084549 -0.0946496 
-6.49914e-18 7.01769e-18 1 

0.0174561 -0.00702931 0.225107 
0.013214 -0.0621828 0.284556 
-2.43567e-18 2.29023e-18 1 

-0.0717105 -0.0394237 -0.0247553 
0.0440297 -0.0519982 0.00559177 
-2.56194e-18 3.66486e-18 1 

-0.0836028 0.0124027 0.00861588 
0.0430114 -0.071005 0.217907 
-6.00508e-18 -1.28168e-18 1 

-0.0674641 0.0237358 -0.00471134 
0.00758998 -0.0101008 0.327116 
1.53422e-18 2.45476e-18 1 

-0.0375352 0.00246713 0.389306 
-0.0383262 -0.0996039 0.0532726 
-4.8303e-18 2.13209e-18 1 

-0.0623106 -0.0243539 0.0980935 
-0.00593739 -0.113526 0.0870507 
-1.67375e-18 -4.47147e-18 1 

-0.0636795 0.0400315 0.0504882 
-0.033646 -0.0344052 0.00524039 
5.71077e-18 -2.24834e-19 1 

-0.00101922 -0.00417789 -0.13722 
-0.00161936 -0.0956731 0.0995131 
1.71374e-17 -2.06013e-18 1 

-0.0159566 -0.018457 -0.0977521 
-0.0511386 -0.0730314 0.0805759 
-2.79295e-18 -4.69723e-18 1 

-0.0147661 -0.0114149 -0.0272661 
-0.0104575 -0.0743999 -0.0506961 
1.01756e-17 1.77863e-17 1 

-0.0284355 -0.0212617 0.0310671 
-0.00304258 -0.0595338 -0.00833725 
-3.22613e-18 1.06834e-18 1 

0.000198863 -0.0314658 0.0410786 
-0.0462944 -0.0953109 -0.0281324 
1.16037e-18 2.78006e-19 1 

-0.0703999 0.00459501 0.0304756 
0.088363 -0.0965396 -0.0908786 
7.20118e-18 -3.93325e-18 1 

-0.0247472 0.00915498 -0.30155 
0.0163464 -0.0509822 0.229546 
7.7491e-18 -1.0956e-17 1 

-0.0477529 0.00158545 -0.0437769 
0.035882 -0.0914634 0.00841382 
2.39865e-18 -1.25317e-17 1 

-0.0428103 0.0302361 -0.00974172 
-0.0306253 -0.0611257 0.00112028 
1.4913e-17 7.78185e-18 1 

-0.0925202 0.0287616 -0.0885222 
-0.0177461 -0.0679668 0.210675 
-1.28423e-17 -1.33137e-17 1 

-0.00961427 -0.00265273 0.0887733 
0.00726356 -0.028838 0.0481676 
-1.38131e-17 -3.8541e-18 1 

-0.0190964 0.0088583 0.0119195 
-0.0148054 -0.051157 -0.0234021 
-8.94337e-18 -7.9839e-18 1 

-0.00349619 -0.0157231 0.0364793 
-0.0202576 -0.0875709 -0.109672 
-6.18404e-18 4.98588e-18 1 

-0.0476693 -0.0225332 -0.0321981 
-0.0181956 -0.0164627 -0.125339 
6.29779e-18 2.11444e-20 1 

-0.0586131 0.0211256 -0.0989261 
-0.044834 -0.010381 0.0059775 
2.30929e-19 -1.14887e-17 1 

-0.091638 0.0028005 -0.869936 
0.00942543 -0.077421 -0.0227359 
-5.30466e-18 -1.66102e-17 1 

-0.0326433 0.00983566 0.0603444 
0.0481527 -0.0775786 -0.141718 
1.14958e-17 3.7517e-18 1 

-0.0468803 -0.0183911 0.0243906 
0.0455546 -0.0799832 -0.104206 
7.17453e-18 -7.6593e-18 1 

-0.0288455 0.000939242 0.0335258 
0.0049642 -0.0972334 0.27885 
-7.72947e-18 -9.13482e-19 1 

-0.040691 -0.030193 0.192075 
0.000171916 -0.0419212 -0.211339 
6.72564e-19 -1.45562e-17 1 

-0.0150102 0.00568101 0.0289035 
0.0202061 -0.0772922 0.104674 
3.77036e-18 9.48519e-18 1 

-0.081375 -0.0250818 -17.7395 
-0.00277041 -0.0393184 -3.77573 
-4.0301e-18 4.11998e-19 1 

-0.016939 0.0307007 0.0822079 
-0.0167954 -0.07489 0.109595 
4.40677e-18 9.9597e-18 1 

-0.0267005 -0.0201845 0.0912677 
0.0282431 -0.0342819 -0.0913876 
-3.72654e-18 2.01737e-18 1 

-0.0208926 -0.0363112 0.139472 
-0.0207354 0.00487821 -0.277679 
-1.39793e-18 2.25547e-17 1 

-0.0259643 0.00369695 -0.0161974 
-0.0171156 -0.0612261 -0.161181 
2.10138e-18 -3.27539e-18 1 

-0.0706474 0.0179847 0.0164064 
-0.0329082 -0.0335535 -0.0194991 
-1.69307e-18 -2.48982e-18 1 

-0.0850041 0.00433653 -0.0405657 
-0.0324262 -0.0183045 -0.018435 
7.32429e-18 -1.61269e-18 1 

-0.00689469 0.023691 0.119027 
-0.0430661 -0.0763007 -0.031214 
1.47258e-17 8.64634e-19 1 

-0.0163932 -0.0152488 1.08172 
-0.00431001 -0.061709 -0.0409289 
-3.09693e-18 -1.90622e-18 1 

-0.0303648 -0.00738119 0.0359571 
0.00481627 -0.0415045 0.573301 
-3.28083e-18 -3.24974e-18 1 

-0.0119729 0.0106548 -0.656947 
0.0252983 -0.106338 1.18551 
-8.20694e-18 -8.82633e-18 1 

-0.0198544 0.0304332 -0.160738 
-0.0618633 -0.0557649 0.00645552 
2.50063e-18 2.45963e-19 1 

-0.0218083 -0.0160955 0.0452371 
0.0213161 -0.097182 -0.159522 
-9.00259e-18 -4.76973e-18 1 

-0.0309822 0.00729009 0.220707 
0.0351511 -0.0789409 0.0483408 
-7.77899e-18 -5.52718e-18 1 

-0.0360477 0.0483032 -0.0497093 
-0.0348419 -0.121494 0.0799586 
-4.88478e-18 2.03533e-18 1 

-0.000337528 -0.00504184 -0.22793 
-0.0353425 -0.0600086 -0.172411 
-9.60966e-19 -9.8904e-18 1 

-0.0324583 -0.0165111 -0.0530117 
0.0031212 -0.0935426 0.0772182 
9.89233e-18 -2.94233e-18 1 

-0.0421819 0.02778 0.262431 
0.013964 -0.0997234 -0.396288 
-1.05633e-18 -1.05633e-18 1 

-0.0233493 0.00649231 0.0286616 
0.0267304 -0.0577986 1.06476 
1.6131e-18 1.76868e-18 1 

-0.0154548 0.0149873 0.20834 
-0.0035699 -0.0880639 -1.31207 
2.36074e-18 -6.02395e-19 1 

-0.0220991 0.00529566 0.0754807 
-0.0035983 -0.122302 0.0441609 
-9.34158e-19 -1.41139e-18 1 

-0.032639 -0.0133657 -0.603613 
0.0188503 -0.0440843 0.0354143 
2.80395e-18 6.52103e-18 1 

-0.0627611 0.00115607 -0.07656 
0.028528 -0.00659724 -0.150141 
-2.07393e-17 -4.36787e-18 1 

-0.0129628 -0.00615378 -0.0114434 
-0.00381235 -0.0392616 0.135524 
8.19015e-18 -9.75018e-20 1 

-0.0163032 0.0147976 0.0458419 
0.00975602 -0.0516841 0.0849444 
4.01221e-18 3.00916e-19 1 

-0.0249082 0.0122283 -0.064227 
0.0461851 -0.0709495 -0.0874652 
-1.23593e-17 -8.23951e-18 1 

-0.0350758 0.0378159 -0.0350901 
-0.0342346 -0.0806872 -0.0347636 
-2.29232e-18 9.35267e-18 1 

-0.0439067 0.0272524 -0.0164869 
-0.0280053 -0.0157187 -0.08373 
9.12722e-18 4.74409e-18 1 

-0.0657828 -0.00833874 0.00515926 
0.00734355 -0.100894 -0.407439 
-2.06793e-18 -1.17273e-17 1 

-0.081441 0.0350165 0.00736958 
-0.0622717 -0.067193 0.0654527 
-7.59275e-18 2.28619e-19 1 

-0.0253662 0.0190907 -0.0366457 
-0.0162935 -0.0283813 0.0791194 
-4.86064e-18 -4.30496e-18 1 

-0.0411019 0.0282683 -0.00142927 
-0.0323431 -0.0394102 0.10655 
-7.51988e-18 6.69116e-18 1 

-0.0127742 -0.0140041 -0.127579 
0.0113633 -0.0883498 -1.22426 
-5.77364e-19 -2.34732e-18 1 

-0.0258345 -0.00484377 -0.112827 
-0.0114122 -0.129494 0.281996 
3.90864e-19 9.32329e-18 1 

-0.0540711 -0.00168074 0.0698585 
0.00814523 -0.0441866 -0.0493455 
-8.17229e-18 5.0298e-18 1 

-0.0436458 -0.0052884 -0.338568 
-0.0102752 -0.095246 -0.397743 
5.5658e-18 1.0063e-17 1 

-0.0258523 -0.000524689 -0.02392 
-0.024471 -0.0472582 -0.11911 
-1.00634e-19 4.62918e-18 1 

-0.0173915 0.000594493 0.42282 
-0.00860822 -0.073351 0.349088 
-5.58181e-18 3.84953e-19 1 

-0.0465952 -0.0127145 -0.134238 
0.0132819 -0.0165062 0.0628719 
9.8228e-19 1.42081e-17 1 

-0.0788714 0.0226267 0.065891 
0.00487029 0.00620101 0.0944286 
-9.64322e-18 1.51474e-17 1 

-0.0261783 0.0233185 0.0826789 
-0.0107822 -0.0603069 0.117082 
3.09181e-19 6.65065e-18 1 

-0.101989 0.0196161 0.0392667 
0.0159366 -0.0483149 -0.0400641 
8.92577e-18 -9.03331e-18 1 

-0.0153717 -0.00267163 0.122759 
-0.0245069 -0.0450531 -0.0562747 
-7.72891e-18 -1.86239e-18 1 

-0.0206701 0.018225 -0.0609722 
-0.00852127 -0.0498583 0.0291573 
2.074e-18 -4.997e-18 1 

-0.067791 0.0374876 -0.0407593 
0.0088871 -0.0132856 -0.106567 
-4.83635e-18 -7.82875e-18 1 

-0.0109842 -0.0229592 -0.412235 
0.0395864 -0.0666354 -0.236984 
-2.29912e-18 -1.18047e-17 1 

-0.0334306 -0.00483774 -0.0170971 
0.0197528 -0.0776772 0.0887046 
-6.61777e-18 6.10369e-18 1 

-0.035389 0.0154608 0.00450361 
-0.0798393 -0.029772 -0.181741 
1.00566e-17 2.11065e-18 1 

-0.0278548 -0.0225816 -0.00850821 
-0.00027562 -0.065872 -0.0243997 
-6.62203e-18 3.52675e-18 1 

-0.0154081 -0.0130667 -0.031474 
0.032096 -0.0636514 0.00103015 
-8.15002e-18 -7.22535e-18 1 

-0.0134756 -0.00585131 -0.0528463 
-0.00696295 -0.0552865 -0.106021 
7.10138e-18 -3.92388e-18 1 

-0.00959531 0.0115855 0.231304 
-0.00352743 -0.0723048 -1.95731 
-6.64292e-18 -9.16187e-18 1 

-0.00544994 0.0059136 -0.00919633 
-0.0154193 -0.0453023 0.0955597 
-9.36794e-18 -1.01306e-18 1 

-0.0497104 -0.0296193 -0.0869986 
-0.00891443 0.00661867 0.133186 
1.89671e-18 5.10561e-18 1 

-0.0751288 0.00865778 -0.131033 
0.00684685 -0.0618056 -0.0341158 
3.02374e-18 6.82781e-18 1 

-0.0155368 -0.0100226 -1.77775 
0.0139637 -0.125877 0.639266 
-1.46775e-18 2.81649e-18 1 

-0.0371884 -0.00492098 0.118626 
0.00632394 -0.0699342 -0.253463 
2.98916e-19 1.23126e-18 1 

0.0336877 0.01858 0.0185163 
0.0226409 -0.0790304 0.00183796 
1.52244e-17 -6.79129e-18 1 

-0.0111242 -0.00613661 0.419939 
0.0206779 -0.0617333 0.317749 
1.18346e-18 -6.70367e-18 1 

-0.039216 0.0306128 -0.0104455 
-0.0263772 -0.0703692 0.188731 
-6.37574e-18 4.11746e-18 1 

-0.0118926 -0.0101032 0.867556 
0.00656589 -0.095919 -0.567238 
-7.14675e-18 -6.81113e-18 1 

-0.00613626 -0.000287305 -0.244503 
-0.00968761 -0.0670959 -0.361302 
-5.04033e-18 3.86175e-18 1 

-0.030324 -0.00789612 -0.00418235 
-0.0229571 -0.0737719 0.115229 
-7.2795e-18 1.03465e-18 1 

-0.0713802 0.00322596 -0.00812028 
0.0371166 0.0302686 -0.270892 
2.07471e-18 1.44077e-18 1 

-0.0453074 0.00391878 -0.0701463 
0.0194312 -0.0570932 -0.0242501 
-5.29537e-18 6.25817e-18 1 

-0.0298758 -0.00596953 0.166509 
-7.22134e-05 -0.0581123 0.567581 
6.2879e-19 6.0914e-19 1 

-0.0445265 0.0334067 0.127968 
0.0211057 0.0307035 -0.0510214 
-1.594e-18 -7.72297e-18 1 

-0.090443 0.0369563 -0.222029 
0.0304066 -0.100212 0.265878 
8.53997e-19 -9.28721e-18 1 

-0.0491938 0.00580548 2.71036 
-0.00357201 -0.0327371 0.842452 
2.58513e-18 1.06492e-17 1 

-0.0418185 -0.0319398 0.170501 
-0.00842113 -0.0978618 -0.0328283 
-8.83036e-18 -1.24531e-17 1 

-0.0312038 -0.0162796 0.186261 
-0.0357699 -0.0282793 -0.0513322 
5.11671e-18 9.08236e-18 1 

-0.035788 -0.0682103 0.528162 
0.0175984 -0.051653 -0.110054 
3.17652e-20 -1.41117e-17 1 

-0.0186104 -0.0328036 0.0461317 
0.0620792 -0.0953307 0.169481 
1.76229e-18 9.55046e-18 1 

-0.095928 0.0912233 -0.141675 
0.0135069 -0.0949466 0.211878 
-9.2294e-18 2.37727e-18 1 

-0.0164678 0.00449104 -0.000958432 
0.0282544 -0.0831918 -0.0450169 
-1.05307e-17 1.35552e-18 1 

-0.0393845 -0.0180402 0.0680527 
-0.00287839 -0.0420794 -0.0318245 
-3.83376e-18 -4.54118e-18 1 

-0.0108393 -0.0706283 0.292299 
0.00838352 -0.123298 0.233273 
8.1615e-18 2.59983e-18 1 

-0.0225074 0.00107906 0.0570263 
-0.0220672 -0.127327 0.433161 
-9.08831e-18 5.07519e-18 1 

-0.022617 -0.000152402 -0.0266601 
0.0408122 -0.0650099 0.104217 
-5.26374e-18 -5.85431e-18 1 

-0.009353 0.0019537 -0.100137 
0.00827819 -0.0572572 -0.0662411 
-2.70791e-19 -1.25382e-17 1 

-0.0201892 0.0403237 -0.111779 
0.0519544 -0.0889985 -0.23509 
6.25879e-18 -6.06441e-18 1 

-0.0591006 -0.00914165 -0.24835 
-0.0158669 -0.0497919 0.421706 
3.71333e-18 -5.74515e-18 1 

-0.0236028 0.00013276 -0.234023 
-0.0056239 -0.0258942 0.0186298 
3.07109e-18 2.33548e-18 1 

-0.0555379 0.0138252 0.0597509 
-0.0199053 -0.0849988 0.015032 
-1.08746e-17 -4.19523e-18 1 

-0.0817343 0.0404912 0.00363497 
-0.011426 -0.0191306 -0.218862 
7.75347e-19 -2.48539e-18 1 

-0.0331577 0.00555884 0.0216628 
0.0127173 -0.0690191 -0.13038 
4.82429e-18 1.98141e-18 1 

-0.0278113 -0.0199891 0.134896 
0.00880954 -0.026623 0.00151697 
-1.72725e-17 -5.33147e-18 1 

-0.0286085 0.033724 0.0282231 
-0.026754 -0.0982629 -0.0313213 
4.25359e-18 -4.39759e-18 1 

-0.0254672 0.0383466 -0.12341 
-0.0790871 -0.0696052 0.413278 
1.01798e-18 -2.37546e-18 1 

-0.0425801 -0.0299665 -0.0477047 
0.037738 -0.112019 0.0231391 
4.50199e-19 -2.80249e-18 1 

-0.0235196 0.00176411 -0.0787237 
-0.0373698 -0.0696337 0.0451292 
4.45252e-18 -4.11973e-18 1 

-0.0169455 -0.000482466 -0.488595 
0.0127755 -0.0848094 -0.0968174 
-9.16795e-19 -1.01553e-17 1 

-0.0372205 -0.0139645 -0.0181758 
0.0444727 -0.0522087 -0.138758 
-1.15539e-17 8.25279e-18 1 

-0.0405571 0.0146398 0.0123715 
-0.0728552 -0.0675079 0.127661 
-1.2713e-17 9.29276e-18 1 

-0.0256796 -0.00286761 0.0652037 
-0.0176634 -0.074181 0.218558 
7.95733e-19 2.52569e-18 1 

-0.0650815 -0.0265404 0.0229552 
0.0170052 -0.0282935 -0.0831268 
6.93856e-18 3.57296e-18 1 

-0.0158532 0.0176691 0.0119567 
0.00808368 -0.09974 0.110142 
-7.22609e-18 -7.38769e-19 1 

-0.0421191 0.0591999 0.149502 
-0.0285351 -0.0681628 0.0084366 
-5.92345e-19 -7.82742e-18 1 

-0.0581914 -0.0335936 0.20073 
0.0245916 -0.0174311 0.158938 
-1.1544e-18 8.97756e-18 1 

-0.0227037 -0.0339803 -0.132715 
-0.0200373 -0.085056 -0.0415715 
-6.02675e-18 -7.58924e-18 1 

-0.0667185 0.00071204 -0.0933816 
-0.00802852 -0.0651814 -0.297608 
2.77168e-19 -9.89771e-18 1 

-0.0585817 -0.00801219 -0.408695 
0.00510568 -0.0284341 0.0786347 
6.47836e-18 -1.40146e-18 1 

-0.0725613 0.049377 -0.0206124 
-0.0228182 -0.0622821 -0.393334 
2.57643e-18 -2.30234e-18 1 

-0.0396963 -0.0080661 -0.245253 
-0.0144355 -0.0263041 0.195019 
3.08034e-18 1.27024e-19 1 

-0.0210742 -0.0125608 -0.0736505 
0.0301843 -0.107774 -0.0770549 
-2.57747e-18 8.40807e-18 1 

0.0206065 0.047898 -0.0845139 
-0.0645758 -0.0543286 0.180673 
-1.20864e-18 3.84486e-17 1 

-0.0174507 -0.0209985 -0.00194293 
-0.0303579 -0.09766 0.206635 
1.77966e-19 -8.18646e-18 1 

-0.0582099 0.0175591 -0.0529683 
0.0140274 -0.0146288 0.128969 
-1.87882e-18 1.01397e-18 1 

-0.0610214 -0.0230224 0.219259 
-0.0125975 -0.0328908 0.175733 
-1.00787e-17 -1.71857e-18 1 

-0.0316271 -0.00881597 -0.0407234 
-0.00893713 -0.0326366 0.0908366 
-5.43922e-18 5.51322e-18 1 

-0.0922948 -0.0130012 -0.0134965 
0.00572335 -0.0367149 0.179391 
2.9151e-18 2.65077e-18 1 

-0.0514803 -0.0287834 -0.0587374 
0.00785553 -0.0181901 -0.0125829 
3.2713e-18 -2.56101e-19 1 

-0.0121551 -0.0217936 0.00978251 
0.0518768 -0.100048 0.0229569 
-2.36831e-18 -1.06458e-17 1 

-0.028511 -0.00856374 -0.149234 
-0.00912226 -0.0504147 -0.155739 
-2.32476e-19 -3.4671e-18 1 

-0.0369043 -0.0111326 -0.249357 
4.60413e-05 -0.0467435 -0.580752 
-7.66659e-18 -1.41116e-18 1 

-0.0405762 0.00431734 -0.120709 
-0.0124711 -0.0425792 0.163555 
2.99496e-18 1.09136e-17 1 

-0.0948967 -0.0384141 0.16648 
0.0125308 -0.058827 0.261076 
2.60047e-18 -3.36246e-18 1 

-0.0347117 -0.00205036 0.0397252 
-0.025731 -0.0187409 -0.00094629 
2.3159e-18 4.92745e-20 1 

-0.025987 0.0128394 -0.0662675 
-0.0385212 -0.0618451 0.123403 
0 5.16937e-18 1 

-0.0658516 -0.00515966 -0.0925086 
0.0110538 -0.0667181 -0.381007 
-1.03948e-17 -1.93966e-18 1 

-0.025383 0.0192294 -0.220946 