# vtk DataFile Version 3.0
Output file generated by Yade's KinematicLocalisationAnalyser
ASCII
DATASET UNSTRUCTURED_GRID

POINTS 13483 float
437.892 64.4347 -0.471911
532.135 94.1886 0.444905
105.867 6.15957 -0.447155
555.052 9.9277 0.419073
392.395 8.75027 -0.391023
268.103 58.2833 0.461133
139.399 7.15323 0.469261
418.217 33.5926 0.150966
386.062 26.3201 0.168184
508.578 16.8018 0.622289
183.498 9.59403 -0.124455
225.14 6.62687 0.325896
460.96 56.0071 -0.168543
459.664 16.0784 -0.128215
122.062 19.2808 0.509071
196.247 39.0265 0.463933
190.684 13.0543 -0.314526
249.309 11.6807 0.461371
283.336 45.108 0.442867
412.69 8.30844 0.576271
343.852 73.7514 -0.0948566
431.878 83.1391 -0.260132
545.825 62.8495 -0.499624
490.88 81.1356 0.499938
360.87 18.7559 0.356402
210.512 54.1023 0.140639
367.244 35.234 -0.480813
430.314 46.0727 -0.252191
41.1198 17.969 -0.618153
499.068 44.987 -0.452427
379.62 4.83026 0.306221
14.5433 24.9755 -0.288499
539.395 80.8776 0.260692
390.873 2.46426 0.509677
70.6764 47.3246 -0.122997
381.938 42.5755 0.403798
416.879 18.7831 -0.505226
289.023 29.9039 -0.178956
389.789 45.6356 0.311916
292.282 50.2657 0.502505
211.656 15.3236 -0.409252
341.097 52.0926 0.075209
486.155 29.8606 -0.156755
168.572 6.71319 0.411847
49.0499 8.23871 -0.083684
60.4797 9.62253 0.272459
486.056 12.0011 -0.645927
21.6189 12.3282 0.310305
453.456 93.433 0.351514
479.63 49.9435 0.341322
152.59 40.3522 -0.301945
522.168 84.1832 -0.120569
31.7254 30.9174 -0.128629
421.065 2.57355 0.367326
126.268 7.37393 -0.516166
439.884 75.2721 0.375917
369.966 43.7053 -0.128647
156.679 1.46123 -0.299063
29.8312 2.58903 0.302427
294.003 24.212 0.253236
465.304 97.714 -0.134364
361.844 41.3321 0.17198
317.055 0.982694 0.474571
494.666 7.76143 0.360439
22.5057 45.3881 0.265152
225.414 38.283 -0.313227
510.187 9.32558 0.558424
469.833 89.8971 0.354808
328.733 11.1997 -0.662792
428.244 14.741 -0.426996
515.896 69.0238 0.407717
116.434 7.72136 -0.286643
382.199 27.8749 -0.173111
375.113 13.8927 -0.447813
255.698 18.4146 -0.433626
18.931 14.2585 -0.302027
534.963 69.1063 0.314607
274.413 52.1448 0.289951
481.198 46.1108 0.330546
487.975 21.2282 0.27329
542.007 32.6457 -0.352743
362.735 45.3548 0.17239
84.2531 42.5217 0.288706
486.05 90.9285 0.220214
455.295 70.1484 -0.122945
550.042 67.0231 0.146216
555.614 0.717728 -0.663652
253.697 34.6442 0.445568
451.929 6.66493 -0.202197
23.034 6.37692 0.647736
117.838 41.3151 -0.166887
404.833 15.8376 0.324005
531.144 54.9306 -0.518428
172.362 31.8606 0.260858
39.744 41.2922 -0.303043
389.761 1.12277 0.142669
207.535 9.10621 -0.482811
506.769 91.6991 -0.262725
527.817 64.3128 0.266631
296.026 34.7026 0.293471
147.258 33.2303 -0.446193
395.975 68.4248 -0.4413
310.371 35.1589 -0.546356
338.794 60.9051 0.0947989
310.519 17.7766 0.390396
400.409 30.7087 0.100095
553.147 25.8362 0.325207
72.7315 42.0141 -0.428731
287.816 7.29846 -0.411794
413.211 33.0135 -0.462883
296.774 65.1103 0.451552
22.6722 26.6388 -0.448182
28.4484 6.15124 0.402375
416.444 63.8696 0.407774
390.965 25.6214 -0.167232
22.3666 38.8896 0.435981
85.5234 33.6415 -0.21986
278.499 19.3729 -0.379378
441.26 34.5048 -0.127983
364.329 61.1612 0.305642
523.681 7.51643 -0.601769
516.511 8.15307 -0.332516
324.254 65.1948 0.100082
457.841 41.4317 -0.130311
209.884 17.816 0.573849
285.08 5.53812 0.646151
94.9353 36.381 -0.327777
103.677 25.3192 0.289067
391.181 67.2723 0.0869627
265.332 18.8087 0.670801
486.485 57.9623 -0.105517
473.932 93.31 0.106165
377.812 20.7926 -0.459374
521.233 36.9759 0.385993
336.688 37.4642 0.275531
241.773 27.0199 0.339101
476.251 76.0549 -0.277391
245.319 34.0843 0.412432
427.42 37.9435 -0.228599
276.224 46.675 -0.218521
399.751 13.2679 0.624899
308.794 53.617 0.0938201
340.48 20.2828 0.185395
271.557 66.3011 -0.441849
168.577 33.4 0.12836
533.23 89.0543 -0.145224
550.782 27.9301 -0.265437
5.84345 12.3685 0.443247
341.745 27.255 -0.466988
35.5627 25.3419 0.0736764
315.531 56.6693 -0.483855
324.386 43.9494 -0.304554
66.1828 13.5616 -0.524198
45.4899 42.0691 0.605353
200.096 14.9925 0.587699
441.654 47.6609 0.461148
423.539 50.6871 -0.535736
66.1576 24.19 -0.491363
493.542 77.9355 0.425968
546.062 3.94448 -0.592319
468.09 81.0736 0.443976
490.196 1.85267 0.653421
403.994 56.3842 0.415726
433.157 84.1809 0.448186
407.813 19.7295 -0.471549
553.162 9.27041 0.401663
199.467 29.4022 0.121723
112.984 38.8822 -0.190704
218.766 7.92161 0.623267
83.4035 4.89417 -0.266851
57.078 11.5229 0.231043
243.69 42.8392 -0.403244
15.3784 26.9966 -0.39097
409.419 43.9154 -0.408349
454.626 88.5453 -0.194288
367.662 24.7691 -0.408245
553.649 90.5902 0.346092
323.023 9.45175 0.16453
338.84 43.7672 -0.481023
427.706 4.10902 -0.412891
20.8707 25.5304 0.431229
426.249 22.0806 0.420564
434.677 7.00546 0.560579
182.48 12.4856 0.543517
337.583 19.1335 -0.291941
271.905 6.06673 0.434107
319.572 37.6024 -0.396894
505.542 77.8115 0.109483
170.408 29.0032 -0.420475
536.838 23.024 -0.458418
509.105 77.0272 0.310239
315.228 27.4905 -0.180165
509.294 2.4678 -0.498792
438.984 41.9768 -0.500707
528.994 18.0465 -0.594192
349.676 57.0549 -0.308173
395.261 13.8605 0.542269
355.072 61.6246 0.149595
355.328 11.5612 -0.233129
471.414 83.0879 -0.265344
472.176 78.9928 -0.318096
172.469 43.8333 -0.352506
539.854 32.6412 -0.19792
434.921 85.6552 0.241369
9.98051 17.9471 0.280845
329.45 45.5072 0.354614
166.333 26.2019 -0.420625
84.9643 44.2764 -0.213628
528.801 53.4316 -0.43483
462.161 84.3217 -0.282341
275.043 30.65 0.429584
424.796 9.91969 0.407016
75.2601 47.2227 -0.201736
219.405 30.9746 -0.465886
409.486 49.7296 0.369993
387.329 19.5107 -0.633479
232.783 0.840325 -0.486236
405.006 71.6946 -0.376905
384.015 65.935 -0.439083
373.897 67.583 0.408359
399.427 2.48471 -0.645817
496.35 20.6656 0.448008
160.272 15.3887 -0.216909
389.63 76.8515 0.413142
415.53 71.6696 0.114724
65.4582 0.92358 0.360397
223.535 5.09248 0.181969
550.318 31.3947 0.23891
542.059 34.6739 -0.469977
555.182 31.1806 -0.663524
264.896 8.45813 -0.251545
507.801 43.7551 -0.527795
347.86 78.6483 -0.101228
355.758 0.839682 0.6468
461.457 70.937 -0.471588
23.6104 32.5692 0.31933
275.959 52.7296 0.459485
224.322 3.29089 0.479648
541.12 76.8189 0.170093
496.64 71.6863 0.251072
251.679 13.0739 0.262314
468.675 67.8543 -0.102663
436.953 5.41009 -0.565938
431.628 11.2573 0.522573
86.6375 19.0762 0.496043
264.461 1.00843 -0.26466
295.001 3.08193 0.579363
13.2121 7.79107 0.532271
4.84399 33.9536 0.232852
145.405 20.3769 0.35674
62.3956 45.8499 0.243802
58.6751 33.363 0.329516
336.982 16.1874 -0.604613
309.736 60.3828 -0.531756
519.146 88.7691 -0.114005
18.9516 4.24055 -0.273653
62.5757 7.00748 0.139001
446.929 54.7499 -0.166149
256.269 0.923865 0.465771
300.528 29.8784 -0.108565
209.946 5.10505 0.447166
465.457 38.6389 0.205535
358.71 10.8755 0.477765
529.614 28.1735 -0.523808
457.986 44.5132 -0.341856
480.665 44.1629 0.0858981
336.339 49.5848 0.510672
90.7924 53.298 -0.306688
393.948 71.9134 0.0672066
527.543 12.8759 0.396602
211.841 35.6273 0.222443
29.4758 19.4428 0.219179
290.261 17.4142 0.652455
96.806 49.3007 0.46918
239.075 48.8247 0.191831
340.232 2.55988 -0.230773
531.812 58.9682 0.47655
484.073 4.78127 0.611046
287.932 5.88288 0.683973
261.738 32.1891 -0.155131
357.027 58.9236 -0.265567
72.7205 9.6919 -0.552148
179.271 49.4562 -0.414902
526.73 69.3114 0.392328
384.101 78.1381 -0.0649058
179.488 44.4162 -0.254007
142.464 48.4868 0.442819
556.496 58.8867 0.446489
552.414 27.2303 -0.584278
445.121 6.24221 -0.629359
169.008 27.9428 0.127808
405.67 55.5395 -0.114977
406.724 58.5904 0.268633
327.734 5.72466 -0.249191
385.009 1.03522 0.540282
520.11 93.9196 -0.502347
78.2593 33.5819 -0.234449
469.262 38.2753 -0.537569
240.909 18.7497 -0.524196
9.00918 2.40514 -0.316055
112.223 40.8532 0.214212
58.3407 26.7297 0.482752
483.066 68.0226 0.317616
548.031 84.5857 -0.168207
166.715 34.7401 0.164189
550.267 34.2152 -0.452346
40.4528 43.736 0.251931
84.4538 32.009 0.156755
467.085 17.3854 0.475467
331.004 19.4401 -0.592173
414.96 18.48 -0.226478
211.281 33.7224 -0.183896
458.64 4.59074 -0.614481
555.169 26.0939 0.449766
26.9825 34.0217 -0.255891
236.831 10.1688 0.190046
197.973 15.865 0.33671
1.0723 39.3103 -0.164032
201.029 15.6315 -0.472286
188.305 11.3274 -0.180688
192.837 27.8742 -0.280301
119.082 31.3592 -0.124087
405.353 38.2408 -0.295309
150.432 15.8646 0.356734
536.948 81.5035 0.259548
158.041 5.09198 0.661904
41.7646 46.6202 -0.36026
499.045 85.4574 -0.485851
250.082 38.5192 -0.413217
485.078 50.7114 0.474515
536.855 61.2298 -0.54041
263.113 9.21068 0.168141
506.33 56.1343 -0.338476
286.089 2.3981 0.629621
336.629 33.2817 0.414285
486.664 44.8046 0.482706
95.0711 12.512 -0.559848
387.079 3.8226 -0.549803
516.904 34.4123 0.197405
78.5469 8.0086 0.29791
247.856 17.1957 0.231252
338.074 14.4629 -0.306096
553.377 13.2446 0.572639
320.821 0.877399 -0.637677
159.35 47.6724 0.356826
530.057 10.2632 -0.524864
115.074 39.6678 0.218847
233.182 36.9206 -0.386213
328.338 42.4834 0.249312
427.864 40.9962 0.497508
319.031 24.0577 -0.617227
359.756 34.1051 -0.415822
531.737 92.6961 0.367017
43.1959 12.3445 -0.199246
264.838 48.1076 0.258285
315.917 47.8619 -0.394784
329.371 23.0413 -0.37354
374.429 57.6217 -0.387886
513.428 93.889 0.225906
477.081 82.6494 -0.356559
202.756 42.2512 -0.43743
10.3931 35.4365 0.170322
470.737 77.6432 0.144843
400.316 81.3939 0.428792
206.312 47.0787 0.104329
477.458 74.2929 -0.123487
136.708 9.42371 0.223109
302.677 37.5114 0.322557
357.055 60.9401 -0.146277
330.879 21.7543 -0.205484
530.423 98.107 0.290741
341.018 5.47291 0.605891
44.2758 31.0388 -0.350181
367.37 54.2265 0.368024
340.339 48.9839 0.354038
536.604 74.0465 0.242142
503.663 48.5662 0.27502
399.391 41.3254 -0.150567
529.547 82.7319 -0.519201
256.094 2.17251 -0.514887
316.91 55.2641 0.46984
25.1512 41.0233 0.34626
512.641 61.0714 0.166653
451.63 25.5786 -0.573863
368.633 0.736158 -0.608605
113.471 4.73756 0.387119
348.208 58.5736 0.0957897
11.3566 0.862217 0.327595
551.227 14.7838 0.135568
312.76 68.1667 -0.415178
[...]
POINT_DATA 13483
TENSORS Strain_matrix float
-1.61296 1.86674 20.168 
-0.461748 0.911922 7.72987 
-7.18366e-19 -1.14939e-19 1 

-2.3451 1.09355 47.7304 
-0.225866 0.527031 15.7596 
4.66691e-19 1.00614e-17 1 

-0.28401 0.0224428 -0.0382307 
0.095369 0.0588358 -1.9761 
-5.58254e-18 -2.05794e-17 1 

-2.43901 -1.90896 0.266395 
0.777243 1.05667 0.0376776 
-8.89844e-18 5.29669e-18 1 

-0.609918 -0.397637 0.185765 
0.0591315 0.0591451 -0.290249 
-4.15387e-18 -3.54023e-20 1 

-0.567989 -0.981053 -12.1686 
0.215881 0.428814 -17.6544 
-1.0694e-17 -1.52509e-17 1 

-0.185055 -0.0634393 -0.0777113 
0.0350624 -0.0839635 -0.150577 
-8.15581e-18 -1.31298e-17 1 

-0.293367 -0.142804 -1.45616 
0.300495 0.162936 0.32564 
-1.98108e-18 1.09246e-17 1 

-1.06679 -1.99666 -2.25008 
0.177254 0.599359 -0.488173 
8.09859e-18 -3.08963e-18 1 

-0.531267 -0.172652 2.44757 
0.263144 0.119862 -1.2984 
-5.4196e-18 4.0647e-18 1 

-0.240154 0.0754349 -0.0639984 
-0.0697279 0.0411823 -0.0443324 
3.00098e-19 -1.20039e-18 1 

-0.348354 -0.113528 -0.613455 
-0.0832281 -0.0213961 -0.830983 
6.14164e-19 -2.18369e-18 1 

-1.02178 -0.16305 -1.82715 
0.0526975 0.524952 -0.98588 
-4.85882e-18 -5.45378e-19 1 

-0.569503 0.135824 0.591003 
0.137024 -0.0127789 -0.252085 
-2.67485e-20 4.90389e-18 1 

-0.141666 -0.151067 0.420246 
0.161354 -0.00994969 -0.0988087 
1.34797e-17 5.17279e-18 1 

-0.296131 -0.497243 1.08311 
0.573904 0.335322 -1.01479 
-6.53203e-18 -4.22091e-19 1 

-0.150563 0.0235908 -0.125332 
-0.0383601 -0.111725 0.00361856 
-3.61598e-18 -1.59103e-18 1 

-0.349417 0.0418398 0.267269 
0.0344368 -0.0443212 -0.337199 
-3.58671e-18 2.91307e-18 1 

-0.0984898 -0.129212 2.25821 
0.376944 -0.00221011 0.521611 
4.48888e-18 3.43646e-19 1 

-0.368541 0.0575298 1.10509 
-0.193793 -0.0186665 1.54929 
-7.56625e-18 -5.06193e-19 1 

-0.189938 0.267499 0.0216968 
-0.260076 0.0332122 -0.0579751 
-1.5375e-17 1.0824e-17 1 

-0.0466006 -0.527533 -0.319986 
0.419087 0.11897 -0.326459 
5.22551e-18 1.14411e-18 1 

-0.964226 -0.339349 0.624549 
-0.336098 0.270202 0.996957 
2.84546e-18 4.77237e-18 1 

-0.92812 0.679825 -96.9098 
-0.476382 1.21455 28.4991 
1.79428e-18 -2.13619e-18 1 

-0.655593 -0.0233035 -0.569195 
-0.328512 0.308092 0.361852 
8.02214e-18 -2.18528e-17 1 

-0.541474 -0.423716 1.57705 
0.147106 0.374783 -0.869682 
6.09858e-18 4.24722e-18 1 

-2.84209 0.309354 -11.9795 
0.152685 0.856395 -0.199708 
8.73861e-18 -6.24362e-18 1 

-0.631696 -0.960193 5.34572 
-0.344422 0.0564959 2.9096 
-3.16051e-18 -8.11752e-18 1 

-0.364928 0.00943272 -0.615179 
0.0359322 0.156026 -6.59361 
8.81324e-19 -7.30902e-18 1 

-3.7394 -3.83715 -14.678 
0.444165 1.10476 -3.87166 
-1.08948e-17 -2.48365e-17 1 

-0.148261 -0.281793 -0.0720338 
0.280394 -0.134554 0.23483 
-2.92144e-17 6.85643e-18 1 

-0.447962 0.203965 -1.03421 
0.0882493 0.170271 -0.163473 
5.40026e-18 9.71026e-18 1 

0.0510343 0.612522 -0.275598 
-0.594006 0.273743 1.44103 
9.90086e-18 1.42757e-17 1 

-0.610005 -0.208695 -0.180059 
0.100868 0.279995 -1.06606 
1.47807e-17 8.82433e-19 1 

-0.201358 0.0989501 0.205456 
-0.15591 -0.0690092 0.377669 
-1.98289e-19 1.47643e-17 1 

0.273298 -0.826385 0.613962 
0.841289 0.409505 -0.0471422 
-8.87526e-19 2.19416e-18 1 

-0.890338 -0.795466 2.44375 
0.028725 0.410765 -1.43436 
1.22613e-17 -1.63065e-17 1 

-0.685144 -0.88557 -0.105802 
0.152562 0.319431 -0.0121868 
-6.31181e-19 -4.99027e-18 1 

-0.867286 -0.256732 2.08584 
0.659728 0.704296 1.05549 
3.58011e-18 9.76203e-18 1 

-0.22345 -0.194736 -2.60173 
0.448382 0.0795029 1.0584 
2.58818e-18 3.6682e-18 1 

-0.39873 -0.243544 1.64868 
0.200141 0.122318 -1.02345 
3.95171e-18 1.08672e-17 1 

0.609774 1.77774 -1.71564 
-1.08397 2.06788 -2.88854 
-6.16521e-18 1.15457e-17 1 

-1.09445 -0.184435 0.590608 
-0.478002 0.129014 0.186369 
-1.42796e-17 3.23867e-18 1 

-0.411363 0.384534 -0.146172 
-0.391151 0.133258 0.486234 
7.39939e-18 -1.88921e-18 1 

-0.195423 -0.0985865 -0.216881 
0.273026 0.0660023 0.234682 
-1.53538e-18 3.21698e-18 1 

-0.373025 0.0534771 -0.919781 
-0.0901319 0.0945994 -0.949641 
-2.35199e-18 1.24696e-18 1 

-1.28424 0.639203 0.879736 
-1.53291 0.839304 0.916017 
9.34855e-18 -1.51855e-18 1 

-0.0628343 -0.0504417 0.0307253 
0.0440272 -0.183582 -0.0240397 
5.60446e-18 -6.29922e-18 1 

-0.0114059 -0.257437 -0.444565 
0.249153 0.000504983 0.116386 
7.5569e-18 4.22297e-18 1 

-0.302689 -1.25306 0.291218 
0.608529 0.317809 1.00247 
9.1116e-18 -2.74479e-18 1 

-0.247453 -0.0804105 0.925978 
0.0539596 0.105197 -0.194298 
-3.58217e-18 2.20573e-17 1 

-3.05972 -2.06391 -12.8745 
-0.113105 0.682798 0.459142 
-8.67783e-18 -9.91752e-18 1 

-0.121875 -0.0150191 0.181982 
-0.00181096 0.0398318 -0.17209 
-8.08364e-18 9.1362e-18 1 

-0.460165 0.0361292 -0.139106 
-0.0566624 0.0384049 -0.279655 
-2.78294e-18 -1.61118e-18 1 

-0.262089 0.028847 -0.531594 
-0.0277634 -0.063497 0.343443 
-9.78578e-18 5.91595e-18 1 

-1.79489 1.09613 -13.2857 
0.150618 0.509501 -5.4952 
-9.40143e-19 -5.96748e-18 1 

-8.32506 2.08093 0.742744 
-1.5158 0.492359 10.4701 
-1.168e-17 -2.11626e-18 1 

-0.241142 -0.0627699 1.95061 
0.0267337 0.00994017 -1.29575 
3.77279e-18 3.99523e-17 1 

-0.138592 0.250626 0.0434449 
-0.155732 -0.0754484 0.274852 
4.14705e-18 1.3991e-17 1 

-0.814366 -0.679257 -0.853104 
-0.00614832 0.224747 -1.6026 
5.96679e-18 4.73958e-18 1 

-0.484627 -10.8849 24.5072 
0.188059 0.391539 1.4226 
2.15794e-18 1.77467e-17 1 

-0.582977 -0.250386 -1.80706 
0.612392 0.466628 2.2157 
2.2853e-17 -1.36061e-17 1 

-0.807997 -1.99725 2.26666 
-0.00632476 -0.0729412 -0.0833789 
-3.89262e-18 1.76014e-17 1 

-0.285142 0.0257543 -0.341522 
-0.00171518 0.00961961 0.43205 
-2.13889e-19 3.93557e-18 1 

-0.819821 -0.11018 1.09907 
0.0350691 0.295949 0.910424 
2.18643e-18 9.12251e-18 1 

-0.813854 0.250291 -0.013966 
-0.287796 0.449063 0.421691 
1.84565e-17 9.06704e-18 1 

-0.589832 -0.0454791 1.63894 
0.335254 0.16936 -1.30715 
-6.27684e-18 -7.96443e-18 1 

-5.52991 1.65403 12.6776 
0.171751 0.665705 0.521228 
-1.35456e-17 -7.30904e-18 1 

-0.604892 -0.153092 -6.19024 
0.0338661 0.0764393 5.17417 
7.66587e-18 -4.55515e-18 1 

-4.18288 -7.46493 -7.79729 
1.71475 3.24043 -0.242973 
1.33909e-17 -5.42237e-18 1 

-4.2272 1.51751 2.7421 
0.802902 0.411425 -3.96348 
9.61423e-18 1.51109e-17 1 

-0.212811 0.201206 0.16314 
-0.0810671 -0.0468588 -0.216889 
-1.23466e-17 2.10587e-17 1 

0.453817 -3.62711 -2.6299 
0.501793 0.442911 -0.945146 
-4.39723e-18 -3.84757e-18 1 

-0.362838 -0.12299 0.19261 
-0.0726946 -0.170136 -0.24286 
-2.20027e-17 -1.43696e-17 1 

-0.535261 0.0422986 0.474258 
-0.0912968 0.183359 -0.896911 
-1.7738e-17 -5.5212e-18 1 

-0.163367 0.0178583 0.0441166 
-0.116248 -0.0772886 -0.0952778 
-9.75625e-18 6.53833e-18 1 

-2.77349 0.138924 -2.98262 
-0.0552614 0.693778 -1.35496 
-6.79129e-18 -1.14343e-18 1 

-4.4618 2.42587 1.41177 
-2.45224 1.32614 0.669481 
2.73481e-18 1.84074e-17 1 

-0.0974794 -0.786997 -1.08627 
0.601277 0.329809 0.155686 
2.02291e-17 -1.81293e-17 1 

-0.875172 0.505917 0.228604 
-0.544715 0.463695 -1.18589 
-1.78876e-17 1.8933e-17 1 

-0.314326 -0.0781292 0.146837 
0.144244 -0.094625 0.253208 
-1.58208e-17 -2.19632e-18 1 

0.228922 -0.402407 -1.47608 
0.759338 0.257856 0.00537803 
-5.83218e-18 -3.43682e-18 1 

-0.214706 -0.309967 1.24814 
0.30804 0.210201 0.816222 
-6.77071e-18 1.30413e-18 1 

-0.918986 -0.060159 3.84703 
-0.234457 0.560077 -0.946877 
-8.85374e-19 6.54407e-19 1 

0.0344737 -1.16452 0.258135 
0.577187 0.544657 0.517242 
3.38091e-18 -3.91989e-18 1 

-0.406637 0.634657 0.755498 
-0.521414 0.420213 -0.492378 
-1.15143e-18 -1.37884e-18 1 

-13.0098 11.9999 16.5626 
-0.080901 0.460558 0.858452 
8.37655e-18 1.05943e-16 1 

-0.83844 0.418382 0.951838 
0.0453925 0.232335 -0.895459 
-5.73223e-19 1.12625e-17 1 

-0.300174 0.149168 -0.256035 
-0.116884 -0.0327486 -0.0650489 
5.92721e-18 -8.44179e-18 1 

-0.260341 -0.0265541 -0.563418 
0.0399347 -0.0574866 0.865921 
1.10061e-18 4.7169e-18 1 

-0.106747 0.020569 0.305271 
-0.148289 -0.0435898 -0.216352 
1.23031e-17 -1.1008e-17 1 

-0.458883 0.166785 -0.0895394 
-0.168529 -0.0666907 0.4479 
3.38426e-17 -3.13171e-17 1 

-1.53862 -0.252251 14.6522 
-0.259738 0.402955 -2.87001 
1.4566e-18 -1.94949e-19 1 

-0.112059 0.0921111 -0.35532 
-0.152861 -0.0379344 -0.0778324 
4.55645e-18 1.19441e-18 1 

-0.0989068 -0.240477 0.51508 
0.330371 0.125446 -0.96421 
-1.39307e-18 -1.05536e-17 1 

-0.287261 0.453476 -0.748572 
-0.00875697 -0.0693431 0.0631288 
-8.88884e-18 -8.98871e-18 1 

-0.239195 -0.0359144 -0.307876 
0.097985 -0.0241996 -0.240322 
6.66735e-18 -6.54538e-19 1 

-0.186761 -1.1083 0.813728 
0.736946 0.739837 0.458525 
-1.45884e-19 -1.24002e-18 1 

-3.76469 -0.915944 -1.20134 
-0.347848 0.849104 -0.442253 
7.05387e-18 -8.85834e-18 1 

-1.73718 -0.384666 -2.57764 
0.232949 0.484657 -1.95958 
3.16086e-19 4.53056e-18 1 

-0.239485 -0.027361 2.8736 
0.354474 0.139541 0.910337 
-4.50724e-19 -8.20317e-18 1 

-1.29086 1.07078 -30.8287 
-0.0870956 0.287153 -6.94298 
1.76806e-17 2.66319e-18 1 

-0.438623 -0.0568958 -5.57112 
0.112201 0.165351 9.05934 
-5.67701e-18 1.51003e-17 1 

-2.89572 4.46721 5.77844 
-0.366455 1.07508 -1.41068 
1.33587e-17 -3.52374e-18 1 

-2.43203 -0.982458 -0.622064 
0.89675 0.57662 -2.79415 
-2.03786e-18 -1.18086e-17 1 

-2.90924 -5.21035 3.37296 
1.68188 2.51471 1.39973 
3.47459e-18 -9.61573e-18 1 

-1.03807 0.0141208 -0.183205 
-0.171317 0.255543 -0.205146 
-6.62774e-18 -6.62774e-18 1 

-0.157023 0.0288679 -0.815615 
-0.113841 -0.0188359 -2.00136 
-1.05547e-18 2.28933e-18 1 

-0.668641 -0.0355239 -0.243102 
0.0946805 0.145708 0.537906 
-1.08582e-17 8.23723e-18 1 

-0.425127 0.068565 0.450427 
0.12745 0.0139179 -0.348749 
-1.80374e-18 -9.13895e-18 1 

-0.569979 0.536377 23.8847 
0.268824 0.593231 8.05592 
-3.37923e-18 1.48225e-17 1 

-0.223863 -0.118321 -0.38392 
0.0524622 0.0264592 0.208283 
2.05055e-18 9.29153e-18 1 

-0.237648 0.223899 -0.423111 
-0.222718 -0.00652421 0.456867 
9.70746e-18 1.14745e-17 1 

-0.300622 0.531939 -1.22112 
-0.045401 0.16086 -0.685002 
-7.222e-18 1.31997e-17 1 

0.752091 -3.01745 0.35828 
0.337133 0.128548 -1.56706 
2.38248e-17 -1.99801e-17 1 

-0.178815 -0.109465 0.0497304 
0.0625103 0.0163247 5.7403 
8.88535e-18 5.04367e-18 1 

-0.101819 0.0277523 -0.0776773 
0.0574654 0.0579277 -0.0464483 
-1.34838e-18 -2.7847e-18 1 

-0.493122 -0.235523 0.210609 
0.286141 0.15776 0.375074 
-1.50716e-18 -3.33729e-19 1 

-1.63648 -1.52177 0.178612 
-0.338913 0.186014 -0.099187 
1.28662e-17 -9.17992e-18 1 

0.385542 -0.849532 0.137431 
0.919421 0.464724 0.760942 
-5.06623e-19 -7.24624e-18 1 

-0.718411 -0.182926 -0.0735278 
0.172246 0.00759726 -0.641447 
2.9339e-18 -3.80614e-18 1 

-0.485415 0.380203 0.427643 
-0.761829 0.138287 0.44401 
1.66878e-17 -1.76792e-17 1 

-0.0338998 -0.251513 0.00806759 
0.255204 0.0400642 0.217106 
9.6566e-18 1.09162e-17 1 

-1.61794 -0.140314 2.29486 
-0.0196295 0.648829 -1.62945 
4.5436e-18 -5.93914e-18 1 

-0.455488 -0.200593 0.791461 
0.331179 0.211239 0.283043 
3.42768e-18 1.58967e-17 1 

-0.531375 -0.222985 -0.802241 
0.161533 -0.0507207 -1.35194 
9.88986e-18 4.21535e-18 1 

-0.749385 -0.37586 1.18089 
0.281515 0.295456 1.40537 
3.35704e-20 -5.03556e-20 1 

-0.435087 0.139837 -0.338385 
-0.274595 0.210386 0.771794 
-6.96755e-18 5.98128e-18 1 

0.056886 -0.430909 -0.163361 
0.39146 -0.0231001 -0.145505 
-8.92788e-18 -4.99232e-18 1 

-0.718475 -0.130177 -1.10153 
0.0954238 0.265181 -0.661976 
6.48393e-18 7.0918e-19 1 

-1.7795 -2.26855 4.32183 
-0.761071 -0.478404 0.824448 
0 -4.55147e-18 1 

0.224704 -0.642997 -0.253826 
0.813359 0.345585 0.009012 
9.2217e-18 -7.08699e-18 1 

-0.610909 -0.528602 -1.09601 
0.135232 0.222299 1.06966 
-4.21673e-18 -1.53546e-17 1 

-0.726992 0.304835 0.82795 
-0.365099 0.160328 0.80051 
4.19816e-18 -8.19641e-18 1 

-2.2929 -2.04479 2.74939 
-0.698595 0.112555 -2.30156 
7.41617e-18 9.22901e-18 1 

-0.399125 0.386309 -0.180287 
-0.206803 0.231525 0.65068 
-6.94549e-18 -1.58739e-17 1 

-5.41466 1.74584 4.37072 
0.120892 1.01457 0.325609 
-3.6345e-18 5.015e-18 1 

-0.385659 0.240423 -1.18816 
0.0777954 0.235519 1.21051 
-1.19931e-18 -1.23446e-17 1 

-1.6105 0.471508 1.49831 
-0.281661 0.499037 -0.367433 
-1.81557e-17 -9.11039e-19 1 

-0.191667 -0.26435 -0.0512272 
-0.264175 -0.0817375 -0.312045 
-5.00032e-18 4.58837e-18 1 

-0.341777 -0.215187 -0.557111 
0.163115 -0.0222052 -0.96768 
-2.14488e-17 8.36106e-18 1 

-1.1758 0.790513 1.5593 
0.0325823 0.475635 0.200303 
1.21369e-18 -1.66054e-17 1 

-0.226553 -0.147777 0.236641 
0.200062 0.0048319 -0.510422 
1.91054e-17 -1.71794e-17 1 

-0.13142 -0.0153734 28.0764 
0.120751 0.156746 29.9873 
3.5442e-18 3.16446e-20 1 

-0.253781 0.265735 0.891186 
-0.450455 0.240431 0.613727 
-1.63959e-18 5.20913e-18 1 

-0.190234 0.668982 0.326307 
-0.555063 0.375447 -0.305264 
2.36717e-18 5.76729e-18 1 

-1.0076 0.0185354 0.273562 
-0.530593 0.323581 -0.194367 
-1.16602e-17 5.29396e-18 1 

-0.178933 -0.0325191 -0.269568 
-0.0326441 -0.0305426 0.224199 
3.67295e-18 -1.41204e-17 1 

-0.129866 -0.217119 -1.44191 
-0.243866 -0.00353043 -4.33956 
9.17895e-18 7.5622e-18 1 

-0.174064 0.270966 0.827553 
0.0123233 0.0708337 0.431657 
7.3947e-18 7.84222e-18 1 

-0.702113 0.428331 11.4783 
0.137157 0.249456 1.39797 
-1.38424e-17 -9.75595e-18 1 

-1.2775 -0.465698 -2.45849 
0.0366637 0.612765 0.548488 
-9.8781e-18 8.66442e-18 1 

-0.365615 -0.074937 0.135475 
0.0114754 0.0785263 -1.27705 
-4.73538e-19 -5.54986e-18 1 

-0.314214 -0.0452533 -4.45217 
5.77071e-05 0.120239 2.08455 
-8.12363e-18 -9.45109e-19 1 

-0.263154 -0.0157671 0.116783 
-0.0223586 -0.0492208 -1.24573 
8.88794e-18 6.15319e-18 1 

-0.775136 -0.608611 -0.844818 
-0.239996 -0.302029 -1.64678 
-3.17871e-17 1.54929e-17 1 

-0.760094 -0.452734 9.41342 
0.034719 0.242192 9.80128 
7.55544e-19 -9.29011e-19 1 

-0.189541 0.0418736 -1.16841 
-0.0696214 0.089112 -1.25524 
-8.52411e-18 4.25464e-18 1 

-2.19242 0.763262 -8.95479 
-0.478607 1.11223 10.8896 
-6.15018e-18 -6.19899e-18 1 

-1.85845 -1.11619 1.95353 
0.584383 0.55732 -0.62973 
2.79747e-17 -2.57091e-17 1 

-0.195683 0.166383 -8.95953 
0.468118 0.398731 -0.426687 
3.17043e-18 -3.09755e-19 1 

-0.45052 -0.320158 4.05852 
0.0259571 -0.296699 0.991234 
-4.42941e-18 -2.53765e-17 1 

-0.867908 -0.435742 0.0984789 
-0.0250709 0.275671 -2.80569 
1.0021e-17 -1.04937e-17 1 

-1.51353 2.6677 51.0786 
0.0877074 0.859182 21.6184 
3.60856e-18 -8.19666e-18 1 

-0.625101 -0.555819 1.33803 
0.298541 0.0607531 0.0971252 
-6.02458e-18 8.20012e-18 1 

-5.38988 -1.79663 11.0378 
-0.295493 0.343319 -0.28478 
3.80832e-18 -1.41335e-17 1 

-0.383037 0.105496 2.40405 
-0.0276117 0.18159 -0.269262 
-1.48996e-17 -3.98651e-18 1 

-0.253173 0.228626 -0.056168 
0.0624293 0.0827618 0.276744 
-4.66579e-18 -1.138e-18 1 

-0.338544 -0.075132 -0.028938 
0.0189275 0.0167973 1.19397 
-1.20253e-17 3.26473e-18 1 

-0.269419 -0.0940562 0.275708 
0.022552 -0.000616653 0.683406 
1.04397e-17 -2.09181e-18 1 

-0.359927 -0.172506 -0.0393678 
-0.145014 0.0793908 -0.356434 
-4.1447e-19 -1.7615e-18 1 

-0.128281 -0.0546025 -0.0277758 
0.167232 0.0469681 0.436368 
-8.31691e-18 9.85336e-18 1 

-0.771839 -0.0883146 3.67968 
0.120913 0.211477 -1.44516 
-4.16666e-18 -1.27883e-17 1 

-0.0171308 -0.961341 2.77935 
0.0515658 0.00382246 -0.806354 
-1.27764e-17 1.67549e-17 1 

-0.0035943 -0.27478 -0.0487017 
0.285335 -0.011185 -0.0930403 
-7.30618e-19 -2.65679e-19 1 

-0.763268 -0.73218 0.633855 
-0.569021 0.35522 0.220653 
2.71903e-17 -5.80059e-18 1 

0.00293523 -1.17552 -0.160193 
0.823207 0.958073 -0.377039 
1.18776e-17 -6.35966e-18 1 

-0.368032 -0.237043 0.441977 
-0.0942519 -0.00480785 -0.000234595 
-6.63496e-18 1.08764e-17 1 

-0.259766 0.217962 -18.0961 
-0.588625 0.169085 -11.1166 
-4.07574e-18 3.62495e-18 1 

-0.547483 -0.192677 0.546275 
0.344867 0.0236008 -0.0872753 
-1.01276e-17 6.26312e-18 1 

-0.268653 -0.00434263 1.00711 
0.00943558 0.0533929 0.17554 
-2.86403e-18 -7.92722e-19 1 

-1.79641 -1.15895 6.06132 
-0.13362 0.775939 -1.552 
5.88433e-18 -5.24291e-18 1 

-4.59033 -5.57357 -4.92567 
0.670298 0.7649 1.54361 
-2.681e-18 4.36903e-18 1 

-0.225381 0.143834 0.673108 
-0.124038 0.0018993 -0.537511 
-2.56638e-18 -1.51728e-17 1 

-0.670557 0.135352 -0.675764 
0.306671 0.0946427 -0.433477 
-1.21609e-17 1.73726e-19 1 

-0.335703 -0.0680627 -1.00524 
0.180354 -0.0323271 0.211188 
-1.69143e-17 5.13851e-18 1 

-0.354974 -0.0127225 -0.267766 
-0.747418 0.126228 0.850799 
-2.13864e-18 -2.13864e-18 1 

0.970494 -1.05254 -0.0350484 
1.12826 1.22365 0.216242 
5.06974e-19 4.8827e-18 1 

-0.0751748 0.0861865 0.0938465 
-0.0741039 -0.086283 -0.708097 
9.66284e-18 1.31898e-17 1 

-7.69053 -4.76558 -2.33396 
1.07809 2.08357 3.9008 
1.64652e-17 -7.0725e-18 1 

1.10787 -1.03363 0.826972 
1.10321 1.17106 0.39024 
8.53272e-18 -9.96726e-19 1 

-0.645182 -0.112121 0.099744 
0.013683 0.341967 -0.0628671 
-1.53119e-18 -5.11405e-18 1 

-1.17157 -0.693972 -0.799532 
-0.0207949 0.487683 1.05876 
2.06916e-17 -3.50033e-18 1 

-2.56931 -1.81347 6.84114 
-1.12474 -0.0225574 -1.31239 
4.04496e-18 4.05034e-18 1 

-0.634311 -0.440949 6.38655 
0.33176 0.134828 -2.39993 
3.86963e-18 -1.82425e-17 1 

-1.57937 1.59148 19.2428 
-0.619062 1.42509 -0.832342 
-6.65999e-18 -8.39158e-18 1 

-0.512738 0.0253312 -0.172676 
-0.220692 -0.0254946 -0.17899 
4.19355e-18 -3.20762e-17 1 

-13.5762 0.25513 -1.02874 
0.11847 0.50829 -0.0624752 
8.50934e-18 -5.06508e-18 1 

-1.10979 0.289956 0.295207 
-0.304767 0.447412 -0.383056 
5.2957e-18 1.30765e-17 1 

0.263966 -0.820271 2.72635 
0.830784 0.403866 -0.542198 
4.88548e-18 -1.31715e-17 1 

-0.210878 -0.830316 10.533 
0.905849 0.307965 -2.34882 
3.96546e-18 -6.93956e-18 1 

-0.556658 0.349096 1.30195 
-0.418931 0.431948 1.26911 
7.46799e-18 -1.97653e-17 1 

-0.505983 0.0494799 -0.465848 
0.0390008 0.112212 0.409315 
5.47385e-18 1.60996e-19 1 

0.050639 -0.541073 0.445948 
0.482716 0.188874 -0.131258 
6.49045e-18 -9.05644e-19 1 

-0.18096 0.00750777 -0.468046 
-0.0753355 -0.0977814 -0.352495 
3.53524e-18 -8.21986e-18 1 

-1.74388 -1.96811 -3.56088 
-0.28539 0.434919 -1.42119 
-4.15381e-18 2.17865e-18 1 

-0.418153 -0.445995 -0.0945638 
0.0146929 0.23064 -0.291062 
-6.65329e-18 -5.05067e-18 1 

-0.248812 -0.278861 -1.0043 
0.297994 0.219786 -0.329402 
3.82165e-18 -1.59547e-17 1 

-0.527956 -0.209401 -8.85452 
0.0186699 0.295584 -2.29659 
1.10187e-17 4.86257e-19 1 

-5.29126 4.08628 -38.6911 
-0.54271 1.14746 -6.10823 
-3.7538e-18 3.55743e-18 1 

-0.513301 0.188315 -1.96683 
0.515926 0.121413 -1.9485 
-1.03029e-18 4.19954e-18 1 

-0.663352 -0.0565579 -0.468611 
0.273359 0.107039 -0.397183 
1.97791e-18 -4.20305e-18 1 

-0.327291 -0.245336 1.23666 
0.137715 0.0446417 0.394676 
5.02735e-18 3.83795e-17 1 

-0.520624 0.147515 -8.50287 
0.0657357 0.288996 0.496421 
-7.1424e-18 2.90868e-18 1 

-0.505522 -0.357025 1.69184 
0.122247 0.145468 -1.17209 
2.52222e-18 1.07843e-17 1 

-0.371318 -0.499199 2.64291 
0.104458 0.0816236 2.91267 
-7.12196e-18 7.18125e-19 1 

-0.546566 0.386946 7.27725 
0.0558547 0.263985 -0.181376 
-1.11221e-18 -1.21791e-17 1 

-0.0788985 -0.339456 1.30205 
0.268486 0.0578305 1.33308 
-1.61796e-17 -7.30459e-18 1 

-0.52276 0.85174 -85.0639 
0.379308 0.459168 -16.1239 
-8.92185e-18 1.3126e-17 1 

-0.702304 2.13226 -2.44252 
0.31982 0.0967799 -1.13166 
3.22376e-18 -2.03345e-17 1 

-0.766287 -0.224865 1.68398 
0.0311109 0.108934 0.421483 
-1.25594e-17 -1.58101e-17 1 

-0.885229 0.715371 5.26933 
0.201687 0.332916 1.69143 
-1.30897e-17 8.14471e-18 1 

-0.144839 0.216424 0.366547 
-0.0594423 -0.0619911 0.172456 
-4.39897e-18 -1.03376e-17 1 

-0.570278 1.60101 17.5541 
0.114817 0.337365 -0.541125 
-3.02821e-19 -1.20571e-17 1 

-0.248234 -0.422314 0.523833 
0.111335 0.0237322 0.473643 
3.88138e-19 -5.51156e-18 1 

-0.25852 -0.245894 -0.812031 
0.0123238 0.0360552 -0.0250051 
4.49663e-18 -5.85978e-18 1 

-0.197588 -0.137953 -0.37204 
0.077777 -0.050273 0.241262 
6.18228e-18 7.4e-18 1 

-2.3004 0.951588 1.7397 
-1.35794 1.01719 -0.251542 
1.70033e-18 0 1 

-0.678413 -0.055753 0.73142 