# vtk DataFile Version 3.0
Output file generated by Yade's KinematicLocalisationAnalyser
ASCII
DATASET UNSTRUCTURED_GRID

POINTS 13483 float
632.308 30.3931 -0.423924
809.183 59.2004 -0.638085
123.774 6.23272 -0.42086
834.087 3.9767 0.528875
516.516 7.72905 -0.254154
324.41 35.9846 0.397856
161.366 6.88503 0.425015
591.121 10.11 0.148823
513.302 24.8533 0.137596
753.711 14.194 0.543269
217.087 8.88216 -0.124858
265.009 6.32026 -0.260087
679.02 28.9787 -0.141456
659.502 14.3304 -0.103757
141.327 17.1364 0.449111
228.32 34.6824 0.397432
224.514 13.0004 -0.272697
298.04 9.55654 0.386571
351.543 32.9453 0.442438
542.491 8.62611 0.344224
424.107 36.6772 -0.120882
613.4 45.3441 -0.279388
831.726 37.5736 -0.493572
728.98 49.1402 -0.441325
474.292 16.1272 0.303732
248.612 44.1407 0.127197
508.089 28.2163 -0.464523
608.783 20.3745 0.212386
46.2912 15.5067 0.463221
750.342 33.0443 -0.385154
498.892 4.94166 0.317092
17.239 23.2492 -0.282412
822.037 54.9906 0.285204
512.281 2.48019 0.484424
80.5737 44.5162 0.100663
539.62 30.6678 0.323162
548.993 16.763 -0.410188
354.838 22.3208 0.195687
552.618 25.7824 -0.317044
361.916 33.5076 0.474412
248.681 14.4333 -0.359931
448.678 36.4652 0.0714009
706.47 7.19415 0.118059
198.888 6.20514 0.372494
57.2379 6.97782 -0.125503
70.7545 8.83275 -0.263389
723.429 9.13663 -0.527548
24.1352 11.524 0.283267
635.452 46.4046 0.352823
709.975 24.6573 0.348537
177.881 32.5299 -0.306626
802.21 48.6515 -0.116611
36.2316 28.2318 -0.1181
552.99 2.99538 0.323936
146.622 7.49197 -0.48377
617.096 34.4231 0.405183
521.44 28.0375 0.117931
180.34 0.94691 -0.266454
33.733 2.40312 0.298015
360.103 17.7537 0.270335
647.442 47.8067 0.135384
477.985 32.7139 0.193167
412.867 1.02722 0.196637
734.476 7.93425 0.327539
27.4058 43.1161 0.235811
264.909 30.4996 -0.312663
754.567 8.44266 0.33816
701.255 46.0341 0.403141
431.831 8.59174 -0.501183
592.149 3.54188 -0.343521
777.605 37.1965 0.382387
134.955 7.59343 -0.281278
516.008 27.1939 -0.14901
494.544 14.9167 -0.151462
304.361 16.5306 -0.356587
21.3744 13.5575 -0.272053
822.304 43.8819 -0.321652
343.726 38.4498 -0.305192
707.3 21.5448 0.362923
723.299 13.0067 -0.265147
821.477 12.381 -0.291064
481.493 34.4262 -0.165153
95.6151 38.5819 -0.275977
717.65 39.051 0.248321
677.139 41.1743 -0.110248
836.934 42.3505 0.11749
815.455 0.769732 -0.551608
301.106 29.5407 0.435902
647.76 6.48637 -0.126299
24.9361 5.14229 0.478505
137.602 38.1342 -0.140527
531.276 14.5547 0.235852
811.679 34.0392 -0.502872
202.147 28.7032 0.251434
45.996 34.3146 -0.288455
511.177 1.15874 0.13476
243.82 8.83965 -0.375944
785.336 55.0707 -0.269783
802.349 38.7232 0.270659
374.165 20.5911 -0.261834
169.675 26.9358 -0.439205
571.255 39.6102 -0.457311
393.93 15.3721 -0.42757
428.532 29.7048 -0.102968
391.906 4.54727 0.407391
569.596 10.8509 -0.0988642
838.618 11.2333 0.215971
83.0781 39.3823 -0.401653
347.468 4.8642 -0.186422
584.455 9.38678 -0.358167
372.926 44.3806 0.441845
26.6665 25.0082 -0.493797
31.4229 5.65555 0.340887
591.69 33.1204 0.450988
524.39 24.1426 -0.140698
27.3347 37.1149 0.412436
96.6517 31.0549 0.212317
337.135 15.913 -0.303026
627.101 19.0604 -0.141513
493.898 38.0551 0.301955
770.143 7.39936 -0.467962
762.13 6.78765 -0.281821
401.383 36.7778 0.0965072
665.831 25.5731 0.10338
247.265 16.8329 0.54592
342.567 3.73275 0.458213
107.272 31.5868 -0.352464
120.647 24.1174 0.24827
566.498 39.959 0.081837
317.578 18.7029 0.492859
744.233 35.9883 0.0962736
704.459 45.855 0.112609
500.595 20.6484 -0.365209
800.66 18.0577 0.361244
445.853 23.8057 0.237675
288.461 24.0116 -0.294862
708.441 33.4976 0.287824
289.968 29.035 0.3841
602.679 12.613 -0.20258
344.795 35.1426 0.199827
525.562 11.6245 0.488459
380.886 31.8195 0.087111
448.166 16.6486 -0.101991
330.951 42.4605 0.432953
198.175 29.9833 0.117889
812.628 56.9495 0.154118
835.61 12.7336 -0.480176
6.20957 12.1724 0.423908
452.234 22.2085 -0.430086
39.8385 22.5145 0.0816653
391.543 31.1194 -0.46823
411.847 24.7171 -0.2665
77.7298 11.8641 -0.484402
53.9023 34.0847 0.529634
235.165 13.5041 0.419947
648.593 40.1201 -0.474421
605.098 21.4307 -0.499144
77.9828 20.9497 -0.48198
732.795 51.2754 -0.403051
797.083 3.68146 -0.663212
694.551 41.4269 0.532073
729.575 2.31901 0.403714
575.172 26.3182 0.387107
614.987 45.4529 0.439503
535.049 17.9348 -0.426223
831.537 2.74827 0.315607
232.973 25.2087 -0.114673
133.067 35.1843 0.18932
257.738 6.65203 0.388831
98.3981 4.42304 -0.255681
66.978 10.0688 0.22108
287.791 36.0481 -0.334962
17.5524 25.104 -0.35182
582.027 18.9056 -0.459266
635.33 41.3998 0.223783
483.866 21.2129 -0.363872
840.562 61.8804 0.351752
424.841 8.58754 -0.107532
455.183 36.8122 -0.275021
561.649 3.46384 -0.186065
23.9778 23.9971 0.374093
605.237 4.61648 0.40763
571.756 4.32109 -0.292034
215.249 11.3878 0.489697
444.207 16.2636 -0.199602
325.023 6.3046 0.339336
405.278 18.7627 -0.349801
773.704 50.7999 0.0988996
201.023 25.4028 -0.421393
808.56 8.50266 -0.403779
774.043 46.9524 -0.337809
400.68 10.2028 -0.170273
752.334 2.31823 -0.506279
635.755 26.8128 -0.397347
776.816 18.1378 -0.402856
450.396 43.4691 -0.267072
520.083 12.5171 0.445068
486.751 43.8816 0.22783
466.252 8.62003 0.11941
698.03 40.2957 -0.262878
695.727 36.8346 0.305823
200.486 38.9974 0.339512
819.409 12.8142 -0.11816
617.209 45.9911 -0.243827
11.8927 16.9115 0.245682
426.001 25.5025 0.349279
195.863 23.178 -0.398572
97.282 39.5526 -0.205057
808.961 32.9938 -0.413054
691.92 46.3473 -0.242611
333.356 25.3972 0.372598
558.399 10.2304 0.31952
85.8958 44.2667 -0.168543
258.802 25.8063 -0.467684
584.731 24.1777 0.355535
510.345 18.2955 -0.415527
274.67 0.890935 -0.343175
580.786 41.0608 0.386149
559.681 41.4167 -0.469354
505.282 34.1051 0.385778
523.278 0.84905 -0.559353
738.661 19.684 0.351463
187.667 12.086 -0.184531
524.568 37.6934 0.449971
592.688 40.2219 -0.126204
76.2814 0.955945 0.27067
263.199 4.73914 0.174212
835.038 16.058 0.270435
822.277 14.3016 -0.444418
841.893 15.5861 -0.53141
317.356 8.5724 -0.229042
779.924 25.196 -0.482739
425.989 41.5262 -0.348223
470.579 0.8139 -0.399269
682.819 38.4271 -0.605838
28.1934 30.6979 0.303023
345.845 41.0736 0.58612
264.075 2.87136 0.327948
825.624 52.6499 0.193181
748.342 51.6802 -0.133504
300.654 10.9003 0.228204
702.519 30.2953 -0.0801223
586.359 2.63676 0.298951
569.478 6.42004 0.420141
101.159 18.4356 0.498436
317.262 1.03162 -0.224785
359.318 2.26822 -0.361718
14.3867 7.65961 0.388261
4.57237 31.184 0.249375
169.389 18.8534 0.41366
71.2258 41.616 0.215397
69.717 28.6836 0.332796
443.933 14.3943 -0.436876
384.171 35.2514 -0.466151
800.071 50.5533 0.123463
20.1454 4.02725 -0.2645
73.9257 6.88496 0.133666
658.001 38.147 -0.16426
308.439 0.915664 0.361776
382.331 15.8791 -0.126512
246.616 4.67207 -0.376724
687.435 22.7104 0.209442
473.799 8.35709 0.414592
782.709 21.8336 -0.509026
665.499 28.8769 -0.307085
706.121 19.7852 0.075504
440.742 26.8221 0.499367
106.969 45.0538 -0.316137
569.994 43.4756 -0.0693179
774.714 13.0421 0.261351
248.897 30.3033 0.246054
33.3854 17.2612 0.18096
352.407 13.7327 0.498658
112.849 40.7295 -0.466857
280.437 42.1951 -0.204157
446.207 1.09667 -0.235104
814.556 35.776 0.384881
722.203 0.720662 -0.539902
348.033 3.2494 0.527584
314.651 27.7363 0.145367
485.497 40.8167 0.229401
85.4188 8.10067 -0.428462
207.174 45.0592 -0.377598
805.246 42.5836 0.338845
519.901 40.4809 0.0791551
209.512 41.2583 -0.262068
168.547 42.4408 0.263452
840.239 36.0107 0.433142
837.176 11.9228 -0.5281
638.742 3.20267 -0.599492
199.41 24.5867 0.0921189
576.9 27.2922 0.102541
578.962 27.613 0.253225
429.45 5.65282 -0.14287
506.038 0.927081 -0.286628
798.554 54.463 -0.51354
88.914 30.9421 0.208602
693.097 19.3642 -0.566109
287.676 15.4866 -0.351259
9.8739 2.40202 -0.327652
131.616 37.0239 0.192613
70.0939 23.1027 0.485731
737.704 39.4954 -0.334557
829.673 59.8497 -0.164806
194.448 28.4343 0.180815
831.072 13.5375 -0.438231
47.365 36.4266 0.253906
95.4193 29.3901 0.161742
669.227 12.6133 0.389966
434.41 17.5911 -0.57739
545.73 16.796 0.112597
249.476 28.3449 0.177776
655.097 4.54081 -0.397787
841.069 10.8568 0.50462
31.312 31.703 -0.26404
283.258 7.72254 0.190097
232.795 15.1575 0.251279
1.07815 35.7321 0.149782
236.178 14.5691 -0.374576
222.009 11.0292 0.124724
224.574 26.1971 -0.276803
139.83 27.7587 -0.133146
576.265 14.9735 -0.349619
175.253 14.2717 0.327609
819.556 53.804 0.232289
182.427 3.84602 0.500212
49.5789 38.3813 -0.365762
776.108 59.2525 0.426511
294.928 32.0464 -0.395995
716.497 24.5039 0.433372
820.941 38.5801 -0.489733
315.369 9.18387 -0.106248
772.908 34.6014 0.33419
344.877 2.59426 -0.381827
436.929 23.7502 0.360717
712.041 18.2324 0.726403
110.626 11.9566 0.431931
507.772 3.88355 -0.486885
786.986 21.1799 -0.217312
92.6636 7.73673 0.210357
295.593 14.6752 0.200041
444.788 11.6078 -0.201714
830.123 3.54683 0.604796
417.892 1.9394 -0.530366
185.335 39.121 0.309516
777.642 10.9314 -0.330414
134.919 36.226 0.181476
276.218 31.2616 -0.379683
420.688 21.4003 0.220666
605.136 14.5196 -0.322536
406.647 9.7973 -0.490403
479.811 27.3587 -0.419515
809.753 58.6201 0.528883
49.843 11.0013 -0.116303
314.026 38.993 -0.274641
398.43 25.832 -0.42287
430.568 20.7836 -0.249935
548.003 44.7673 0.356339
792.203 53.9304 0.257921
702.066 36.1124 0.378256
236.559 34.6959 -0.377347
14.551 31.7342 0.16049
693.909 37.4337 -0.165115
535.213 40.9935 -0.480365
240.711 39.4086 0.105996
722.53 35.9448 -0.126792
158.558 9.2406 0.209313
385.211 20.8472 0.298302
487.348 41.7718 0.107032
434.608 19.2443 0.200049
807.015 62.2366 0.291138
447.736 3.42236 0.438623
52.1616 25.3828 -0.313128
494.602 31.7512 0.343749
457.013 41.9975 0.380825
822.697 48.0056 -0.216374
770.522 32.9381 -0.223974
570.196 18.715 -0.14524
813.213 49.5391 -0.448563
307.974 2.20135 -0.465863
397.587 28.6646 0.441054
30.5872 38.848 0.299266
774.659 35.6036 0.13067
643.482 20.2347 -0.455274
486.942 0.779953 -0.4699
132.304 4.48244 -0.281609
448.484 40.7861 -0.113068
12.3272 0.921201 0.313956
829.891 5.46939 0.192936
388.583 39.1647 -0.396548
643.883 7.76153 0.457673
[...]
POINT_DATA 13483
TENSORS Strain_matrix float
-0.260665 -0.196654 -0.958783 
0.135604 0.162689 0.477848 
5.26568e-18 -1.83893e-18 1 

-0.390698 -0.0599226 -15.0208 
-0.0690353 0.28986 12.2299 
3.41094e-18 -2.80625e-18 1 

-0.102763 -0.00798398 0.68959 
0.00417713 -0.0449548 0.3494 
-1.39527e-18 -3.01385e-18 1 

-0.657511 -0.111822 1.45236 
0.0461711 0.0339934 -0.362935 
-1.94556e-17 0 1 

-0.289458 -0.0542352 -0.0274688 
0.00486561 0.0386712 -0.42566 
1.40001e-17 0 1 

-0.137191 0.0789486 1.26769 
-0.0846368 0.0140556 -0.419237 
-6.22997e-18 4.5905e-18 1 

-0.0755889 -0.0405593 0.0199493 
0.0105026 -0.0967417 -0.0250232 
-1.86048e-17 4.80125e-18 1 

-0.0909887 0.0013584 -0.0714794 
0.05087 -0.0539316 -0.0106387 
-1.60303e-17 -1.63099e-19 1 

-0.215312 0.0623847 0.61135 
0.133797 0.19346 0.351265 
-4.60239e-18 1.28382e-17 1 

-0.295553 -0.0897862 0.776972 
0.0930895 -0.0293984 0.0736129 
-1.82959e-17 7.56046e-18 1 

-0.0728324 0.00275488 0.0425311 
0.0105224 -0.0587093 -0.175944 
-5.0846e-18 6.8667e-18 1 

-0.087278 -0.0513628 0.19185 
-0.0675416 -0.0940755 0.0681886 
-3.08696e-18 4.816e-18 1 

-0.222045 0.341304 0.512699 
-0.0188518 0.25752 -0.010553 
9.03283e-18 1.22412e-17 1 

-0.191011 0.00872391 0.181763 
0.0695513 -0.0127069 0.10263 
1.06218e-17 3.41416e-18 1 

-0.113708 -0.0196991 0.0129175 
0.00990439 -0.0557568 -0.751461 
-1.04766e-17 -2.73154e-19 1 

-0.0707527 -0.0362716 0.428041 
0.0122204 -0.0249162 0.214012 
-8.89623e-18 3.53261e-18 1 

-0.0742461 -0.02316 -0.0207875 
0.00434687 -0.0880506 0.00672074 
1.0533e-17 -1.07636e-18 1 

-0.150447 -0.00613352 -0.0444956 
0.0105611 -0.0674357 -0.0160273 
7.42674e-18 -5.58752e-18 1 

-0.197395 -0.166117 0.028199 
-0.0607288 -0.0653142 -0.125594 
6.89428e-18 -1.28693e-17 1 

-0.104465 0.0432016 0.157478 
-0.0828645 -0.0707981 0.215152 
8.85894e-18 -2.32999e-18 1 

-0.143001 -0.000352558 0.0743925 
0.0357621 0.0129391 -0.0347016 
7.29772e-18 -6.75715e-18 1 

-0.151522 -0.2049 0.618096 
-0.0437835 0.0381049 -0.043461 
5.27031e-18 8.12921e-18 1 

-0.923333 0.450954 -4.05063 
-0.481412 0.498325 0.226944 
5.98571e-18 2.33911e-18 1 

-0.0970949 0.265516 -0.878751 
-0.357688 0.00285387 0.975605 
-5.53624e-18 -4.30668e-18 1 

-0.0648089 -0.0374307 -0.191696 
0.0805189 -0.0394822 0.0539707 
4.13763e-19 2.78941e-18 1 

-0.155269 0.116122 -0.0749223 
-0.0901908 0.0519524 0.0142295 
-4.42248e-18 2.42073e-18 1 

-0.172439 -0.0258409 2.66145 
0.0551896 0.0427144 0.0837871 
-7.26113e-18 3.41499e-19 1 

-0.11739 -0.0284893 -0.435566 
-0.0628799 0.00394587 -0.264897 
1.10103e-17 1.06377e-18 1 

-0.0515493 0.0148206 -0.120804 
0.038347 -0.0758225 -0.68743 
-3.35988e-18 1.02371e-17 1 

-0.122863 -0.0714253 0.828956 
0.0762553 -0.00977236 -0.645314 
-3.62703e-18 1.69438e-18 1 

-0.0920953 0.00557963 -0.299214 
-0.0491601 -0.149053 0.363527 
-1.22017e-17 7.38905e-18 1 

-0.0867869 0.0966411 -0.339269 
0.0356712 -0.0523379 -0.0915258 
2.14373e-17 5.73061e-18 1 

-0.2799 -0.0771767 -0.907794 
-0.0587888 0.068103 1.27769 
-6.42828e-18 3.11772e-18 1 

-0.150869 0.0950469 -0.795405 
-0.00923445 0.0229297 -0.187232 
-4.5367e-18 -6.49064e-17 1 

-0.0435158 0.0283774 0.0893705 
-0.0640864 -0.112892 0.319067 
4.98462e-18 -1.62878e-17 1 

-0.129341 0.000850556 -1.76899 
-0.0225687 -0.0246238 -1.02131 
-3.93458e-19 4.24124e-18 1 

-0.0998078 0.0229345 0.000313675 
-0.00271272 -0.0305398 -0.80931 
2.67985e-18 -1.98131e-18 1 

-0.0327219 0.0734883 0.193276 
-0.0439334 -0.157977 0.0986214 
7.71535e-18 4.24344e-18 1 

-0.0918125 -0.0517038 0.241015 
0.137875 -0.0224694 0.0659217 
5.32004e-19 -1.92852e-18 1 

-0.095655 -0.0696214 0.879296 
0.0147431 0.0111285 2.02678 
7.51132e-20 -5.51665e-18 1 

-0.117535 -0.000692177 -0.0866767 
-0.0649885 -0.0777528 -0.334225 
-4.69005e-18 4.31698e-18 1 

-0.0592886 -0.0519296 0.159119 
-1.85516e-05 -0.0319452 0.184089 
-5.84255e-18 7.64026e-18 1 

-0.414532 0.178354 1.06445 
-0.180625 0.0536585 0.378909 
1.18694e-18 1.61084e-18 1 

-0.0591926 -0.025701 0.505866 
-0.00626801 -0.0812912 -0.0319953 
5.38196e-18 -7.64431e-18 1 

-0.0717191 0.032685 -0.0131388 
-0.0365665 -0.0953719 0.152462 
-3.35157e-18 4.18946e-19 1 

-0.0603935 -0.00471734 -0.0514438 
-0.0275082 -0.0483619 -0.116491 
2.48339e-18 1.1823e-17 1 

-0.288119 0.17167 1.66905 
-0.0761325 -0.031594 0.274783 
5.38797e-18 9.63534e-18 1 

-0.0576605 0.0259825 0.0330775 
-0.0631708 -0.121921 0.0104967 
-4.32599e-18 5.45003e-18 1 

-0.126911 -0.0111839 -0.225361 
0.067495 0.0262317 -0.136192 
7.31477e-18 -1.08396e-17 1 

-0.119953 0.189955 0.1052 
-0.0938156 -0.00466621 -0.00900224 
-9.29514e-18 -1.91555e-18 1 

-0.0217541 -0.157101 0.691521 
-0.0207172 -0.0356141 -0.189081 
2.0511e-17 -1.66349e-17 1 

-0.0765385 0.612198 1.75675 
-0.0717484 0.0599078 -0.438349 
6.15457e-18 -6.03911e-18 1 

-0.115503 0.00785086 0.120791 
-0.0450947 0.0161853 -0.0807685 
-1.73248e-17 -2.21801e-18 1 

-0.12386 0.0425779 0.0966523 
-0.0208349 -0.0436818 -0.00601953 
5.0832e-18 2.22972e-17 1 

-0.107133 -0.0101348 -0.103889 
-0.0265361 -0.074601 -1.14499 
2.90994e-18 -6.53188e-18 1 

-0.138931 -0.0641737 0.284951 
0.0773252 -0.0372292 -2.86037 
5.55212e-18 -2.47636e-18 1 

-0.381073 0.0194008 0.124679 
0.0972202 0.281484 -0.146782 
4.31211e-18 -4.27361e-18 1 

-0.0817813 -0.012484 -0.182032 
-0.00196634 -0.0906891 0.047351 
2.25071e-18 -7.66408e-18 1 

-0.03947 0.0250758 -0.0244252 
-0.000449076 -0.150885 0.0319183 
1.10682e-17 2.23666e-18 1 

-0.0871938 -0.00173913 -0.178212 
-0.0760319 -0.0614557 -0.0236248 
3.96862e-18 -8.50418e-18 1 

-0.222396 -0.650725 -1.09373 
0.00405597 0.276434 -0.397429 
4.64097e-18 1.17225e-17 1 

-0.0690958 -0.0205639 0.405468 
0.0841241 -0.0197259 0.290349 
-6.26427e-18 5.8965e-18 1 

-0.0928838 -0.0838122 -0.253224 
-0.00738654 -0.048133 -0.0862559 
-5.36989e-18 -1.33467e-17 1 

-0.167836 -0.0412224 -0.0719175 
0.0854346 0.0162486 0.616158 
9.325e-18 -5.68442e-18 1 

-0.0925378 0.0249324 0.070407 
-0.00242074 0.0241139 0.113827 
-5.25941e-19 -1.3017e-17 1 

-0.136402 0.0181407 0.181101 
-0.0346359 -0.00386446 0.0546729 
-3.38224e-18 -9.39511e-19 1 

-0.314864 -0.124709 0.226382 
0.191274 0.0566403 0.442941 
6.67039e-18 4.46165e-18 1 

-0.58445 -0.3542 -0.856421 
0.271395 0.102883 0.838329 
7.62733e-18 -2.77444e-17 1 

-0.111333 0.00567798 -0.859094 
-0.0416176 -0.0882205 0.888722 
3.92609e-18 1.22404e-18 1 

-0.137714 -0.0339678 0.0889874 
-0.0163453 -0.0795324 0.0658545 
-1.78326e-19 5.52811e-18 1 

-1.15254 0.484071 0.366532 
0.331288 0.475585 -1.53238 
-3.46603e-18 -1.16637e-18 1 

-0.0604644 0.0188484 0.07449 
-0.00821612 -0.0787236 -0.105837 
-1.51436e-18 1.88191e-18 1 

-0.0231849 0.379401 1.00343 
-0.328501 0.0273922 0.76242 
-1.12292e-17 4.12322e-18 1 

-0.0881005 -0.0269242 0.0568034 
-0.0294772 -0.054593 -0.273915 
2.99415e-18 5.59148e-19 1 

-0.115441 0.0050218 -0.375007 
0.0115993 -0.0553599 0.178949 
1.17404e-17 1.25302e-18 1 

-0.0642246 0.0368153 -0.0200019 
-0.0907894 -0.0971619 -0.111798 
-9.07485e-18 -3.58773e-18 1 

-1.96272 0.94131 1.23939 
0.419089 0.496355 0.61066 
-8.7472e-18 -1.07407e-17 1 

-0.0977702 0.0562891 -0.277994 
-0.0537957 -0.0313001 0.211424 
-1.23116e-17 1.223e-17 1 

-0.227337 -0.0406788 0.11838 
0.0841629 -0.0104425 -0.385265 
1.44136e-17 -1.60151e-18 1 

-0.128751 0.0228012 0.202196 
-0.017272 -0.00275354 0.397699 
-2.11356e-18 -1.08511e-17 1 

-0.265684 0.25853 -0.395585 
-0.0617789 -0.0446654 0.26533 
1.66389e-19 1.40506e-17 1 

-0.0431516 -0.0069557 0.0464315 
0.00667989 -0.025112 0.0406978 
1.18493e-17 -2.45929e-18 1 

-0.0518435 0.0211275 0.119502 
0.0198388 -0.0205821 -0.187044 
-5.5041e-18 -2.9648e-18 1 

-0.434926 0.0727852 1.08165 
-0.244817 0.235755 -0.340397 
-2.82883e-18 1.36584e-17 1 

-0.236374 -0.173392 -0.021202 
0.139813 -0.0198548 0.399932 
-2.48263e-18 -4.96527e-18 1 

-0.371373 0.650298 1.24006 
-0.613795 0.436891 -0.494058 
-9.82358e-18 -4.25263e-18 1 

-0.626194 6.80342 -7.72358 
0.0364631 0.180174 -0.376958 
4.21924e-18 3.51034e-18 1 

-0.0476329 -0.119976 0.50302 
0.0527339 -0.143919 0.123681 
-2.07166e-17 -5.55405e-19 1 

-0.150976 0.0359149 -0.162628 
-0.00476899 -0.0490672 -0.0521382 
8.52881e-18 1.3002e-17 1 

-0.100691 0.0377696 0.0908734 
-0.00198417 -0.0915746 -0.101641 
-3.35583e-18 -7.10818e-18 1 

-0.0708913 -0.0625981 0.0707191 
-0.0049587 -0.0362321 -0.152613 
-8.45878e-18 2.15969e-18 1 

-0.115517 -0.0257229 -0.0246347 
0.0273169 -0.0618417 0.235816 
1.24687e-17 3.91874e-18 1 

-0.651614 0.445486 2.11625 
-0.276896 0.305646 6.35867 
-7.26325e-18 4.8211e-18 1 

-0.115469 -0.0552939 0.167778 
-0.0286642 -0.00280387 -0.0819273 
1.93161e-17 -2.38777e-18 1 

-0.0695644 0.0299762 -0.448023 
0.0374127 0.0161884 -0.606106 
-1.82517e-17 1.97787e-17 1 

-0.128307 0.0759639 -0.134876 
-0.00365441 -0.0491554 0.0128394 
-1.31906e-17 -9.60737e-17 1 

-0.0927659 0.023957 -0.134817 
-0.0142343 -0.0379241 0.0395733 
-8.52913e-18 -4.85143e-18 1 

-0.75612 -0.0061026 -0.0150145 
0.426062 0.24044 -0.125585 
2.69482e-17 2.52418e-17 1 

-1.10661 0.602571 1.01423 
0.248433 0.430763 -0.783369 
-6.47363e-20 -1.29473e-19 1 

-0.040063 -0.00273931 -0.0186642 
-0.0276775 -0.0791495 0.0408419 
1.40809e-17 8.12522e-18 1 

-0.0575958 -0.0282094 0.131766 
0.0276306 -0.037292 -0.452143 
2.2161e-18 8.07922e-18 1 

-0.183171 -0.0372352 -0.231524 
-0.0529609 -0.0358642 -0.183453 
-5.95476e-18 -5.09329e-18 1 

-0.10739 -0.0110185 -0.730202 
-0.000892966 -0.043222 0.238979 
9.15006e-18 3.8749e-18 1 

-0.100362 -0.0508212 -0.227204 
-0.00850199 0.0349371 -0.310626 
3.75571e-18 -7.27458e-18 1 

-0.0945191 -0.0243238 0.0228671 
0.0187158 -0.074271 0.270494 
-4.71224e-18 -8.91041e-18 1 

-0.114518 0.0326275 0.127498 
-0.0232749 -0.0497425 -0.00217343 
3.8802e-18 6.2768e-19 1 

-0.435997 0.0836204 0.26388 
-0.125494 0.079423 0.045879 
5.77051e-18 -1.20665e-17 1 

-0.07169 0.0115545 0.0816455 
-0.0474523 -0.0350964 0.846894 
1.45491e-18 -1.2232e-17 1 

-0.118141 0.0398332 0.0923256 
0.0239566 -0.0993201 -0.0292601 
-3.00898e-18 1.09104e-18 1 

-0.132119 -0.0132045 -0.29882 
0.034566 -0.0779423 -0.186227 
8.76239e-18 -4.07746e-18 1 

-0.105639 0.0598763 -0.501776 
0.0733489 -0.0898867 -0.756458 
-1.05445e-17 -7.12623e-18 1 

-0.10991 0.0371406 -0.0535111 
-0.00108206 -0.0292441 -1.91161 
9.59515e-18 1.03916e-17 1 

-0.0683875 0.03141 -0.0112039 
0.00344642 -0.132864 0.0245382 
3.40402e-18 5.02748e-19 1 

-0.114345 -0.105316 1.38542 
0.10546 0.0179077 -0.866266 
1.30193e-17 4.97771e-18 1 

-0.128778 0.0248326 0.190493 
-0.117975 0.012822 0.0581044 
-2.14497e-17 1.28606e-17 1 

-0.0730193 -0.010817 0.0426528 
0.0067928 -0.0149585 0.101365 
-2.64716e-18 -1.42652e-17 1 

-0.0738406 0.0425814 -0.0522944 
0.0902402 -0.0505241 0.0739169 
-1.88333e-18 2.825e-18 1 

-0.0696625 0.0180201 -0.0319761 
0.0652669 -0.0591167 -0.0979016 
-7.38361e-19 8.7975e-18 1 

-0.224135 0.0858671 0.158421 
0.0737288 0.0521101 -0.192252 
1.1016e-17 -9.09373e-18 1 

-0.0983036 -0.0380128 -0.360304 
0.0362105 -0.00317091 0.432222 
7.83586e-18 4.33399e-18 1 

-0.401722 -0.0369407 -0.117162 
0.17291 -0.0988636 0.147871 
1.08601e-17 1.27339e-17 1 

-0.429171 0.202848 -0.536979 
-0.305676 0.0693182 0.587946 
-1.05395e-17 -1.19518e-17 1 

-0.0854797 0.0552772 0.0662993 
-0.0268796 0.0315383 0.180268 
-4.94967e-18 -6.11657e-18 1 

-0.0410811 0.143529 0.00535681 
-0.188817 -0.0504932 0.210271 
-8.24323e-18 -9.08656e-18 1 

-0.0881835 0.00496611 -0.089989 
-0.00239496 -0.0387481 -4.11406 
2.76174e-18 -7.92065e-19 1 

-0.0881305 0.0390926 -0.236586 
-0.0196613 -0.121922 -0.0300644 
-1.24608e-17 1.75767e-17 1 

-0.0544271 -0.0862786 -0.261798 
-0.036527 -0.0353753 0.0220114 
1.53952e-18 5.47387e-18 1 

-0.192303 0.0336741 0.241077 
-0.021608 0.0714682 0.265491 
4.89766e-18 1.50299e-17 1 

-0.0808902 -0.12964 0.0166188 
0.0825484 -0.0276676 -0.304249 
5.52667e-19 1.40841e-18 1 

-0.0943504 0.00453385 -0.45823 
-0.000830827 -0.0390164 0.487292 
-1.16117e-18 3.19589e-20 1 

-0.0249542 0.12924 0.309317 
-0.166728 -0.0398615 -0.124562 
-3.50941e-18 8.5738e-18 1 

-0.336535 -0.462533 -0.131947 
0.235639 0.245897 0.392833 
-9.32877e-18 -1.3483e-18 1 

-0.106082 0.0650143 0.32435 
0.011062 0.0354606 0.533238 
2.99929e-19 -1.46215e-17 1 

-0.653438 0.325485 0.7698 
-0.388069 0.188907 0.448297 
5.30471e-18 -1.5936e-17 1 

-0.161009 0.0419111 0.394609 
-0.128586 0.0950548 -0.0330658 
-6.7807e-18 -1.24325e-17 1 

-0.106884 -0.00753152 0.314904 
0.0174737 0.0721306 -0.119512 
9.52092e-18 -3.16218e-18 1 

-0.267087 -0.153732 0.38046 
0.237293 0.155533 -0.183416 
4.16915e-18 -6.1495e-18 1 

-0.094236 0.00754463 0.0312208 
0.0595563 -0.0154831 -0.767831 
7.04174e-18 2.95975e-18 1 

-0.110984 -0.0470264 0.0338453 
0.103173 -0.0329393 0.123893 
-2.76607e-18 -6.65633e-19 1 

-0.0602864 -0.016942 0.106558 
0.031623 -0.070863 -0.103745 
-7.33404e-18 9.94446e-19 1 

-0.159907 -0.0712493 0.130533 
0.0504503 -0.0236497 0.035704 
1.77086e-17 -1.65382e-18 1 

-0.0148134 0.0959649 -0.125502 
-0.0765237 -0.0294322 0.171994 
-2.78546e-18 8.80206e-18 1 

-0.0867597 -0.0635809 0.114107 
0.0192207 -0.0324752 -0.0835773 
1.29142e-17 1.70415e-18 1 

-0.0798256 0.00857649 -0.832131 
-0.0507449 -0.00743606 0.102076 
1.80309e-18 1.34629e-17 1 

-0.0107778 -0.0826098 -0.25493 
0.036951 0.0116118 -0.0973451 
7.92975e-18 1.73803e-18 1 

-0.343977 -0.230409 0.572957 
0.0127341 0.179467 -0.40785 
-5.47299e-18 -5.77824e-18 1 

-0.490464 0.307798 0.869626 
-0.442541 0.137909 -0.144496 
-3.59259e-18 -4.5581e-18 1 

-0.0914441 0.0248878 -0.772966 
-0.00736727 -0.078929 -0.0472654 
-4.66047e-20 -5.56927e-18 1 

-0.0823192 0.00243638 0.254907 
0.0132825 -0.0660529 -0.281095 
4.04947e-18 -5.7344e-18 1 

-0.0428726 0.0816596 0.0968389 
0.0202796 -0.00443906 0.26202 
4.77544e-18 -1.20263e-17 1 

-0.0899181 -0.0278609 -0.698185 
-0.0463295 0.00735488 -1.4465 
5.93568e-18 -4.99632e-18 1 

-0.193775 0.020199 0.013333 
0.0453043 0.0245762 -0.184097 
3.6106e-19 -1.08506e-18 1 

-0.118353 -0.075204 -0.554027 
0.024382 -0.0419515 -0.270093 
1.88752e-18 1.05614e-17 1 

-0.0918092 -0.00629603 0.105286 
-8.63593e-05 0.0214581 7.39141 
-3.81894e-19 -2.17365e-18 1 

-0.0845171 -0.0124524 0.217859 
0.0206711 -0.0695836 -0.0374216 
4.63893e-18 -4.49835e-18 1 

-0.354658 0.160273 0.699956 
-0.141842 0.274752 0.017804 
-1.60036e-19 -3.70369e-18 1 

-0.0858158 -0.107957 -0.748239 
0.0691983 0.00906332 -0.291739 
-1.82398e-18 6.91148e-18 1 

-0.0835086 -0.00156661 -1.17337 
-0.0273218 -0.0175977 -0.637174 
4.19832e-18 9.28256e-20 1 

-0.302708 -0.323859 2.54191 
-0.187205 0.405881 -1.27287 
6.96086e-19 2.50156e-19 1 

-1.51034 -0.559277 22.9012 
0.357353 0.34339 4.13022 
-1.2386e-17 1.59081e-17 1 

-0.239123 0.00583644 -1.77569 
-0.0791855 0.0454145 4.94039 
6.92254e-18 1.02101e-17 1 

-0.11684 -0.0414132 -0.245449 
-0.0165415 -0.0836144 0.169955 
-1.0244e-17 -4.56555e-19 1 

-0.467632 0.2508 0.813999 
-0.260577 0.207439 0.478112 
5.91055e-18 -2.87618e-20 1 

-0.149267 -0.105365 1.48715 
0.0360756 0.093069 0.0280447 
3.37591e-18 -1.25034e-17 1 

-0.156242 0.0453177 -0.550851 
0.0187276 -0.0178254 -0.495947 
3.67337e-18 3.47161e-18 1 

-0.608143 0.24302 -0.233176 
-0.359355 -0.00996781 0.244568 
-7.60982e-18 1.2683e-18 1 

-0.122728 -0.0295498 -0.0793628 
-0.00604907 0.0306696 -0.203398 
7.44137e-18 -1.03087e-17 1 

-0.0869196 -0.020423 0.00615277 
-0.0681969 -0.0349327 -0.0809925 
-1.39881e-18 3.61941e-18 1 

-0.0755073 -0.0463379 0.129414 
0.018707 -0.101543 0.288983 
9.9904e-19 3.20525e-18 1 

-0.133598 -0.00487645 0.246234 
0.0125068 -0.0307493 0.0375389 
-1.11403e-17 2.05069e-18 1 

-0.0837542 -0.0123125 -2.51946e-05 
-0.00364026 -0.0615272 -0.133806 
-3.04813e-20 -1.9508e-18 1 

-0.0669808 -0.0139461 -0.297582 
0.0694708 -0.0226488 -0.416533 
3.62105e-18 -3.09641e-19 1 

-0.1266 -0.029992 0.0665227 
0.0124151 0.0176787 -0.0026498 
6.09238e-18 -6.21262e-19 1 

-0.194863 -0.0705402 0.196424 
-0.0444783 0.0507476 0.271791 
-6.86635e-19 -4.85146e-18 1 

-0.104766 -0.0151186 -0.0697809 
0.0194418 -0.0258604 -0.0576738 
-5.76283e-19 1.0043e-17 1 

-0.10673 0.0117913 0.0472327 
-0.0316491 -0.0500732 0.0326056 
1.49864e-17 1.61174e-17 1 

0.0404466 -1.21903 0.0767338 
0.784365 0.857984 0.175262 
-3.21498e-18 2.29012e-18 1 

-0.107603 -0.0121497 -0.0127723 
0.0031206 -0.0511256 -0.141812 
2.50909e-18 -7.87165e-18 1 

-0.125435 0.0773036 -0.0860516 
-0.11134 -0.00971344 0.0532725 
-4.81834e-18 6.38632e-18 1 

-0.149867 0.0606053 -0.0599356 
-0.0186415 -0.0709593 -0.0400759 
-3.83777e-18 9.74671e-20 1 

-0.077046 0.040881 -0.670258 
-0.0366877 0.0151971 -0.149921 
-2.3597e-18 -5.25704e-18 1 

-0.249486 0.037905 0.356002 
-0.192302 -0.0444306 0.348167 
-7.36408e-18 2.24124e-18 1 

-0.0672958 -0.0106703 -0.0418676 
-0.0412255 -0.0616118 0.0890196 
-1.35407e-18 7.67661e-18 1 

-0.076691 -0.0128805 -0.607398 
0.0265955 -0.0636863 -1.45296 
-1.49018e-18 1.17695e-17 1 

-0.178377 -0.0849964 0.10012 
0.153547 0.0382119 -0.326168 
5.84531e-18 2.03751e-17 1 

-0.118328 -0.0114974 0.115956 
-0.0606529 -0.051603 0.134084 
5.34742e-18 2.6085e-18 1 

-0.117024 0.0129163 0.591546 
-0.0204994 -0.0397717 0.14792 
1.46641e-18 -2.69952e-18 1 

-0.11553 -0.701254 0.1455 
0.582759 0.289837 0.165187 
1.15466e-17 -5.19311e-18 1 

-0.0831399 -0.0331114 0.383366 
-0.0382797 -0.02901 -0.188657 
2.70341e-18 -1.19268e-18 1 

-0.613973 0.118004 -2.38498 
-0.288095 0.289279 -1.78388 
1.2137e-17 -5.54174e-18 1 

-0.00326363 -0.433529 -0.247746 
0.449105 0.0508568 -0.00780489 
1.3086e-18 9.52214e-18 1 

-0.0907934 -0.067839 -0.154646 
0.0362348 -0.0574596 -0.0302135 
7.15911e-18 -5.86211e-19 1 

-0.556423 -0.111694 0.0842093 
0.00854673 0.23946 1.95516 
3.34848e-18 5.27105e-18 1 

-0.343615 -0.0372179 0.285975 
-0.0913656 0.178714 2.41451 
-1.58708e-18 8.29843e-19 1 

-0.369529 -0.135178 0.18015 
0.00803212 0.00197958 -0.127941 
-6.37054e-18 -8.06771e-18 1 

-0.0797645 0.00421621 0.273336 
-0.00994257 -0.0310805 0.509736 
7.98941e-18 -1.18496e-17 1 

-0.177527 0.0768862 -0.135511 
-0.0995379 -0.0285307 0.0297134 
-1.47152e-18 1.45254e-17 1 

-0.119411 0.0174167 0.201172 
-0.0247901 0.0575875 0.326368 
-4.11435e-19 1.16604e-17 1 

-0.0991673 -0.0424333 -0.0883553 
-0.0513806 -0.0613002 0.306334 
-1.8778e-17 2.53187e-18 1 

-0.183359 -0.0480259 -0.8089 
0.0710918 0.00784858 -0.442362 
-1.21588e-18 -4.74852e-18 1 

-0.0253062 0.0185625 -0.0302746 
0.0196712 -0.147743 -0.217923 
1.94235e-17 1.44076e-18 1 

-0.0739832 -0.0265646 -0.0793599 
-0.00448825 -0.0345289 0.147138 
-1.01664e-17 -1.02691e-18 1 

-0.461178 0.30217 -0.488625 
-0.124685 0.198628 0.448897 
6.69799e-18 6.63643e-18 1 

-0.187189 -0.207701 0.205431 
-0.0136972 0.10436 -0.138813 
4.18337e-18 1.54847e-17 1 

-0.133946 0.0339644 -0.106606 
-0.00138328 -0.0653659 0.166539 
-9.58429e-19 -7.28406e-18 1 

-0.0528289 -0.116737 -0.0630866 
0.044609 -0.0247139 -0.508191 
-1.19093e-17 -7.8696e-19 1 

-0.14231 0.0127677 -0.13056 
0.022637 0.043915 -0.198237 
1.24406e-17 1.44794e-18 1 

-0.062835 -0.00999842 0.0229016 
0.0654681 0.00752682 -0.146043 
-2.03821e-18 -2.45546e-19 1 

-0.312566 0.214159 -1.83023 
-0.258662 0.168936 -1.6875 
-9.11505e-18 -1.99943e-18 1 

-0.315543 0.0912261 -0.00077108 
-0.234125 0.251863 0.521456 
8.70843e-19 0 1 

-0.0513939 -0.0770933 0.498301 
-0.0419944 0.0143473 0.328493 
-3.81322e-18 -4.10907e-18 1 

-0.126766 -0.0181651 0.174499 
0.0283667 -0.0377776 -0.601672 
-8.48678e-18 -2.78393e-18 1 

-0.0607564 0.00336981 0.126681 
0.0776374 -0.00721516 0.310541 
9.12909e-18 -6.58492e-18 1 

-0.0744784 0.00740675 -0.406147 
-0.0237814 -0.0153189 -4.41427 
1.15472e-18 3.31981e-18 1 

-0.228783 -0.0307384 0.219373 
-0.0279319 0.0814484 0.763308 
7.81102e-19 1.66539e-18 1 

-0.163645 -0.0032899 -0.324883 
0.034255 0.0290898 -2.09855 
-5.04563e-18 -1.24171e-17 1 

-0.095869 -0.0126539 0.0511381 
-0.00424174 -0.148671 0.0620836 
8.42151e-18 -1.2297e-17 1 

-0.117581 -0.0982574 -1.56767 
0.0363127 0.0284137 -0.0850121 
-4.80101e-18 7.64763e-18 1 

-0.14366 -0.120687 0.501686 
0.0640828 -0.0568627 3.79975 
4.62964e-18 1.60097e-17 1 
