# vtk DataFile Version 3.0
Output file generated by Yade's KinematicLocalisationAnalyser
ASCII
DATASET UNSTRUCTURED_GRID

POINTS 13483 float
512.043 58.5848 -0.407132
611.161 89.0648 0.339432
112.603 6.11037 -0.446718
636.931 7.67607 0.429212
455.023 8.26502 -0.375596
299.266 41.2014 0.570199
147.723 7.25224 0.451552
489.647 29.6867 0.140357
448.991 26.5271 -0.161067
585.636 16.5353 0.614197
199.651 8.99769 -0.093021
244.793 6.41661 -0.242977
536.911 51.2699 -0.151066
532.772 15.5504 -0.126394
129.294 18.7335 0.498119
209.754 35.8159 0.292746
206.873 13.1499 -0.287516
275.163 9.77904 0.455226
322.831 36.7617 0.440817
477.829 8.20828 0.362711
387.527 54.1092 0.0995493
505.686 76.9508 -0.267853
627.627 59.4903 -0.458085
570.226 77.1153 0.461763
421.404 18.7264 0.356667
229.103 46.0954 0.137153
432.484 35.3898 -0.473853
501.498 42.4146 -0.235513
43.3352 16.5873 -0.392429
578.945 41.4182 -0.45532
440.857 4.56063 0.426244
16.0125 24.0914 -0.322475
619.648 77.1077 0.276921
452.746 2.2266 0.644021
73.7798 46.5807 -0.108015
448.641 39.1281 0.346695
482.962 16.4868 -0.553197
326.547 24.8916 -0.173548
458.481 40.0588 -0.31761
332.845 37.9407 0.516898
229.49 14.7751 -0.332516
399.993 44.3527 -0.0636615
560.571 27.1545 -0.174099
182.302 6.25187 0.352433
52.7221 7.18046 -0.10885
65.1051 9.02215 -0.260255
561.948 12.0513 -0.628151
22.5095 11.6657 0.305583
528.02 85.7106 -0.353697
558.096 46.7225 0.343242
162.217 34.127 -0.30162
601.46 79.4782 -0.127382
32.8802 29.5756 -0.114696
487.783 2.56709 0.344218
134.114 7.27157 -0.503878
512.999 68.3325 0.368043
436.702 43.2345 -0.126239
165.281 0.964195 -0.276129
31.4256 2.32868 0.354451
330.715 19.1368 0.284363
540.085 89.2256 0.132298
426.243 40.3059 -0.170846
372.246 1.02867 0.269684
570.424 7.7931 0.39347
24.4663 44.1637 0.274563
244.21 31.7298 -0.307226
587.08 9.47878 0.554699
544.936 81.6522 0.344076
388.648 9.75603 -0.654821
495.726 13.945 -0.4721
595.533 64.9708 0.416006
123.462 7.90396 -0.254833
444.869 27.7921 -0.152334
436.791 14.1688 -0.172195
281.152 16.9034 -0.400454
20.0072 13.7763 -0.308129
616.662 65.7092 0.36595
315.624 42.6124 -0.30967
558.805 43.1082 0.441477
563.107 20.2818 0.272753
623.984 29.2443 -0.369889
426.833 44.422 0.191224
87.9247 41.2408 0.278518
560.792 82.9812 0.219199
530.162 63.6393 -0.123023
631.689 63.57 0.121825
637.051 0.797409 -0.431723
277.834 30.9276 0.417867
524.699 6.40466 -0.175106
23.6853 5.62146 0.639506
125.273 40.2658 -0.157096
468.54 14.6684 0.300499
613.229 51.708 -0.523674
184.782 29.5059 0.24661
41.6801 37.2203 -0.277894
451.585 1.15704 0.133457
224.777 8.93395 -0.431856
585.946 87.188 -0.264482
608.203 60.4805 0.280466
341.894 23.0354 -0.243469
155.333 28.4816 -0.464035
468.361 63.0435 -0.456252
358.745 18.2593 -0.571065
392.028 46.4453 0.102185
356.704 7.09004 0.668517
470.966 26.8066 0.135389
635.132 22.6304 0.337933
76.1587 41.3323 -0.424104
319.289 6.16983 -0.182402
484.158 29.1757 -0.457033
343.211 49.4863 0.454636
23.7439 25.5412 -0.499444
29.4877 5.84062 0.295978
488.603 59.5507 0.428206
453.722 25.0559 -0.162805
23.4236 37.7758 0.424663
89.239 33.0049 -0.219452
311.173 18.2669 -0.289047
513.047 31.452 -0.118359
428.067 56.2929 -0.093511
600.996 7.33421 -0.57546
593.601 8.1845 -0.318799
370.259 41.5819 -0.106296
530.841 38.2032 0.116989
227.969 17.1045 0.602325
315.501 5.20238 0.544316
97.6603 34.0527 -0.316794
110.016 25.0393 0.270297
463.856 61.5883 0.0756765
292.935 19.0834 0.535025
565.655 53.9996 -0.100217
548.762 84.8539 0.110491
440.201 20.8906 -0.418984
603.168 34.5931 0.360085
394.288 30.4726 -0.231526
266.823 24.4972 0.334919
554.77 69.6664 0.283354
267.609 29.7716 0.371389
498.508 34.2226 -0.235304
316.532 39.2218 0.208062
462.765 12.4891 0.582285
350.631 35.8438 0.0913234
399.958 20.1127 0.158382
303.385 47.823 0.446943
181.143 31.5413 0.114249
612.325 83.9465 -0.142988
632.751 24.589 -0.263058
5.95279 12.5067 0.43467
400.815 26.7758 -0.445491
36.876 24.1619 0.0705124
361.2 34.4467 -0.432686
375.979 27.7665 -0.283414
71.2265 12.488 -0.469996
48.2376 37.6118 0.549539
216.763 14.6276 0.546116
513.863 43.8891 -0.415013
494.806 46.4358 -0.512089
70.2894 23.2344 -0.484459
573.079 74.0602 0.455553
624.248 3.97866 -0.569626
543.224 72.9642 0.456606
566.023 1.86598 0.631666
475.263 50.0971 0.398056
507.031 77.8908 0.450564
471.813 18.5305 -0.491757
634.955 7.12288 0.516659
215.223 26.7056 -0.105242
120.852 37.281 0.203844
237.855 6.82852 0.406272
88.9938 4.91659 -0.259137
61.5622 10.3138 0.25254
265.267 38.4076 -0.411758
16.7169 26.7764 -0.391464
480.387 39.8456 -0.403652
528.838 80.8617 -0.196214
428.733 24.0719 -0.445663
635.595 85.5414 0.36125
382.579 8.81319 -0.181016
402.666 40.2757 -0.427953
495.121 3.62543 -0.333874
22.0944 24.6954 0.417219
498.353 19.0434 0.635003
502.291 6.24331 0.503354
198.001 11.3756 0.486875
397.092 18.8068 -0.267279
301.024 6.9474 0.342517
368.327 21.246 -0.456287
584.928 73.8426 0.107014
183.99 25.6458 -0.415124
618.357 20.9795 -0.46484
588.613 72.6168 -0.329908
363.945 11.5368 -0.349459
586.024 2.49437 -0.484994
510.546 38.347 -0.575283
606.308 17.9492 -0.507874
408.134 53.0981 -0.271688
458.001 13.328 0.503906
418.12 58.8545 -0.218691
415.382 11.789 -0.245476
546.532 74.8126 -0.263601
547.011 70.5399 -0.337691
183.788 40.5166 0.355257
621.764 29.1494 -0.18704
508.903 79.2089 0.241772
11.3205 17.1496 0.311999
385.098 31.6506 0.332555
179.754 23.4079 -0.432709
88.5383 43.0263 -0.204931
611.675 49.7939 -0.443342
537.514 77.0902 -0.289149
307.718 28.6539 0.377158
492.227 9.67013 0.335443
78.6649 46.4435 -0.187267
238.452 26.6936 -0.467523
480.357 45.6603 0.346604
449.873 19.1354 -0.588225
254.007 0.870513 -0.343848
477.101 67.6225 -0.348857
456.749 60.8999 -0.451678
439.073 59.0381 0.393099
462.137 2.00951 -0.658758
573.316 20.6937 0.478202
171.979 12.7288 -0.227283
456.659 68.1405 0.413311
488.143 67.3325 0.110122
70.7088 0.925651 0.334141
243.043 4.91604 0.192343
632.254 28.0405 0.240791
623.993 31.2446 -0.458334
637.149 27.9123 -0.654214
293.532 8.87606 -0.237226
589.639 40.4296 -0.454731
387.256 59.7228 -0.301045
416.115 0.867372 0.648745
536.048 63.9537 -0.535007
24.7425 31.4922 0.320928
317.82 45.2166 0.615351
243.829 3.05522 0.400308
622.064 73.5477 0.193991
576.092 67.3771 0.270909
277.701 11.1907 0.295061
546.912 61.6501 -0.115209
505.396 5.18615 -0.269508
499.483 10.2256 0.515966
92.6657 19.06 0.516778
293.479 1.25838 -0.252632
328.741 2.28614 -0.363099
13.7012 7.70627 0.409777
4.94422 32.9837 0.230691
155.1 19.755 0.411314
65.2769 44.5151 0.229113
62.1265 31.5126 0.31894
396.712 15.8126 -0.597254
353.913 39.5851 -0.475279
598.384 84.1221 -0.11353
19.2041 3.96049 -0.278404
68.1572 7.18277 0.129716
520.631 49.3759 -0.198405
285.008 0.944435 0.393062
347.183 18.158 -0.107871
227.422 4.81159 0.370414
540.951 38.2272 0.178452
419.126 10.8783 0.483254
609.193 25.988 -0.50036
531.151 42.195 -0.308438
557.783 41.5263 -0.0881486
392.624 38.2498 0.484419
96.4259 49.6003 -0.314432
466.066 66.287 0.0669202
604.88 12.8607 0.334587
229.152 32.2243 0.229672
30.9068 18.2388 0.211875
323.614 15.6127 0.517862
101.796 44.8869 0.47136
259.625 43.7691 -0.214021
400.144 2.59289 -0.209392
613.795 56.225 0.396081
559.971 3.69374 0.589399
319.439 4.28661 0.490765
289.895 29.1229 0.16859
420.23 56.084 -0.204044
78.2661 9.47545 -0.548169
190.077 46.3916 -0.394181
607.333 65.6168 0.35973
451.179 69.5283 0.0633208
192.248 42.131 -0.298264
153.353 44.5581 0.396349
638.475 55.4348 0.452302
634.394 23.9662 -0.587916
517.544 4.31108 -0.614401
182.452 24.6765 0.107197
477.039 50.9253 0.109166
479.269 53.7338 0.261554
387.018 6.00177 -0.128984
446.71 0.912716 0.416513
599.385 89.2311 -0.504956
81.6645 32.7577 -0.22103
544.874 37.64 -0.468056
265.604 16.1743 -0.376638
9.12592 2.40377 -0.319651
119.418 38.7957 -0.191209
62.2207 25.1505 0.4671
562.595 64.2197 0.302657
628.201 80.4963 -0.185335
179.081 30.7778 0.181569
632.215 30.8804 -0.465991
42.5859 39.4642 0.240631
87.8564 31.6327 0.158228
540.033 17.3094 0.445825
390.309 18.7834 -0.554948
481.189 16.5904 0.0972547
229.549 30.2904 -0.183483
531.752 4.11712 -0.569439
637.157 22.9244 0.4587
27.6806 32.4707 -0.259438
261.753 7.90411 0.213149
214.455 15.8335 0.275397
1.07481 37.76 -0.150943
217.702 15.4319 -0.426326
204.409 11.2151 0.113267
206.768 26.8659 -0.285377
126.107 30.3348 -0.13175
475.958 34.114 -0.305761
160.339 14.9633 -0.345712
616.97 77.2165 0.26037
167.175 3.90495 0.505162
44.0848 42.2671 -0.356553
578.743 80.8374 -0.556679
271.723 33.9593 -0.373367
563.677 46.8606 0.473099
618.732 58.2381 -0.553805
291.611 9.48967 0.128539
586.257 51.9227 -0.358135
317.451 2.69489 0.482528
389.274 28.1085 0.40011
564.47 40.8903 0.520898
100.971 12.0654 -0.547431
448.776 3.71315 -0.541501
598.572 32.2926 0.201433
84.123 7.97251 0.304186
273.14 15.0023 0.21545
397.889 14.1341 -0.288327
635.12 10.921 0.651156
377.035 1.77162 -0.572564
169.241 41.0596 0.350232
607.53 10.2779 -0.520768
122.734 38.2789 0.20553
255.006 32.2706 -0.397917
380.571 25.5342 0.255152
499.111 37.202 0.483434
367.612 10.5334 -0.566282
425.395 32.8928 -0.425525
610.534 87.6294 0.376975
46.3863 12.3213 -0.131447
289.042 40.9708 -0.31185
365.756 30.2227 -0.373501
386.329 21.9838 -0.277342
445.726 56.2429 0.35884
592.654 89.3329 0.221299
551.765 73.8733 -0.338845
217.773 36.6117 -0.369679
10.8421 34.4854 0.152226
545.488 69.2747 0.148739
467.375 73.3 0.429249
221.779 41.3949 0.123233
557.563 71.0934 -0.119807
144.989 9.49178 0.245817
350.14 24.4084 0.289749
420.186 58.1637 -0.104412
390.169 20.6121 -0.25743
609.639 93.203 0.29087
400.984 5.46187 0.617596
47.31 28.3954 -0.334223
432.411 51.32 0.364722
405.724 44.781 0.404752
617.838 70.3185 0.216663
584.05 44.8545 0.234095
470.135 37.5077 -0.175689
609.228 77.0252 -0.363977
284.615 2.25824 -0.468535
366.735 34.2716 0.468669
26.5052 39.5182 0.33308
592.251 57.6869 0.172426
522.549 23.8715 -0.65218
429.493 0.751331 -0.518807
120.551 4.81331 0.340182
405.53 53.1745 -0.0950919
11.5023 0.916212 0.314832
632.856 12.2805 0.100133
357.775 44.2571 -0.469406
[...]
POINT_DATA 13483
TENSORS Strain_matrix float
-0.732025 1.55884 -8.51136 
-0.305116 0.628598 -1.09742 
1.94178e-18 -2.57694e-18 1 

-2.28956 1.6825 92.799 
-0.118681 0.546161 -0.875012 
2.26721e-18 5.89916e-18 1 

-0.235947 -0.0191953 -0.182544 
0.0865042 0.0614193 -1.68001 
-1.38101e-17 3.96654e-18 1 

-2.56087 -1.59188 0.0180478 
0.773218 0.99858 0.260096 
2.78136e-17 2.68768e-17 1 

-0.688144 -0.396976 0.0417812 
0.00189751 0.0638274 -0.292015 
1.10743e-18 -1.61855e-18 1 

-0.375546 0.00190593 -0.0735591 
0.0415406 0.176459 4.00933 
9.20575e-18 -1.78885e-18 1 

-0.147566 -0.0461607 -0.23511 
0.0428378 -0.0677026 -0.144135 
-3.03123e-18 3.17827e-18 1 

-0.203525 -0.339546 -0.154203 
0.324807 0.177518 0.25194 
4.31207e-18 3.46409e-18 1 

-0.533408 -1.21782 0.141161 
0.535164 0.926151 -1.24892 
-9.50422e-19 3.99177e-18 1 

-0.605428 -0.215495 0.871736 
0.41634 0.158101 -1.39327 
-3.06915e-17 -1.53876e-17 1 

-0.124022 -0.0352542 0.110647 
0.0627428 -0.060974 -0.0262397 
-5.79542e-18 2.48568e-18 1 

-0.159529 -0.0303846 0.13838 
-0.110704 -0.0786009 0.111909 
2.72233e-18 -5.03039e-19 1 

-0.80706 0.933802 0.886226 
0.415577 0.313202 -2.26428 
1.73851e-17 -1.9616e-18 1 

-0.575562 0.0997419 0.574544 
0.15849 -0.00524627 -0.214073 
-1.27297e-17 3.32388e-18 1 

-0.215991 -0.0921755 0.403914 
0.130016 0.0293027 0.808343 
1.52419e-18 -9.44423e-18 1 

-0.164291 -0.0935231 0.548217 
0.187329 0.0320069 -0.36336 
-1.91941e-18 7.67829e-18 1 

-0.0957601 -0.0345058 -0.0308738 
-0.00496483 -0.112853 0.0140802 
-1.02838e-17 -1.49262e-18 1 

-0.18678 -0.0481276 0.0778979 
0.0388634 -0.0943515 -0.441714 
-3.83565e-18 -1.58171e-19 1 

-0.229778 -0.136947 0.173282 
-0.0335757 -0.00207421 -0.297432 
-2.35172e-18 2.53262e-18 1 

-0.160531 0.105784 0.151508 
-0.221625 -0.0681162 0.516306 
-1.23867e-17 1.08015e-17 1 

-0.141455 -0.379873 0.34809 
0.438175 0.141934 0.328543 
2.38956e-18 -1.0508e-17 1 

-0.0388049 -0.478652 0.319813 
0.291542 0.140317 -0.563077 
-1.9819e-18 2.17819e-18 1 

-0.951452 -0.358358 -1.74047 
-0.44374 0.29635 0.260262 
-5.40967e-18 4.97196e-18 1 

0.549729 0.962931 -2.51412 
-1.20582 1.12629 -1.41542 
7.87643e-19 -9.97505e-18 1 

-0.583243 0.0216246 -0.561795 
-0.398802 0.34856 0.538453 
-1.75859e-17 1.0353e-17 1 

-0.211531 0.0884448 0.00607483 
-0.0717169 0.0570008 -0.0860124 
-5.26173e-18 4.48795e-18 1 

-3.69587 -0.246026 0.394574 
-0.0422841 0.816118 -1.40233 
-5.5675e-19 6.18813e-18 1 

-0.627444 -1.03324 5.86619 
-0.338746 0.0646089 3.31238 
-9.27331e-19 8.8845e-18 1 

-0.158085 0.050348 0.680011 
0.0514295 -0.0240164 0.836303 
-8.15086e-18 -1.58715e-17 1 

-2.73162 -4.25398 -7.575 
0.467321 1.03837 -0.00269667 
-1.44626e-19 -2.57917e-18 1 

-0.197777 -0.0856292 0.0577517 
0.024427 -0.289846 0.525744 
-1.16333e-17 4.02092e-19 1 

-0.434794 0.213555 -0.524426 
0.126082 0.175913 -0.418646 
1.33853e-17 7.58232e-18 1 

-0.126975 0.418467 -1.38333 
-0.473282 0.185913 1.51242 
4.31519e-18 -1.13904e-17 1 

-0.344963 0.00422784 -1.57719 
-0.00592011 0.0532727 -0.0180685 
-1.75015e-17 -5.32416e-18 1 

-0.140797 0.0521084 0.140582 
-0.106669 -0.0968912 0.411429 
2.55408e-18 1.27425e-17 1 

0.23368 -1.08748 1.01865 
0.597947 0.256925 -0.518804 
-6.52662e-18 2.37872e-18 1 

-0.919732 -2.07606 63.7782 
0.247968 1.10336 -26.9188 
-6.47684e-19 5.68265e-18 1 

-0.191148 0.291413 -0.201645 
-0.226947 -0.0134775 -0.70022 
-9.68651e-18 1.05758e-17 1 

-0.274313 0.101777 -2.67976 
-0.0872013 0.019262 0.236518 
-3.69574e-18 -1.65432e-17 1 

-0.192178 -0.0114063 -1.15184 
0.0234429 0.0897138 -3.69744 
-2.83971e-18 1.77389e-18 1 

-0.241177 0.000873097 -0.0688426 
-0.130362 -0.020292 -0.0756258 
3.46648e-18 -2.05822e-18 1 

0.1232 1.13476 0.408744 
-1.11631 1.20267 0.426012 
-4.09217e-18 1.19109e-17 1 

-1.27628 0.0395354 -0.467785 
-0.684459 0.0755148 -0.178482 
2.39155e-18 -7.45365e-18 1 

-0.144347 0.0202634 0.332645 
-0.052777 -0.0638091 0.971812 
6.41481e-18 1.08274e-17 1 

-0.134511 0.0587837 -0.0158176 
-0.064083 -0.0639685 0.167776 
-8.72563e-18 -8.35377e-19 1 

-0.104243 -0.0304411 0.0906454 
-0.00880425 -0.0274657 -0.240461 
4.08022e-18 -5.62789e-19 1 

-1.54308 0.317614 -0.382371 
-1.59092 0.694753 0.716016 
1.94914e-17 -1.12617e-17 1 

-0.0796762 0.0261504 0.0290954 
-0.0340673 -0.171307 -0.00597209 
-7.36821e-18 2.21046e-18 1 

-0.0129383 -0.198685 0.00614421 
0.201914 -0.0507653 -0.0335195 
6.23324e-18 1.65119e-18 1 

-0.342057 -1.24482 -0.468207 
0.471494 0.229052 0.718425 
3.37123e-18 -1.16654e-17 1 

-0.165359 -0.13547 -0.00336719 
-0.048112 0.056299 -0.097073 
2.10027e-18 -4.57392e-18 1 

-2.94303 -2.08507 -10.5135 
-0.122423 0.675567 0.660241 
-1.12776e-17 3.86361e-18 1 

-0.0957732 -0.0666704 0.108263 
0.0604963 -0.0107384 0.0260296 
-2.93707e-19 -7.86937e-18 1 

-0.38212 0.0861971 0.0580142 
-0.120041 0.0243975 -0.30836 
-6.16244e-18 6.43038e-18 1 

-0.195126 0.0446381 -0.317602 
-0.038679 -0.0799701 0.245427 
-7.12384e-19 -4.7752e-18 1 

-1.36925 0.717902 -25.0776 
0.270614 0.281146 -7.03979 
2.60756e-18 -1.02742e-17 1 

-5.82213 1.35486 -12.7116 
-1.43206 0.82855 -1.39563 
-3.26632e-18 1.44886e-18 1 

-0.126278 -0.31713 -0.475199 
-0.000537806 0.00429062 -0.462712 
-5.88623e-18 -2.64426e-17 1 

-0.0923712 -0.0336689 0.308148 
-0.0547068 -0.119745 0.103782 
1.51484e-17 -1.31822e-17 1 

-0.320152 0.1052 0.263311 
-0.148933 -0.0140704 0.165837 
1.66566e-18 -5.48583e-18 1 

-0.0218412 -11.9023 25.2522 
0.245309 0.14859 1.43865 
-1.51455e-17 4.36002e-17 1 

-0.572721 -0.499153 4.11574 
0.718902 0.464001 -0.113145 
-1.44344e-17 -2.64367e-19 1 

-0.159716 0.110637 -0.431956 
0.00919819 -0.0881598 -0.107467 
-1.1874e-18 1.21865e-17 1 

-0.229324 0.0418924 -0.176291 
0.0512953 -0.0358233 0.51567 
-6.81152e-18 -1.95235e-17 1 

-0.448176 -0.0790075 0.342797 
-0.0484877 0.197238 0.887242 
4.58379e-18 2.02652e-17 1 

-0.184973 0.232205 0.284012 
-0.11604 0.0843471 0.204847 
-5.545e-18 9.3504e-18 1 

-0.520062 -0.0557971 0.393739 
0.342889 0.0869154 -1.40097 
6.10335e-18 -1.09352e-17 1 

-0.943013 -0.528892 15.3771 
0.603647 0.490399 0.443432 
-7.24011e-18 1.04688e-17 1 

-0.347866 -0.0556129 0.0964222 
0.0210898 -0.00408055 0.00229529 
6.01084e-19 1.80229e-17 1 

-3.00399 -6.87439 -8.07871 
1.47822 2.51888 3.45879 
2.47137e-17 -9.29761e-18 1 

-3.80878 1.3256 4.14043 
0.647571 0.384823 -3.83131 
-5.06105e-18 -9.08013e-18 1 

-0.127883 0.110719 0.112477 
-0.0529277 -0.0231543 -0.0988341 
2.10296e-17 1.21247e-17 1 

-0.611402 -4.40418 -2.22852 
0.0522224 -0.21675 -1.09689 
-3.91555e-18 5.98208e-20 1 

-0.162937 -0.0681069 0.562175 
-0.00363518 -0.116592 -0.60782 
3.99699e-18 8.34787e-18 1 

-0.182563 0.0296122 -0.469349 
0.0356635 -0.0321134 -0.0122139 
9.90916e-18 6.58286e-18 1 

-0.16282 0.10314 -0.0123949 
-0.14966 -0.0766696 -0.128136 
-9.16594e-18 -4.72471e-18 1 

-2.42878 0.449458 -0.752933 
0.0308619 0.668238 -0.228205 
4.20875e-18 1.66325e-19 1 

-0.118233 0.0975349 0.0035236 
-0.0991539 -0.0324301 0.199022 
-8.32343e-19 -3.36405e-18 1 

-0.111468 -0.621227 -0.581623 
0.345376 0.0641229 0.101177 
-1.02939e-17 -7.64472e-18 1 

-0.951737 0.713875 0.538284 
-0.637863 0.460211 -0.817369 
7.46952e-18 -1.54726e-17 1 

-0.313991 -0.117356 0.156217 
0.139575 -0.116456 0.116375 
1.05784e-18 -1.43261e-17 1 

0.0650865 -0.509989 -1.28883 
0.726715 0.237486 -0.161435 
-9.80132e-19 9.95447e-18 1 

-0.296363 -0.231107 0.299338 
0.169981 0.197503 -0.00346807 
-1.9997e-18 4.11808e-18 1 

-1.51591 0.244497 0.599102 
-0.103697 0.445643 -0.239714 
1.05755e-17 -1.55208e-17 1 

-0.071897 -1.05441 0.400296 
0.591448 0.473439 0.466958 
1.28033e-17 1.66559e-17 1 

-0.603076 0.437118 1.57234 
-0.481393 0.413498 -0.199481 
-1.1348e-17 9.1312e-18 1 

-8.07624 11.9284 3.5036 
-0.148217 0.654812 -0.105998 
2.03107e-17 3.16902e-17 1 

0.000720049 -0.224416 0.771309 
0.0219032 -0.120258 -0.0777636 
7.13658e-18 -1.69024e-18 1 

-0.200994 0.181648 -0.22471 
-0.158047 -0.0692215 0.0100768 
-1.1782e-17 -5.23646e-18 1 

-0.184756 -0.00579138 0.44599 
0.0147876 -0.0221942 13.7027 
-9.39003e-18 -8.4287e-18 1 

-0.0878058 -0.0983084 0.267333 
0.00455473 -0.0834855 -0.0143533 
2.35522e-18 7.99348e-18 1 

-0.319654 0.122465 -0.0261167 
-0.0971897 -0.045071 0.482138 
-3.63716e-18 1.60366e-17 1 

-1.58086 -0.141593 6.9784 
-0.181591 0.415544 -2.40399 
9.34201e-18 -2.84163e-18 1 

-0.175511 -0.11431 0.40666 
-0.00207022 0.0908452 -0.321503 
-1.50913e-17 -2.42466e-18 1 

-0.0822423 -0.17318 0.0209907 
0.197926 0.100353 -0.696662 
1.34212e-17 -5.15582e-19 1 

-0.294883 0.206055 -0.0792604 
0.00847693 -0.100854 -0.0682431 
-8.70561e-18 -1.53056e-17 1 

-0.18571 -0.0169922 -0.603429 
0.0282556 -0.0242072 0.451715 
-1.22103e-18 1.13962e-17 1 

-0.151015 -1.21734 1.06275 
0.745297 0.750875 0.39326 
1.0999e-17 1.67388e-18 1 

-2.7286 -0.83943 -2.97192 
-0.0457163 0.916385 -0.574429 
-9.30576e-18 -8.45978e-19 1 

-0.450005 0.372695 0.411815 
-0.0673059 0.233396 -0.54437 
9.86332e-18 3.22853e-18 1 

-0.170548 -0.12378 -0.804575 
0.0596806 0.0599355 0.767841 
1.05668e-18 -2.23769e-18 1 

-0.317148 0.226678 -15.1314 
0.250047 0.171344 -1.24778 
3.62137e-18 -2.1084e-18 1 

-0.33741 -0.08709 5.67979 
0.0208936 -0.0344884 -1.64076 
3.88605e-18 3.38734e-18 1 

-2.57544 0.546756 -5.43796 
0.0849715 0.855994 -0.923926 
2.63866e-18 -1.03955e-18 1 

-0.431579 0.0877638 -8.51078 
-0.00130065 0.073618 -1.31633 
3.98004e-18 -9.41832e-18 1 

-3.88662 -4.53457 -6.01934 
1.69047 2.54109 5.90766 
-3.03594e-20 7.81615e-18 1 

-1.01659 -0.0741846 -0.345663 
-0.121798 0.216259 -0.17914 
-2.92235e-18 1.84148e-18 1 

-0.150219 0.0178511 -0.185263 
-0.0901165 -0.0191126 -4.42415 
2.82564e-18 -9.22659e-18 1 

-0.274411 0.200557 0.521572 
-0.171725 0.0242632 -0.263805 
-4.59324e-18 5.56365e-18 1 

-0.31603 -0.0585441 -1.61576 
0.0784872 0.0217118 -0.996739 
-2.79215e-17 1.20357e-17 1 

-0.171527 -0.0264945 -0.963366 
0.116812 -0.113494 -3.04697 
-1.03732e-18 -2.391e-17 1 

-0.264652 -0.271022 -1.3603 
0.0368783 0.0605359 0.0965264 
-6.61604e-18 -6.43896e-18 1 

-0.0939943 0.142444 0.0912851 
-0.089313 -0.0848644 0.0603895 
1.01587e-17 -1.72588e-18 1 

-0.465667 0.406503 1.18656 
0.0196625 0.219456 -1.45283 
7.99449e-18 -3.18321e-18 1 

-0.596084 -3.30775 3.34308 
-0.322809 -0.0615241 -0.608583 
1.89145e-18 6.99264e-18 1 

-0.15693 -0.0262412 3.19755 
-0.0138681 0.0431253 2.25176 
4.85689e-18 -7.98846e-18 1 

-0.155063 -0.0261553 0.0900985 
-0.0524971 0.0140441 0.216825 
8.27251e-18 -6.7163e-19 1 

-0.186789 -0.0451081 -0.325449 
0.186103 0.0193747 -0.112818 
1.38314e-17 -5.58409e-18 1 

-1.68007 -1.75792 0.142402 
-0.398019 0.0829195 -0.213548 
-2.57367e-18 1.17161e-17 1 

0.103493 -0.698829 0.157193 
0.686493 0.279558 -0.0908702 
4.52911e-18 1.12243e-17 1 

-0.650334 -0.0858052 -0.322436 
0.271845 -0.0914853 0.167235 
1.21144e-17 1.53449e-17 1 

-0.446776 0.437648 0.43927 
-0.764799 0.148066 0.464008 
-7.10495e-18 -4.11174e-18 1 

-0.0420913 -0.308882 0.19245 
0.240721 -0.00368814 0.00971874 
-9.89743e-18 2.07592e-17 1 

-2.32993 -0.900168 1.52643 
0.31279 0.8506 -1.92212 
1.02597e-17 6.78909e-18 1 

-0.16957 -0.00120068 -17.0105 
0.00199807 -0.03924 3.96585 
-1.27335e-18 7.4394e-18 1 

-0.330936 -0.109972 0.297003 
0.209721 -0.0775991 -0.674617 
-4.87298e-18 8.03898e-18 1 

-0.0422583 -0.425661 -1.11865 
0.230365 0.0593241 0.662982 
-6.44642e-18 5.09167e-18 1 

-0.394701 0.190706 -0.497928 
-0.189957 0.313138 0.366596 
-2.51334e-18 1.37797e-17 1 

0.0275877 -0.45821 0.0239597 
0.429672 0.0532628 -0.208586 
-1.37751e-17 1.06358e-17 1 

-0.362791 -0.168826 -0.557152 
0.143636 0.142221 -0.303019 
7.18064e-18 5.85693e-18 1 

-1.93943 -2.04846 4.35717 
-0.867902 -0.412836 0.841126 
-7.45503e-18 3.72751e-18 1 

0.226203 -0.705535 -0.268948 
0.838965 0.437642 -0.066474 
-1.34113e-17 6.44499e-18 1 

-0.291814 -0.4756 -0.375142 
0.193809 0.14895 0.603055 
-8.80134e-18 -3.0033e-18 1 

-0.700844 0.375493 0.835865 
-0.403991 0.177589 0.801079 
-1.40326e-18 9.58687e-18 1 

-0.825927 0.274982 -1.07786 
0.102744 0.47882 1.06142 
-1.65338e-18 6.50754e-18 1 

-0.0843322 -0.0974891 1.03767 
-0.0021058 0.101264 1.24022 
-1.25039e-17 -1.48987e-17 1 

-4.98629 2.37127 -3.40095 
0.0496527 0.734369 -0.862634 
1.69213e-18 9.19557e-18 1 

-0.303399 -0.169592 -0.233444 
0.134805 0.1864 2.01221 
-4.72008e-18 1.3486e-18 1 

-1.65043 0.475779 1.16279 
-0.295122 0.504136 -0.324566 
-1.37654e-18 3.75421e-18 1 

-0.108687 0.0990096 -0.0809423 
0.0316328 -0.0569023 -0.401507 
-1.75399e-17 4.88685e-18 1 

-0.248548 -0.0292799 2.00743 
0.0237108 -0.0732026 -3.62912 
-2.59412e-18 3.71987e-18 1 

-0.291252 0.179808 -0.309165 
-0.056642 0.163582 0.35816 
-2.04179e-18 1.78063e-18 1 

-0.214247 -0.234474 0.155702 
0.2389 0.0367654 -0.416458 
-6.65193e-18 -2.77239e-17 1 

-0.142511 0.0466943 0.404149 
-0.154452 -0.00442016 -0.472517 
6.14415e-18 -2.47453e-18 1 

-0.274752 -0.290934 -1.42695 
-0.177364 0.00829532 0.296387 
-6.76412e-18 -4.41387e-18 1 

-0.308395 0.512527 0.3341 
-0.44875 0.35299 -0.530932 
1.21417e-17 -3.7772e-18 1 

-1.02793 0.00221237 0.270153 
-0.505976 0.31429 -0.206303 
1.81629e-17 5.88302e-18 1 

-0.147919 0.0262698 -1.14048 
-0.0308853 -0.0769252 -1.08213 
-6.18447e-18 -3.60761e-18 1 

-0.0267355 -0.315267 -2.59348 
-0.168057 -0.0527201 -0.885774 
8.57228e-18 2.63241e-18 1 

-0.0989081 0.080689 0.361199 
-0.0170407 0.0589728 0.339279 
-4.51038e-18 -2.07477e-18 1 

-0.069639 0.267901 3.38262 
0.0680869 -0.0351345 0.256818 
7.76417e-18 6.89741e-18 1 

-0.594161 0.954387 2.38882 
-0.0147738 0.26244 0.399758 
-7.13217e-18 -1.90714e-18 1 

-0.232743 -0.125501 0.532554 
0.0869807 -0.00416958 0.316941 
-4.90068e-18 -4.75217e-18 1 

-0.219926 -0.0509816 -2.75652 
0.0522008 0.0183406 -14.5598 
-1.3942e-19 -4.88517e-18 1 

-0.208987 -0.063224 0.573243 
-0.0121866 -0.0288582 -1.55684 
7.40848e-18 -3.95908e-18 1 

-0.834982 -0.584893 -0.549541 
-0.776023 -0.0587059 -2.92052 
4.1105e-17 -6.95623e-18 1 

-0.593386 -0.571718 3.26007 
0.0633902 0.233744 11.2226 
-9.84405e-18 1.86388e-18 1 

-0.18863 -0.0586869 -2.64067 
-0.0018489 0.0605128 -0.292028 
2.14092e-18 3.32458e-18 1 

-2.54418 0.675473 -59.1324 
-0.521673 1.0869 15.9529 
-5.47653e-18 5.33642e-18 1 

-1.54025 -0.699634 -0.32095 
0.380819 0.410161 0.550873 
-2.84928e-17 -3.75355e-18 1 

-0.191362 0.413253 117.233 
0.466043 0.366975 18.1266 
2.41581e-18 -3.31785e-18 1 

-0.473545 -3.09517 4.98716 
-0.0181722 -0.492416 3.10946 
1.08445e-17 3.08022e-17 1 

-0.65057 1.04558 0.880643 
-0.30952 0.237899 -0.3063 
7.63298e-18 -3.08567e-19 1 

-0.41284 0.814528 16.3231 
0.237233 0.389181 2.50225 
1.00903e-17 -7.40511e-18 1 

-0.894027 -2.37494 9.94795 
0.131284 0.588023 -4.96777 
4.45826e-18 9.37378e-18 1 

-3.77751 -1.54522 17.258 
-0.169301 0.22993 -0.369993 
2.08977e-17 -4.54028e-18 1 

-0.238613 0.188397 0.308828 
-0.118448 0.161219 -0.321792 
1.60279e-17 -7.15294e-18 1 

-0.11152 0.0340109 -0.030205 
0.0442768 -0.0122221 -0.107563 
6.13469e-18 6.601e-18 1 

-0.131867 -0.0175909 0.143571 
0.0287618 -0.0900975 0.414166 
6.38045e-18 -2.20559e-19 1 

-0.261799 -0.0931894 0.147074 
0.0307859 0.00991289 0.737355 
-6.16427e-18 1.73187e-18 1 

-0.164966 -0.00112088 -0.248885 
-0.0035632 -0.0464673 -0.0917607 
-1.04828e-18 1.91603e-18 1 

-0.136639 -0.102795 0.0930333 
0.181287 0.042994 0.393456 
-1.4413e-17 -4.26824e-18 1 

-0.445961 -0.778286 0.263987 
-0.0460743 0.32364 0.219009 
1.86677e-18 2.50014e-19 1 

-0.0708157 -0.904681 2.62033 
0.0901869 0.00963481 -0.462613 
7.51289e-18 -8.36056e-18 1 

-0.0183035 -0.218934 -0.0542607 
0.231754 -0.0359145 -0.107251 
-2.65548e-18 -8.828e-18 1 

-0.787535 -0.272374 0.891686 
-0.325197 0.390176 -1.11703 
8.21895e-18 2.44856e-18 1 

0.194119 -1.21265 -0.170237 
0.796155 0.924643 -0.533116 
-3.08613e-18 -4.17535e-18 1 

-0.236947 -0.070619 0.0843793 
-0.00499855 -0.0383676 -0.101359 
-1.4274e-17 8.0169e-18 1 

-0.118314 0.234463 -3.10732 
-0.383209 -0.0219173 -1.22567 
7.86495e-18 1.65901e-18 1 

-0.33635 -0.105103 0.37902 
0.229716 -0.0343057 0.355161 
6.93589e-18 -8.50099e-18 1 

-0.269975 -0.262866 -2.05319 
-0.0138213 0.0561345 0.595278 
-1.59968e-18 2.17099e-18 1 

-2.00735 -1.9184 13.2583 
0.000746256 0.713957 -6.74702 
-1.04503e-17 -1.9295e-17 1 

-4.33391 -4.48341 -7.07137 
0.556015 0.834643 0.183186 
1.42368e-17 -3.66705e-18 1 

-0.123701 -0.0161192 0.386098 
0.0567022 -0.0352556 -1.32109 
-3.39753e-18 3.22112e-18 1 

-0.604031 0.0225697 -0.705939 
0.413464 0.120852 -0.450406 
1.66969e-18 -3.89594e-18 1 

-0.218172 0.0266976 -0.791159 
-0.0139169 -0.00431743 0.132416 
-9.87957e-18 3.54651e-18 1 

-0.321992 0.270421 -2.84949 
-0.276646 0.101598 1.47706 
1.04505e-17 5.44812e-18 1 

1.04285 -1.17702 0.0400283 
0.94346 1.17998 -0.232418 
-9.78623e-18 -4.95233e-19 1 

-0.248519 -0.0419096 0.633405 
0.149687 0.0384001 -0.653605 
1.27198e-17 -4.67639e-18 1 

-7.71704 -3.36874 5.13374 
1.33863 1.82671 1.51662 
-1.21842e-17 1.0544e-18 1 

1.04956 -1.07037 -0.307955 
1.05291 1.03738 0.05471 
2.43314e-18 -1.22999e-17 1 

-0.571962 -0.140836 0.786965 
0.126595 0.170749 0.127271 
-4.60175e-18 1.39447e-19 1 

-1.22301 -0.715823 -0.546765 
-0.00569624 0.405131 1.10952 
-4.99494e-18 8.8372e-18 1 

-2.81732 -2.12156 -0.807417 
-1.14868 -0.145975 3.39854 
-3.66196e-18 6.71359e-18 1 

-0.50591 -0.116992 0.426901 
0.0758979 -0.0963955 0.107599 
1.55602e-17 9.53691e-18 1 

-0.306918 0.503922 14.4109 
-0.645554 1.19387 -2.6319 
-1.05668e-18 -5.72028e-18 1 

-0.410492 0.0615314 -0.258142 
-0.254129 -0.0180421 0.24511 
-2.15185e-17 1.56057e-17 1 

-2.84999 0.406261 0.0622077 
0.189798 0.832996 0.0237475 
8.99345e-19 -3.65983e-18 1 

-1.03717 0.43896 -0.226099 
-0.335148 0.491301 -0.68821 
-1.29819e-17 -1.74981e-17 1 

0.258026 -0.92736 0.358183 
0.807732 0.430343 -0.393933 
1.48429e-17 1.0063e-17 1 

0.00143475 -0.557455 -0.27143 
0.800954 0.220663 -0.238472 
6.08704e-18 1.09667e-17 1 

-0.119204 0.00482632 -0.19337 
-0.074361 -0.0267855 -0.109349 
-1.12257e-17 -8.46527e-18 1 

-0.430115 0.0202207 -0.459942 
0.0374308 0.0676239 0.314768 
1.75725e-17 -5.37953e-18 1 

0.000283052 -0.440043 0.446575 
0.406329 0.137417 -0.21739 
1.63487e-17 -4.52112e-17 1 

-0.219479 0.0998807 -0.422994 
-0.084312 -0.0868378 -0.0395761 
4.46992e-18 -3.26272e-18 1 

-0.9938 0.545717 -5.30327 
-0.485909 0.331822 -1.24516 
1.24859e-17 6.25794e-18 1 

-0.279293 -0.0525418 -0.393457 
-0.226618 0.117066 0.266295 
1.11547e-17 5.44961e-18 1 

-0.183733 -0.143215 0.13387 
0.185672 0.165067 -0.158635 
-3.33407e-17 1.089e-17 1 

-0.656409 -0.134648 -0.427933 
0.0438752 0.248703 -0.109233 
3.00882e-18 -2.95782e-18 1 

-4.93358 6.18977 -26.5802 
-0.536352 1.38023 -4.34811 
5.41485e-18 -1.1437e-17 1 

-0.176578 -0.371536 0.449258 
0.196937 0.170579 0.0431291 
-4.38609e-18 1.15007e-17 1 

-0.647872 -0.0683862 -1.01279 
0.227007 0.158776 -0.744627 
-5.2523e-18 -1.17636e-17 1 

-0.243373 -0.221107 0.954266 
0.130736 0.0380115 0.450019 
6.0266e-18 -1.28645e-17 1 

-0.265906 0.0194736 -2.40708 
-0.0770257 0.0932668 -0.151893 
1.67704e-17 -6.66648e-18 1 

-0.518338 -0.273076 2.99035 
0.113871 0.185612 -0.621399 
3.6049e-19 -8.31353e-18 1 

-0.345049 -0.575808 9.91525 
0.0588631 0.142039 -0.631659 
9.99578e-18 -1.109e-17 1 

-0.167348 0.0849946 0.0762499 
0.0176392 -0.0163068 -0.260651 
3.61355e-18 1.28716e-17 1 

-0.0380664 -0.35224 1.2319 
0.271409 0.0287674 1.73916 
1.35396e-18 9.43243e-19 1 

0.00326107 -0.503539 -6.40073 
0.454956 0.0955325 1.55419 
-7.47264e-19 -1.59238e-18 1 

-0.0726156 -0.365958 -1.18875 
0.235329 0.163952 -0.279437 
-2.02296e-18 -1.14423e-17 1 

-0.48765 0.78721 23.8242 
0.00249081 -0.100108 -3.41647 
-4.62981e-18 -4.66591e-17 1 

-0.658674 0.332388 2.50937 
0.413978 0.233146 0.946356 
-1.31981e-17 -4.49935e-18 1 

-0.160719 -0.00311406 0.189822 
0.039404 -0.0103593 -0.0290855 
-2.20761e-17 1.03129e-17 1 

-0.238824 1.26503 -15.2189 
0.171097 0.38099 -4.19626 
-3.06012e-18 -1.19116e-17 1 

-0.26498 -0.35151 0.499319 
0.053686 0.0244231 0.444569 
1.20598e-17 -8.03984e-18 1 

-0.227596 -0.216618 -0.809221 
0.0016418 0.030588 0.0409744 