# vtk DataFile Version 3.0
Output file generated by Yade's KinematicLocalisationAnalyser
ASCII
DATASET UNSTRUCTURED_GRID

POINTS 13483 float
646.047 29.1617 -0.424308
840.514 50.6404 -0.515453
126.397 6.21695 -0.402509
875.019 4.00021 0.493945
526.571 7.60663 -0.30255
330.753 34.9194 -0.484008
164.714 6.83376 0.420215
604.06 10.0674 0.139458
523.575 22.9748 0.139038
778.279 13.4903 0.49854
221.271 8.82431 -0.124158
269.983 6.29695 -0.264772
697.889 28.1741 -0.147643
675.525 13.9776 -0.0831924
144.346 17.0453 0.440369
232.68 34.3826 0.399653
228.781 12.9457 -0.268756
303.476 9.53681 0.383263
358.339 32.7309 0.446439
554.17 8.53918 0.349656
432.434 36.3493 -0.10998
627.634 44.3369 -0.276135
871.326 37.1002 -0.451755
751.837 43.9382 0.436087
483.387 16.0176 0.298138
253.123 43.7639 0.12508
518.504 27.4148 -0.48799
622.427 19.4961 0.20943
47.3196 15.3514 0.464094
774.818 32.1021 -0.320662
508.546 4.93961 0.312365
17.4712 22.8947 -0.287721
854.536 49.3338 0.241088
522.262 2.46327 0.491386
82.2086 43.9783 0.100106
551.056 30.5056 0.318725
560.815 16.567 -0.406752
361.748 22.232 0.192326
563.944 25.3346 -0.326186
368.893 33.2715 0.454789
253.408 14.3843 -0.34896
457.517 36.0617 0.0655624
727.153 7.01418 0.109466
202.838 6.179 0.373819
58.4716 6.88654 -0.12636
72.1709 8.78979 -0.264319
745.74 9.16085 -0.481103
24.7395 11.5466 0.283851
650.509 44.6319 0.36027
729.206 22.6823 0.358093
181.539 32.3077 -0.297657
836.095 37.5307 -0.122485
37.0838 27.9372 -0.11811
564.933 2.96105 0.320643
149.719 7.46381 -0.478968
631.1 33.3797 0.393813
532.255 26.7335 0.129417
183.958 0.939771 -0.258718
34.5348 2.42172 0.288519
367 17.6466 0.271959
662.448 44.6757 -0.132776
487.359 32.7468 0.192065
420.696 1.03264 0.193228
756.815 7.76355 0.376149
27.8415 42.5555 0.235916
269.856 30.3455 -0.308054
778.78 7.81934 0.248655
720.007 43.8938 0.370778
440.078 8.56002 -0.484894
605.009 3.51291 -0.341515
811.527 29.9449 0.417579
137.801 7.56472 -0.278217
526.624 25.0439 -0.130018
504.08 14.7416 -0.145242
310.022 16.6846 -0.231739
21.8709 13.5159 -0.262307
861.564 38.5272 -0.315532
350.295 38.1966 -0.292037
726.665 19.67 0.329043
745.4 13.0418 -0.232756
861.412 11.993 -0.206135
490.938 34.2149 -0.164233
97.4859 37.977 -0.276959
738.555 35.8764 0.228302
694.995 39.4645 -0.110216
878.013 40.9128 0.121538
855.346 0.757383 -0.486161
306.567 29.1438 0.422705
663.54 6.49149 -0.125398
25.6252 5.18505 0.462744
140.297 37.7184 0.142806
542.682 14.2326 0.212551
847.914 29.465 -0.520632
206.118 28.4759 0.242593
46.8747 34.0651 -0.280791
521.122 1.15831 0.124114
248.448 8.82011 -0.364898
816.261 42.7116 -0.283102
836.834 29.0495 0.229046
381.302 20.5324 -0.256217
173.263 26.746 -0.436023
583.765 37.9231 -0.425097
401.48 15.2496 -0.423421
436.917 29.3473 -0.105209
399.458 4.453 0.408052
582.018 10.839 -0.0891612
879.306 11.3213 0.197669
84.8251 38.9861 -0.400496
354.154 4.83487 -0.176929
597.228 9.32344 -0.343117
380.133 43.9189 0.442411
27.2058 24.1311 -0.45715
32.1995 5.68935 0.328536
605.295 32.4935 0.427515
535.659 23.4588 -0.140854
27.8905 36.6249 0.41072
98.413 30.4132 0.209194
343.538 15.8063 -0.302696
641.918 18.9621 -0.127926
503.648 37.4906 0.307247
796.428 7.3953 -0.392527
788.265 6.90318 -0.16412
409.234 36.4935 0.0980874
682.715 25.7071 -0.0945006
252.002 16.8526 0.522599
349.142 3.71486 0.459371
109.567 31.2349 -0.34107
123.173 23.8625 0.257652
578.862 38.304 0.080936
323.667 18.5713 0.482417
769.702 35.2635 0.110223
724.097 43.5897 0.121456
510.143 20.4331 -0.373367
838.834 12.8397 0.364959
454.443 23.5857 0.234877
293.382 23.922 -0.298478
727.121 31.6001 0.297435
295.065 28.7048 0.383606
615.981 11.9062 -0.207387
351.468 34.9152 0.19949
536.714 11.3793 0.460019
388.434 31.5049 0.0886885
456.87 16.581 -0.103532
337.121 41.5691 0.416599
202.121 29.7054 0.118236
844.491 48.7608 0.157914
876.063 12.6364 -0.410489
6.35784 11.8728 0.417579
460.966 22.1092 -0.408406
40.8271 22.3517 0.0911835
399.207 30.9648 -0.457074
419.704 24.5705 -0.26706
79.2067 11.732 -0.483711
55.001 33.4008 0.454172
239.626 13.4321 0.415517
663.68 38.049 -0.429136
618.679 20.5877 -0.492934
79.5347 20.8294 -0.478924
755.134 46.9488 -0.404555
827.266 3.9439 0.389723
712.389 39.8018 0.522263
751.81 2.3263 0.394978
588.247 25.7558 0.392032
629.237 44.406 0.439984
546.508 17.6533 -0.405144
872.437 2.79367 0.306137
237.269 24.7284 -0.120745
135.692 34.8549 0.189544
262.598 6.57408 0.37608
100.498 4.24731 -0.253383
68.3402 9.96943 0.21646
292.964 35.7026 -0.319818
17.8736 24.7358 -0.35299
594.743 18.9817 -0.404064
649.984 39.7244 0.240354
493.05 20.9277 -0.363229
874.055 50.8978 0.359541
432.968 8.51917 -0.0990392
464.126 36.5032 -0.244383
573.788 3.43751 -0.181735
24.3313 23.7 0.377323
618.989 4.53373 -0.333311
584.207 4.34248 -0.285875
219.387 11.3183 0.481024
452.763 16.184 -0.195068
331.201 6.28537 0.328196
412.956 18.6892 -0.349485
803.091 42.9062 -0.121468
204.584 25.2924 -0.428869
846.998 6.76411 -0.307256
802.16 39.0125 -0.337574
408.302 10.1568 -0.174833
776.208 2.29886 -0.435446
649.963 25.8288 -0.418804
804.314 17.8275 -0.366992
459.204 43.0981 -0.263319
530.628 12.3312 0.345873
496.628 43.6535 0.218706
475.181 8.59176 0.125337
715.882 38.6532 -0.262812
713.642 35.1538 0.309076
204.457 38.6808 0.336859
859.239 11.9178 -0.20121
631.603 44.8857 -0.2407
12.0986 16.7206 0.226392
434.174 25.1746 0.333487
199.604 22.7989 -0.41036
99.1697 38.9299 -0.202646
844.954 26.3392 -0.426387
709.675 44.7427 -0.236184
339.784 25.2731 0.351424
570.492 10.1672 0.319333
87.6978 43.8286 -0.163287
263.722 25.648 -0.461289
597.911 23.5261 0.355913
520.21 18.4265 0.373633
279.817 0.890697 -0.343363
593.385 39.8816 0.37132
571.941 40.3677 -0.467365
515.316 32.7626 0.396719
533.883 0.777625 -0.493723
762.377 19.1567 0.378127
191.438 11.9804 -0.178693
535.188 36.3035 0.441245
606.441 39.591 -0.134684
77.8239 0.943795 0.273623
268.145 4.7135 0.172024
875.242 15.8794 0.263618
861.789 13.878 -0.42954
882.306 15.8048 -0.514377
323.36 8.47893 -0.227241
810.535 21.6621 -0.424083
434.43 41.0886 -0.327516
479.493 0.814415 -0.398251
700.652 36.9185 -0.635558
28.9144 30.2057 0.297805
352.403 40.8231 0.553131
269.031 2.85123 0.318471
858.191 47.0663 0.197093
774.253 47.9024 -0.244662
306.222 10.8977 0.206956
721.365 28.9023 -0.0853922
599.029 2.64695 0.27045
581.903 6.40853 0.415122
103.27 18.2056 0.480249
323.172 1.03456 -0.222135
366.248 2.26975 -0.361276
14.8646 7.60717 0.368764
4.69822 30.6574 0.244985
172.884 18.7186 0.409468
72.7584 41.2236 -0.207538
71.1027 28.4453 0.326895
452.48 14.3314 -0.433122
391.708 34.968 -0.467457
833.854 39.1546 0.136767
20.7986 4.01035 -0.272048
75.3912 6.83486 0.125113
674.644 37.3927 -0.175166
314.191 0.946012 0.309867
389.537 15.7477 -0.129402
251.34 4.64432 -0.38174
706.134 21.2761 0.215694
482.832 8.29417 0.405734
813.627 19.7428 -0.354796
681.972 28.8999 -0.294214
725.526 17.9391 0.078077
449.269 26.645 0.488865
108.977 44.3375 -0.313707
582.504 41.8007 -0.0668532
801.945 12.9807 0.285771
253.689 29.9316 0.24435
34.2317 16.9402 0.16396
359.171 13.693 0.492305
115.1 40.036 0.464213
285.515 42.0334 -0.188665
454.754 1.09038 -0.212676
854.812 32.7235 0.403996
744.336 0.714801 -0.534529
354.739 3.20402 0.512612
320.29 26.5035 0.137458
495.235 40.6073 0.213167
87.1109 8.03896 -0.412756
211.267 44.7214 -0.377633
840.151 32.9684 0.357178
530.338 38.8817 0.0778437
213.601 41.0117 -0.256183
171.938 42.1397 0.269409
879.66 35.7361 0.401869
877.772 11.9858 -0.539116
653.885 3.44238 -0.466703
203.142 24.2545 0.0971883
590.391 27.8197 0.097641
592.456 27.4154 0.265577
437.676 5.58878 -0.136608
515.91 0.93139 -0.278634
831.632 41.4089 -0.476014
90.7633 30.577 0.211446
711.613 17.9027 -0.521052
292.941 15.4134 -0.341059
10.4402 2.32156 -0.3444
134.263 36.6055 0.192513
71.4633 22.8989 0.471223
762.331 36.8994 -0.325942
861.78 54.853 -0.186455
198.357 28.171 0.178409
871.297 13.1887 -0.385057
48.167 36.1284 -0.238662
97.1981 28.7368 0.162088
685.828 12.6901 0.386384
442.679 17.655 -0.52531
557.453 16.4854 0.119649
254.339 28.0006 0.184915
671.015 4.52365 -0.391403
881.876 11.0693 0.461545
32.0275 31.2589 -0.261924
288.495 7.67966 0.187099
237.232 15.1031 0.246913
1.0935 35.1695 0.147972
240.633 14.4959 -0.369257
226.25 10.9682 0.127846
228.911 26.0021 -0.280387
142.436 27.5478 -0.138347
588.927 14.8976 -0.336969
178.844 14.1664 0.330929
852.104 47.2165 -0.225606
186.092 3.84614 0.487034
50.6237 37.8723 -0.363211
808.606 50.0502 0.427287
300.171 31.6202 -0.394705
735.696 22.9932 0.438394
861.402 35.0544 -0.529944
321.37 9.10827 -0.111421
799.603 30.5792 0.333485
351.502 2.61966 -0.363672
445.406 23.66 0.349901
732.182 16.0206 0.388261
112.977 11.941 0.416523
517.645 3.90576 -0.474557
817.709 17.7474 -0.190757
94.5498 7.69534 0.196725
300.961 14.6138 0.199866
453.344 11.5883 -0.202407
871.009 3.65401 0.602805
425.821 1.93313 -0.512071
189.106 38.8246 0.297483
804.654 10.6017 -0.354651
137.547 35.9162 0.185061
281.233 31.1671 -0.377044
428.665 21.305 0.21596
618.425 13.7328 -0.330568
414.389 9.77888 -0.469207
489.082 27.2799 -0.404343
841.271 49.8111 0.474806
50.9784 10.8296 -0.11867
319.876 38.1477 -0.266837
406.248 26.0128 -0.387743
438.729 20.7924 -0.23979
559.96 44.1703 0.356478
824.436 40.377 0.239472
719.955 34.4698 0.359832
241.029 34.2174 -0.381449
14.8837 31.2032 0.158747
711.847 35.805 -0.180574
546.292 41.0844 0.190995
245.198 38.9189 0.102033
742.661 33.048 -0.113968
161.883 9.17827 0.20355
392.443 20.6031 0.29925
497.123 41.5267 0.100837
443.107 19.2948 0.199884
837.249 51.9986 0.294769
456.284 3.41215 0.42862
53.3286 25.1704 -0.313036
504.072 31.22 0.349975
465.906 41.6759 0.372829
856.822 41.8071 0.223753
796.608 29.2062 -0.220644
582.324 18.1811 -0.178801
846.747 41.6705 -0.324701
313.483 2.19101 -0.439172
405.002 28.4666 0.448235
31.1622 38.3787 0.295914
803.541 32.301 -0.133654
658.685 19.8557 -0.478601
496.45 0.769601 -0.483489
135.152 4.45654 -0.282501
457.276 40.3409 -0.112957
12.952 0.916709 0.311288
870.826 5.6295 0.194825
396.197 38.8633 -0.39056
[...]
POINT_DATA 13483
TENSORS Strain_matrix float
-0.238405 -0.175557 -0.343479 
0.0120039 0.0828338 0.148801 
-6.69152e-18 -1.16624e-17 1 

-0.330262 -0.0619621 10.8901 
0.140492 0.291273 -17.7352 
6.76785e-18 -4.82382e-18 1 

-0.0802607 -0.00240832 0.315074 
0.00489602 -0.0531273 0.313506 
-3.43306e-19 5.90012e-18 1 

-0.690848 -0.103551 0.836922 
-0.0103117 0.100342 -0.283762 
-2.20558e-17 7.63011e-18 1 

-0.0957265 -0.017528 0.0391241 
-0.000244431 -0.0666942 0.0311628 
0 -1.06878e-17 1 

-0.0555277 -0.0119678 -0.244956 
-0.0177093 -0.0522421 1.96812 
-2.41765e-18 6.13478e-18 1 

-0.0575542 -0.0319356 0.00304592 
0.00296672 -0.0993966 0.00214208 
-1.36784e-17 3.7164e-18 1 

-0.0710417 0.0103457 -0.0759884 
0.0341657 -0.0552024 -0.0248429 
-2.15201e-19 1.67508e-18 1 

-0.0766143 0.0353342 -0.0184828 
-0.0164891 -0.000310432 -0.0117329 
-2.64992e-18 2.09204e-18 1 

-0.214257 -0.0139213 -0.00481015 
0.0115577 -0.0550043 -0.359089 
8.02807e-18 2.48337e-18 1 

-0.0580425 -0.000399115 0.0716095 
0.00673157 -0.0652038 -0.196154 
8.56171e-19 6.78018e-18 1 

-0.0672687 -0.047906 0.200748 
-0.0644722 -0.0908698 0.0419672 
-1.67879e-17 7.74132e-18 1 

-0.150423 0.424303 -0.276321 
-0.0877905 0.137588 0.285625 
-8.1326e-20 -2.20258e-19 1 

-0.117019 0.0490307 -0.155529 
-0.00387075 -0.0288992 0.188182 
7.43161e-18 -1.00352e-17 1 

-0.0972187 -0.0123518 0.319962 
0.00421646 -0.0613204 -0.663064 
1.45407e-17 7.23291e-18 1 

-0.0639731 -0.0249468 0.432708 
-0.0105942 -0.0274222 0.429201 
-6.3474e-19 -7.97115e-19 1 

-0.0586847 -0.0277385 -0.00690462 
0.011702 -0.0957822 0.0144654 
-1.80645e-17 5.68838e-18 1 

-0.117188 -0.00462459 -0.057963 
0.0190865 -0.0742336 0.0186157 
9.44712e-20 -5.29038e-18 1 

-0.166306 -0.123407 0.137779 
-0.0534177 -0.0683041 -0.0907736 
1.39049e-17 -9.78832e-18 1 

-0.0870361 0.0348364 0.123403 
-0.0573472 -0.0877753 0.0665485 
1.05125e-17 5.63615e-18 1 

-0.110187 0.00657395 0.110525 
0.0346582 0.0054644 0.0136058 
-5.74332e-18 -4.34088e-18 1 

-0.132678 -0.124971 -0.0824375 
-0.0572834 -0.00933239 0.511895 
-5.50995e-18 6.39547e-18 1 

-0.943238 0.327554 -2.53902 
-0.324234 0.450689 0.395046 
-2.68508e-18 5.17549e-18 1 

-0.124432 0.0375584 0.400163 
-0.135632 -0.0528633 -0.705692 
1.52759e-18 -2.72057e-17 1 

-0.0515426 -0.0291213 -0.203689 
0.0703058 -0.0407892 0.030048 
-5.32045e-18 2.00256e-18 1 

-0.125789 0.102441 -0.0972451 
-0.0806292 0.039617 0.0313779 
5.44718e-18 -4.57746e-18 1 

-0.0813418 -0.0292295 4.67407 
0.00857552 -0.0175021 -3.59403 
5.81149e-18 -4.63193e-18 1 

-0.135873 -0.0441591 -0.0418652 
-0.115514 0.0223992 -0.124801 
-1.94906e-18 -8.44106e-18 1 

-0.0516268 0.00291639 0.0703674 
0.0328345 -0.0777611 -0.820136 
-2.41273e-18 3.98991e-18 1 

-0.118186 0.0211621 0.102475 
0.0787768 0.040087 -0.22321 
-1.75989e-18 9.62863e-18 1 

-0.0647885 -0.00992523 -0.238588 
0.0215453 -0.144341 0.394185 
1.49865e-17 -7.70336e-18 1 

-0.0658819 0.0974476 -0.393594 
0.0676034 -0.0743203 -0.238078 
-3.6976e-18 4.86652e-18 1 

-0.144022 -0.434341 -0.585828 
0.273923 0.10854 1.34502 
-2.06948e-17 6.27439e-18 1 

-0.0988876 0.0490149 0.233508 
-0.0104457 -0.0204254 -0.120172 
-5.54754e-18 3.9935e-17 1 

-0.0757343 0.0209823 0.0328773 
-0.0223682 -0.0883977 0.287032 
-1.48704e-17 2.93316e-18 1 

-0.114937 -0.0596547 -1.23053 
-0.0716588 -0.0284822 -1.82601 
-5.15524e-18 -6.22339e-18 1 

-0.0713689 -0.00756925 -0.0225726 
0.0115185 -0.0491056 -0.296855 
-8.37726e-18 9.10572e-20 1 

-0.0187191 0.0659002 0.196717 
-0.0208046 -0.168598 0.117312 
-6.44707e-18 1.04038e-17 1 

-0.0623438 -0.061976 -0.250191 
0.107154 -0.0301323 0.319256 
-4.04461e-18 5.05577e-18 1 

-0.0793367 -0.0684979 0.692586 
0.0116286 0.00624735 1.54201 
-9.02677e-19 -3.09167e-18 1 

-0.102019 0.0130955 -0.10644 
-0.0788434 -0.082995 -0.300743 
-4.3548e-18 -4.5267e-18 1 

-0.0440113 -0.0733969 0.120353 
0.01922 -0.0350833 0.209519 
1.03331e-18 -8.46518e-18 1 

-0.148864 0.0161774 0.303688 
-0.002185 -0.0230631 0.2013 
1.2245e-17 -6.91251e-18 1 

-0.0469344 -0.0278508 0.406402 
-0.0024267 -0.0885989 0.120126 
-9.80419e-18 -1.57225e-17 1 

-0.0526816 0.0218451 -0.0192655 
-0.0237884 -0.106352 0.160724 
9.72821e-18 4.83099e-18 1 

-0.0478371 -0.00344594 -0.0390038 
-0.0231893 -0.055688 -0.0927992 
3.93006e-18 -3.13375e-18 1 

-0.223167 0.234479 -0.253595 
-0.0563804 0.0215867 -0.227965 
-5.19495e-18 4.62952e-18 1 

-0.046645 0.00501911 0.0267909 
-0.0462473 -0.125476 0.0154902 
-2.34822e-18 -1.53145e-18 1 

-0.125175 0.079335 -0.293621 
-0.0178541 0.0219306 -0.16419 
-1.32468e-18 2.89063e-18 1 

-0.144785 0.0713243 0.303119 
-0.00854978 -0.00757059 -0.171694 
2.83524e-18 -3.58785e-18 1 

0.012204 -0.169318 0.254599 
-0.0158046 -0.0386419 -0.174224 
-5.07397e-18 1.63092e-17 1 

-0.0927056 0.528503 1.7771 
0.159487 0.0177395 0.105445 
-1.22812e-18 -1.09754e-17 1 

-0.108192 -0.0198738 0.105196 
-0.0173103 0.00799068 -0.0537573 
-3.25482e-18 8.56062e-18 1 

-0.0972632 0.0375409 0.0714832 
-0.0172884 -0.0536638 0.00368033 
1.03509e-17 -1.44378e-18 1 

-0.0885036 -0.0118458 -0.168409 
-0.0287758 -0.077496 -1.09825 
1.31258e-17 -2.51274e-18 1 

-0.127262 -0.0192801 -3.58456 
0.0240306 0.00273242 0.454004 
-8.31375e-19 5.40771e-18 1 

-0.187022 -0.0788785 0.36241 
0.154506 0.1732 -0.203119 
-4.01336e-18 8.48771e-18 1 

-0.0675701 -0.0186799 -0.164784 
-0.000717792 -0.0999643 0.0164257 
1.86701e-18 2.47464e-17 1 

-0.0345856 0.0218261 -0.0411169 
0.00249681 -0.140761 0.0389874 
-4.90016e-18 1.33346e-17 1 

-0.0809155 0.0096534 -0.134354 
-0.0868561 -0.0652923 0.027469 
1.05494e-17 3.85692e-18 1 

-0.0760243 0.205947 0.209881 
0.0160567 0.164752 -0.257274 
6.48855e-18 2.91795e-17 1 

-0.048282 0.00387566 0.135906 
0.0563765 -0.0148464 0.335137 
3.51129e-18 -2.7293e-18 1 

-0.0762793 -0.0801683 -0.257879 
-0.00181932 -0.043532 -0.0731859 
-6.00833e-18 -1.06325e-17 1 

-0.140675 -0.00650903 -0.4372 
0.0348319 -0.0274168 0.650572 
5.37853e-18 4.51047e-18 1 

-0.0608849 0.0165896 0.0376248 
0.0140871 -0.000142747 0.134853 
-7.33383e-19 -1.66233e-17 1 

-0.12771 0.00518508 0.177543 
-0.0280157 -0.00718994 0.0500236 
-8.47955e-18 -1.48539e-17 1 

-0.248719 -0.0457547 0.309457 
0.0460723 0.00158032 0.249316 
-8.4646e-18 6.02121e-18 1 

-0.164851 -0.130553 -0.278374 
0.122162 0.0535959 0.575251 
-1.19161e-18 7.58103e-18 1 

-0.0895298 0.00232958 -0.714639 
-0.0376808 -0.0883413 1.06616 
-8.58424e-18 2.71373e-18 1 

-0.120628 -0.0256669 0.0858633 
-0.0201842 -0.0868814 0.0676732 
-8.99019e-20 -6.47294e-18 1 

-0.435499 0.574076 0.898784 
0.145326 0.25054 0.536117 
-4.36966e-18 -3.47449e-18 1 

-0.0433613 0.0134218 0.0478618 
-0.00821898 -0.0785969 -0.0991929 
-9.78651e-19 7.80627e-18 1 

-0.0442035 0.0679419 -0.106557 
-0.137534 -0.0531557 0.0982695 
-1.11243e-18 -1.65214e-17 1 

-0.058738 -0.0385949 0.0530515 
-0.0125634 -0.0656321 -0.215423 
-8.29183e-18 2.64135e-18 1 

-0.0707108 -0.0011214 0.0544047 
-0.0130607 -0.0366738 -0.0659026 
1.03452e-18 -2.84006e-18 1 

-0.0459636 0.0117205 -0.0399263 
-0.0701744 -0.103389 -0.0983863 
7.57195e-18 6.26644e-19 1 

-1.43956 0.985743 1.01469 
0.410537 0.606059 -0.10832 
3.82724e-18 1.68398e-18 1 

-0.0807701 0.0289551 -0.22573 
-0.0258387 -0.034641 0.185736 
-3.31475e-18 -8.84365e-18 1 

-0.160351 -0.0772114 0.0275371 
0.0196111 -0.0384538 -0.526131 
-4.88055e-18 -1.01949e-17 1 

-0.0934756 -0.0314211 0.184619 
0.0684625 0.00061049 0.372408 
1.76367e-18 8.20948e-18 1 

-0.186333 0.0871965 -0.000723599 
0.02081 -0.101222 0.268736 
-1.3861e-17 3.87306e-18 1 

-0.0376021 -0.00164468 0.0241464 
0.0105762 -0.01956 0.0442377 
-5.39992e-18 -5.19886e-18 1 

-0.0459575 0.0217032 -0.125712 
-0.00500421 -0.0208374 -0.162779 
6.95789e-18 -2.69946e-18 1 

-0.105944 0.0889491 -0.13004 
-0.0138841 -0.00191498 0.0350741 
-1.07356e-17 -1.01118e-17 1 

-0.235291 -0.194787 -0.0165035 
0.160423 -0.0242704 0.39146 
4.92349e-18 2.43135e-19 1 

-0.288145 0.681911 0.315317 
-0.53634 0.483264 -0.544913 
6.68603e-18 3.96615e-18 1 

-0.404517 2.42927 3.15535 
0.0144584 0.205642 -0.502024 
-1.42379e-18 -1.23063e-16 1 

-0.0203703 -0.018273 -0.00990699 
0.000983341 -0.0731523 -0.00460596 
-9.37365e-19 -1.73412e-18 1 

-0.131863 0.00459053 -0.110419 
0.0480759 -0.0284377 -0.0122962 
1.11069e-17 -9.76769e-19 1 

-0.0816181 0.014379 -0.483097 
0.00727399 -0.078154 -1.60254 
3.2967e-18 -1.28487e-18 1 

-0.0457952 0.0203356 0.041033 
-0.00915736 -0.0364085 0.00635472 
-3.90233e-18 -5.79213e-18 1 

-0.082026 0.0139772 -0.00309502 
0.025566 -0.0621962 0.248798 
-2.99393e-18 -1.23471e-17 1 

-0.422385 0.605515 -0.808749 
0.0414139 0.14205 0.0740765 
7.01273e-18 -1.78394e-18 1 

-0.126827 -0.0151409 -0.0529368 
-0.0349225 -0.0122165 -0.0108594 
-4.52276e-18 -9.5216e-18 1 

-0.0518892 0.0134104 -0.541567 
0.0355189 0.00173373 -0.276218 
1.82651e-18 1.42975e-17 1 

-0.0934174 0.0329015 -0.0750252 
-0.00436278 0.150393 -0.336678 
-1.03429e-17 6.01885e-17 1 

-0.0756069 0.0210874 -0.124959 
-0.0138233 -0.0397994 0.0519213 
-1.07639e-17 -1.2276e-17 1 

-0.50781 0.172392 -0.179225 
0.214575 0.0693186 0.359278 
8.03963e-18 -8.61389e-18 1 

-0.417776 0.311386 -0.577457 
0.101581 0.0896222 -0.923841 
1.33506e-17 -2.38945e-18 1 

-0.0315437 0.0154772 -0.0367071 
-0.0382061 -0.0743871 0.0644256 
6.45435e-18 -3.75796e-18 1 

-0.0549259 -0.02137 0.0481442 
0.0271056 -0.029776 -0.390402 
4.5052e-18 1.63514e-18 1 

-0.12296 -0.0508112 0.266057 
0.0063383 -0.0202275 -0.153626 
1.1081e-20 -3.09159e-18 1 

-0.0980854 -0.00123527 -0.0686032 
0.0130095 -0.0362268 0.369192 
1.91991e-18 -3.55539e-18 1 

-0.100496 -0.0155508 -0.173005 
-0.0321602 0.0334054 -0.295696 
7.84882e-18 -3.5861e-18 1 

-0.065253 -0.0292367 -0.124463 
0.0173122 -0.0794535 0.533388 
1.81467e-18 1.05691e-17 1 

-0.0919355 0.00617818 0.219882 
0.0322777 -0.0524482 0.0500393 
2.47054e-18 -4.99639e-18 1 

-0.408522 -0.0114842 0.196613 
-0.0857406 0.0802651 -0.050237 
6.32147e-18 4.93695e-17 1 

-0.044324 0.0138276 -0.791681 
-0.044812 -0.0520086 0.594138 
5.92144e-18 3.98671e-18 1 

-0.095085 0.0318637 0.0858069 
0.0187343 -0.0975682 -0.0208442 
-4.41926e-18 -4.51329e-18 1 

-0.102056 0.00225355 -0.318341 
0.0318144 -0.0823734 -0.0611259 
3.94638e-18 -9.38746e-18 1 

-0.0764161 0.0806846 -0.32475 
0.0310158 -0.0987922 -0.218216 
-4.73648e-18 1.16771e-17 1 

-0.0534768 0.0505925 0.239514 
0.0266762 -0.0651606 -0.00920484 
2.12157e-18 -8.09545e-18 1 

-0.0562011 0.0236942 0.00166963 
0.00679029 -0.125011 0.0369143 
5.8607e-18 1.18253e-17 1 

-0.110419 -0.118746 -0.825494 
0.100118 -0.00416752 -0.225358 
-2.80635e-19 7.23126e-18 1 

-0.128384 -0.0645082 0.370359 
-0.0480161 0.0356808 -0.18313 
-7.0407e-18 -8.12787e-18 1 

-0.0550644 -0.0240847 0.069494 
0.0185925 -0.0172887 0.165449 
3.28815e-18 1.56578e-18 1 

-0.0704597 0.05339 -0.0105233 
0.0608493 -0.0286551 0.137583 
6.89324e-18 -9.03252e-18 1 

-0.0549084 0.0086198 -0.0395995 
0.0633628 -0.0608168 -0.0865146 
1.42279e-17 7.49505e-18 1 

-0.11541 -0.0397794 -0.0871518 
0.116156 0.0398778 -0.371086 
1.8965e-18 -4.29874e-18 1 

-0.0738839 0.0233031 -0.269701 
-0.0284937 -0.0189904 0.374452 
4.00944e-18 1.04775e-17 1 

-0.1815 0.0516515 -0.21045 
0.052483 -0.119136 -0.0694958 
6.92497e-19 -1.74947e-18 1 

-0.336976 0.16089 0.306132 
-0.273584 0.0518366 0.697437 
2.61445e-18 -1.29172e-17 1 

-0.0699789 0.041146 0.0937373 
-0.0248747 0.019124 0.188501 
9.50906e-18 1.63949e-19 1 

-0.0155299 0.127884 0.129946 
0.0525896 -0.0275757 0.182049 
-5.69166e-18 5.45987e-18 1 

-0.0693688 0.00790979 3.28046 
-0.00391174 -0.0534797 2.69213 
5.54344e-19 9.86176e-18 1 

-0.0725516 0.0295901 -0.224445 
-0.0196032 -0.119442 0.242974 
-8.64968e-18 1.54302e-18 1 

-0.0796259 -0.0395159 -0.122118 
-0.0190919 -0.0331478 0.00486517 
-9.68972e-19 3.87589e-18 1 

-0.176219 0.0799119 0.00354151 
-0.0665354 0.0578127 0.400257 
-2.08587e-19 6.23444e-18 1 

-0.060784 -0.052811 -0.0194749 
0.0380159 -0.0513778 -0.194993 
-5.08669e-18 4.18422e-18 1 

-0.0654327 -0.00290014 -0.27102 
-0.00225205 -0.0520821 0.0243224 
3.2937e-18 -1.5935e-20 1 

-0.113651 0.0583107 0.288274 
-0.0238178 0.0792224 -0.143847 
5.98207e-18 -5.9297e-18 1 

-0.286793 -0.0350782 0.170732 
0.104061 0.0971063 0.413266 
6.18409e-18 5.64384e-18 1 

-0.0660782 0.0217451 -0.0695444 
0.0344401 -0.0274755 0.525045 
5.50779e-18 2.44425e-18 1 

-0.630392 0.267856 0.612239 
-0.0374004 0.0874143 0.188562 
-4.8424e-19 8.23207e-19 1 

-0.119272 0.0136079 0.143095 
-0.150692 0.0551976 -0.227056 
-1.75328e-18 -3.1254e-18 1 

-0.0808929 -0.0113541 0.108059 
0.00972348 0.0575221 -0.110835 
-2.77611e-18 1.19373e-17 1 

-0.224485 -0.1079 -0.319109 
0.125517 0.157024 0.556943 
-1.12093e-17 7.47286e-18 1 

-0.0850508 0.00169134 0.0423883 
0.0512505 -0.0275248 -0.598438 
-2.07894e-18 6.49667e-19 1 

-0.101984 -0.0669483 -0.0336343 
0.053605 -0.0571677 0.142225 
-5.98594e-18 4.95711e-18 1 

-0.0490452 -0.0507665 0.211576 
0.0329068 -0.0832135 0.312496 
-1.42362e-17 8.85622e-18 1 

-0.103325 -0.0201178 0.152784 
0.0177366 -0.0386586 -0.139994 
5.90206e-18 7.51171e-18 1 

-0.033902 0.0669244 -0.119642 
-0.0221325 -0.0631079 0.112241 
-3.36072e-18 5.36782e-18 1 

-0.071235 -0.0649768 0.0804085 
0.0420006 -0.034553 -0.10659 
2.97739e-18 3.4237e-18 1 

-0.0517744 -0.0277621 -0.721271 
-0.00720085 -0.0168898 0.218376 
1.29732e-18 1.00781e-17 1 

0.00164149 -0.0731075 -0.227903 
0.0259449 0.00707304 -0.153926 
-2.32291e-18 -1.78211e-17 1 

-0.277847 -0.478681 0.872993 
0.175821 0.192948 -0.40776 
2.07016e-18 3.31609e-18 1 

-0.430087 0.212034 0.489659 
-0.354972 0.113366 -0.0910101 
-3.12409e-18 -2.45939e-18 1 

-0.0657481 0.000261485 -0.90599 
0.0190034 -0.0832978 0.0275076 
3.3603e-18 6.77804e-19 1 

-0.0598193 -0.00532991 -0.555536 
0.0347497 -0.0700725 0.0535538 
4.86478e-18 -3.47021e-18 1 

-0.0233793 0.0499012 0.0384168 
0.0528416 -0.0275575 0.184156 
-3.57564e-18 3.24262e-18 1 

-0.0703858 -0.0113336 -0.206416 
-0.0499446 -0.00678525 -0.684125 
-1.41127e-18 -8.04971e-18 1 

-0.186305 0.0414993 0.0703791 
0.0267238 0.0132283 -0.159245 
2.30128e-18 -3.97409e-18 1 

-0.0937905 -0.0593075 0.017695 
0.0197429 -0.0419107 -0.0323574 
2.8398e-18 -2.47682e-18 1 

-0.0798982 0.00122107 0.201368 
0.0206027 -0.0180787 -0.982383 
-3.58591e-18 6.11551e-19 1 

-0.0678604 -0.0158216 0.146663 
0.00842815 -0.0722715 -0.0215423 
-1.12009e-17 5.82969e-18 1 

-0.134975 -0.0399777 0.0562534 
-0.0277529 -0.0158227 0.000472784 
-4.4839e-18 -4.82321e-18 1 

-0.106914 -0.0375002 0.319495 
0.0109745 0.0128068 0.46331 
-1.71949e-18 4.10031e-18 1 

-0.068236 -0.0177151 -0.964652 
-0.0183088 -0.039877 -0.422713 
3.61678e-18 2.4719e-18 1 

-0.152207 -0.0349062 0.119934 
-0.0492595 0.0797918 -0.20871 
3.40513e-18 -7.49583e-18 1 

-0.573892 0.0880301 0.562177 
0.230987 0.32372 -0.46601 
1.17548e-17 -3.32684e-19 1 

-0.19139 -0.0632349 0.7483 
-0.044212 0.111589 9.47048 
5.47547e-19 -4.26824e-18 1 

-0.114635 -0.0202757 -0.2401 
-0.0183925 -0.0733285 0.175298 
1.56681e-17 -2.40514e-17 1 

-0.0573874 -0.10594 0.828726 
0.150078 0.0212456 1.15723 
-2.85925e-18 -7.60205e-18 1 

-0.133176 -0.0401627 2.01341 
0.0187596 0.0872905 1.56724 
-4.96181e-18 -9.19751e-18 1 

-0.124824 0.0461535 -0.418262 
0.0091439 -0.0289694 -0.451021 
5.17455e-19 3.37867e-18 1 

-0.617667 0.275752 -0.391072 
-0.404316 0.0089479 0.314352 
1.68427e-17 -1.91395e-18 1 

-0.0649657 -0.0580228 0.0100519 
0.0153172 -0.0373799 0.0282559 
-1.05291e-17 -3.89779e-18 1 

-0.0824717 -0.0202085 0.0134354 
-0.0398799 -0.0350755 -0.0846994 
-1.48446e-18 6.77942e-18 1 

-0.0563807 -0.0517255 0.106315 
0.0136191 -0.109239 0.30986 
-1.96936e-18 -5.11342e-18 1 

-0.0868148 0.0139134 0.277554 
0.00339717 -0.0599488 0.0051765 
9.35216e-18 -2.63112e-18 1 

-0.0666481 -0.0123093 0.00273549 
0.00101495 -0.0688922 -0.0578054 
1.19597e-18 -8.68652e-18 1 

-0.0492374 0.0108602 0.000391373 
0.0323197 -0.0317757 -0.0123646 
1.57083e-18 8.61424e-19 1 

-0.0767103 0.00184008 -0.145537 
0.0565282 -0.0153344 -0.361373 
9.93302e-19 2.83505e-18 1 

-0.152439 -0.0163826 0.0312508 
-0.0531937 0.0242516 0.647167 
2.18801e-18 -2.55787e-17 1 

-0.121425 0.0721288 -0.0820334 
-0.0930019 -0.0306171 -0.0528489 
-1.19737e-18 2.18093e-18 1 

-0.0990054 0.00328974 0.0606007 
-0.0381649 -0.0656779 0.0473979 
1.92447e-17 6.39769e-18 1 

-0.515512 0.54761 -11.2328 
0.0164756 0.55382 -6.23252 
1.76052e-18 -1.36298e-18 1 

-0.0895524 -0.00899535 0.0405677 
-0.0129556 -0.0466336 -0.161521 
4.53137e-18 -8.57286e-19 1 

-0.106639 0.0703217 -0.133916 
-0.103394 -0.0179943 0.029375 
2.21667e-17 9.88056e-18 1 

-0.0968505 0.0708975 -0.0531373 
-0.0362269 -0.0823755 -0.0539072 
-2.82252e-18 -3.15242e-18 1 

-0.042055 0.0555196 -0.243121 
-0.103986 -0.0349175 0.27258 
6.56678e-18 -4.98073e-18 1 

-0.12031 0.038083 0.133144 
-0.139172 -0.0626245 -0.0884264 
5.58169e-18 -9.40073e-18 1 

-0.0541458 -0.00552013 -0.0332873 
-0.0381834 -0.0617916 0.012557 
3.44446e-18 -8.07363e-18 1 

-0.0626576 -0.0169754 -0.386057 
0.0341023 -0.0798077 -1.48195 
-4.23252e-19 4.65577e-18 1 

-0.164289 -0.0688108 0.107807 
0.141752 0.0330385 -0.344526 
-7.53053e-18 -7.15717e-18 1 

-0.0845362 0.0103329 0.0692155 
-0.0737204 -0.0576453 0.117606 
5.81816e-18 -1.88429e-18 1 

-0.0832115 0.0216359 0.566956 
-0.035217 -0.0681136 0.0536856 
3.97324e-18 -1.02837e-18 1 

-0.223904 -0.197545 -0.0202823 
0.22918 0.0950185 0.176351 
-4.28381e-18 -3.04627e-18 1 

-0.111863 -0.00126036 0.467017 
0.00557221 -0.0632503 -0.13476 
2.12216e-18 9.40281e-18 1 

-0.392226 0.145927 -0.875984 
-0.0783573 0.0543756 -0.922547 
1.73892e-17 1.54627e-18 1 

-0.105368 -0.150263 -0.271109 
0.113537 -0.00362694 -0.232925 
2.84238e-18 -8.09288e-18 1 

-0.0776828 -0.0723948 -0.0781109 
0.0309028 -0.0596468 -0.0218189 
3.7077e-19 -6.31022e-19 1 

-0.335571 -0.248832 0.27811 
0.124732 0.0388509 0.436991 
-1.07335e-17 6.19328e-18 1 

-0.229091 -0.0752761 -0.552178 
-0.0771174 0.0809591 1.64308 
-6.27867e-18 4.32363e-19 1 

-0.238857 0.0692471 0.0727076 
-0.0983997 -0.00231442 -0.0533941 
-7.66726e-19 7.94804e-18 1 

-0.060605 -0.00299507 0.204238 
0.0078827 -0.0322734 0.605914 
-9.24704e-18 4.43838e-18 1 

-0.073724 0.0110165 -0.446082 
-0.0144166 -0.0776916 -0.37291 
-1.38769e-18 5.20383e-18 1 

-0.0535215 0.0358007 0.175382 
-0.0383757 0.0597311 0.228937 
2.96362e-18 -7.13121e-18 1 

-0.0800327 -0.0332705 -0.0609229 
-0.048276 -0.0688219 0.278672 
-3.45671e-18 3.69347e-18 1 

-0.183494 -0.0662927 -0.83256 
0.0662589 0.00772092 -0.365105 
-4.11134e-18 -9.69657e-18 1 

-0.0342207 0.00916795 -0.0234728 
0.00864774 -0.126914 -0.123334 
3.02584e-18 1.30661e-18 1 

-0.0615248 -0.0269995 -0.0734457 
-0.00323538 -0.0360088 0.146239 
9.34544e-19 -5.19191e-19 1 

-0.238975 0.0483098 -0.090611 
-0.0428794 -0.0106243 0.161311 
-7.6325e-19 -3.00295e-19 1 

-0.15827 -0.145113 -0.182775 
-0.0312329 0.0741487 0.205535 
-3.16007e-18 -3.46988e-18 1 

-0.112002 -0.000319483 -0.0619527 
0.0275733 -0.0691474 0.17 
2.63632e-19 7.47755e-18 1 

-0.0443936 -0.0432368 0.106549 
-0.00383586 -0.0420016 -0.291205 
9.8719e-18 -9.07452e-18 1 

-0.111566 -0.0106482 -0.299932 
0.0129089 -0.00177702 -0.450961 
-2.91022e-18 1.1915e-18 1 

-0.0545219 0.00106108 0.0181525 
0.0452869 -0.00175322 -0.0972117 
6.92662e-18 -3.00462e-19 1 

-0.344591 0.237107 -0.0625681 
0.0781826 0.26919 -0.300804 
-2.75689e-18 -3.12944e-18 1 

-0.304423 0.0861246 0.00710157 
-0.262312 0.251405 0.589675 
9.54567e-18 4.15981e-18 1 

-0.0394268 -0.00717902 0.324809 
-0.0708971 -0.0267654 -0.330221 
-1.33836e-17 -1.89282e-18 1 

-0.102921 -0.0154266 0.0565443 
0.0244385 -0.0500598 -0.525631 
-1.35566e-19 -1.02745e-18 1 

-0.0206873 -0.0339125 0.0907085 
0.0628127 -0.0202423 0.295993 
7.86236e-18 -1.00876e-17 1 

-0.0619913 0.00388397 1.22349 
-0.0201717 -0.0252812 -2.23764 
1.29645e-18 -2.27128e-18 1 

-0.168235 0.0496949 0.283953 
-0.053178 0.0699701 0.0148106 
-1.04541e-18 3.97565e-18 1 

-0.0794712 -0.0229852 -0.162502 
0.0282407 0.0108346 -0.237122 
-1.70923e-17 1.09488e-17 1 

-0.0704003 0.00221435 0.0114677 
-0.00593175 -0.180684 0.11157 