# vtk DataFile Version 3.0
Output file generated by Yade's KinematicLocalisationAnalyser
ASCII
DATASET UNSTRUCTURED_GRID

POINTS 13483 float
664.442 27.2168 -0.410661
868.947 44.1285 -0.543714
130.528 6.08319 -0.447693
914.782 4.32763 0.358293
541.124 7.47353 -0.305144
339.993 34.369 -0.459959
169.875 6.74423 0.408507
620.25 10.1712 0.134845
537.824 22.4818 0.137374
803.531 12.4367 -0.41696
227.825 8.71993 -0.116346
277.62 6.23876 -0.273737
717.495 27.7033 0.137312
694.617 14.0383 0.0737058
148.984 16.994 -0.447311
239.749 34.0614 -0.391247
235.39 12.836 -0.248329
311.785 9.37714 0.382542
368.137 32.4309 0.441729
569.209 8.39758 0.369586
444.363 35.7262 0.0982815
645.277 43.3903 0.258766
911.907 33.0167 -0.452234
774.471 41.7727 0.426769
496.676 15.9055 0.288392
260.232 43.5227 0.123186
532.385 26.6621 -0.483653
638.758 19.3183 0.235819
48.597 15.638 0.465675
799.13 30.1587 -0.322662
522.389 4.80692 0.324379
18.0507 22.663 0.292409
883.842 43.14 0.245952
536.588 2.47786 0.474008
84.857 42.8769 -0.0998738
566.518 29.8347 0.325793
576.048 16.396 -0.410325
370.934 21.9363 -0.168809
579.844 25.3082 -0.315582
378.934 32.9764 -0.381996
260.885 14.3188 -0.303706
469.948 34.8335 0.0655485
748.165 6.65055 0.102848
209.017 6.13683 0.37266
59.7845 6.88235 -0.117848
73.8792 8.84226 0.286377
766.853 8.42793 -0.474229
25.4913 11.5984 0.298807
667.838 43.56 0.206979
749.542 22.228 -0.322389
187.052 31.9308 0.292702
863.252 32.7907 -0.117381
38.1393 27.5367 -0.109529
580.242 2.9479 0.318716
154.441 7.28262 -0.4477
647.974 33.149 0.374849
547.143 25.5056 -0.123438
189.72 0.958141 0.24757
35.4689 2.43614 0.279032
376.636 17.4912 0.268842
680.448 44.1706 -0.132086
500.694 33.5293 -0.175376
431.907 1.03191 0.18709
778.995 7.51897 -0.337351
28.6296 41.897 -0.235258
277.569 29.9246 0.289952
803.566 7.55579 0.201106
740.785 43.5822 0.367328
451.961 8.51122 -0.467149
620.931 3.54772 -0.333328
838.888 29.0334 0.400901
142.203 7.56186 0.270736
540.833 24.6253 -0.12912
517.627 14.811 -0.122534
318.661 16.5232 -0.340013
22.4081 13.3607 -0.252529
892.802 35.173 -0.308217
359.677 38.464 -0.280344
747.286 19.2057 0.360495
766.226 12.7923 -0.235671
898.085 10.956 -0.202197
504.295 33.8384 0.165518
100.247 36.9059 -0.259406
760.082 34.4577 -0.208194
714.529 38.2518 -0.0910575
916.936 38.1457 -0.0958429
890.761 0.773997 -0.468868
315.18 28.4231 0.436809
682.586 6.29469 -0.105171
26.4041 5.24635 0.460295
144.219 37.2464 0.141438
557.765 14.2122 0.185273
880.367 25.0021 -0.476606
212.344 28.1319 -0.235003
48.1244 34.0083 -0.271489
535.419 1.16043 0.105558
255.67 8.6742 -0.382319
841.953 39.1414 -0.255401
866.73 25.5149 0.23123
391.256 20.2784 -0.260326
178.222 26.4567 -0.45093
600.116 37.7026 -0.408093
412.222 14.7769 -0.514565
448.918 28.7575 -0.0989715
410.248 4.41937 0.402681
597.617 10.7076 -0.0979611
919.31 11.2452 0.195453
87.1438 37.9411 0.386753
363.757 4.7083 -0.180749
613.144 9.44541 -0.320457
390.778 42.8129 0.445498
28.2182 23.8988 -0.47086
33.1075 5.67184 0.31393
622.109 31.8711 0.39918
550.777 23.2481 -0.151167
28.6841 36.0717 0.411865
101.592 29.7848 0.216408
352.787 15.6657 -0.298729
658.788 18.3709 -0.120702
517.51 37.0787 0.29712
823.278 7.37154 -0.372897
814.148 6.21558 0.205752
420.581 36.3473 -0.0931189
701.476 25.199 -0.0943287
259.446 16.6998 -0.46974
358.593 3.63985 0.469584
112.974 30.4776 0.325175
126.876 23.6484 -0.263466
594.865 38.1097 -0.0692057
332.647 18.6399 0.474253
793.159 32.9816 0.1028
745.317 43.2978 -0.123239
524.172 19.8857 -0.3806
871.322 9.78693 0.261997
467.02 22.7454 -0.232187
301.464 23.7942 -0.297519
748.368 30.8526 -0.274826
303.475 28.0679 0.377272
633.017 11.2738 0.17051
361.373 35.4768 -0.190987
551.546 11.3436 0.436047
399.32 30.4536 0.0861548
469.602 16.3021 -0.106686
346.379 41.0928 0.43363
208.16 29.1351 -0.127495
874.312 42.5719 0.171813
914.965 11.8412 -0.297627
6.28255 11.9077 -0.434908
473.742 21.7645 -0.426459
42.1221 22.1805 -0.0855292
409.896 30.5297 -0.46508
431.079 24.3011 -0.259271
81.4461 11.7414 -0.471702
56.5804 32.9606 -0.43104
246.868 13.2983 0.431336
681.692 38.0559 0.391456
635.597 20.1346 -0.434069
81.1827 20.7495 0.489641
777.911 44.9755 -0.418007
856.177 2.45438 -0.416488
733.209 39.3803 0.513347
774.022 2.33215 -0.378908
604.28 26.0654 -0.385441
646.925 43.439 -0.443041
561.659 17.8239 -0.386862
911.974 3.19441 0.29721
244.396 24.45 -0.119659
139.685 34.2142 -0.148382
270.001 6.53414 -0.362651
103.401 4.003 0.240857
69.97 9.73276 0.202575
301.303 35.1844 -0.312728
18.4154 24.3766 -0.359856
610.746 19.2473 0.392877
667.899 38.5107 0.20632
506.455 20.7798 -0.357292
904.151 42.1597 -0.349021
444.688 8.412 0.0956879
476.929 35.2904 -0.387388
589.3 3.41496 -0.181532
25.1845 23.3874 -0.380971
635.495 4.16467 -0.386718
599.872 4.32582 -0.284314
225.92 11.1506 0.472292
465.217 15.9643 0.181642
340.278 6.28246 0.315022
424.341 18.7273 -0.319843
828.708 41.3556 -0.11053
210.518 25.2417 -0.402484
882.562 6.85624 0.322643
827.891 37.5289 -0.320349
419.276 10.071 -0.170948
800.512 2.5113 0.335895
668.696 24.2074 -0.38762
831.451 17.8996 -0.346988
471.76 41.8115 -0.26536
545.352 12.2727 0.363653
510.4 43.3226 0.21837
488.296 8.56022 0.132597
736.71 38.3886 0.297896
734.314 34.6021 -0.304623
210.57 38.0822 -0.336885
895.936 11.2537 -0.128387
649.568 44.0542 0.160317
12.3973 16.6586 0.166031
446.17 24.6728 0.327562
205.348 22.662 0.401381
101.915 37.9188 -0.20106
878.26 22.8801 0.438721
730.175 43.774 -0.220019
349.389 25.0718 0.354745
585.879 10.0517 0.310345
90.2723 42.8998 0.162748
271.27 25.4957 -0.469871
613.673 23.448 0.375297
534.367 18.1517 0.389538
287.655 0.894731 -0.342447
609.538 39.443 -0.359206
587.845 40.3404 0.439854
528.879 32.2383 0.372952
548.586 0.771297 -0.476904
785.542 17.3748 -0.37721
197.204 11.7315 -0.174551
550.158 34.7258 0.429299
622.86 39.1492 -0.111429
79.4834 0.922333 -0.26796
275.71 4.62778 0.175415
914.289 13.6999 0.190906
898.986 12.7632 -0.360004
921.875 16.4217 -0.480702
332.296 8.46747 -0.224824
838.793 22.0192 -0.378949
446.462 40.5281 0.31317
492.67 0.812019 -0.399085
720.804 34.8412 0.410075
30.0073 29.4657 0.316813
361.811 40.4396 -0.353431
276.643 2.78865 0.311065
887.507 40.8789 -0.234205
797.715 45.215 -0.23545
314.723 10.6404 0.177125
741.372 27.8459 0.0864678
614.892 2.69957 0.255065
597.525 6.34867 0.414573
106.422 17.5762 -0.48819
332.116 1.03666 -0.221232
376.336 2.27441 -0.359447
15.3409 7.6143 -0.260052
4.6861 30.2897 -0.239844
178.218 18.7343 -0.354878
75.0242 40.77 -0.210346
73.1667 28.1068 -0.319756
464.923 14.2159 -0.404654
402.605 34.0534 -0.465352
860.976 34.8301 0.118893
21.5291 3.92957 -0.283361
77.1094 6.80088 -0.141865
693.407 37.1716 -0.146882
323.129 0.933966 0.316835
399.938 16.0916 -0.0885762
258.581 4.57017 -0.38682
726.28 21.5121 0.181818
496.013 8.30715 0.393486
842.023 19.6474 -0.34586
700.532 28.4341 -0.295412
746.32 17.4763 -0.0968619
461.244 25.8371 0.488939
111.901 43.479 -0.302832
598.766 41.5503 -0.0773111
828.791 13.0644 0.21998
261.005 29.6875 -0.23184
35.232 16.4796 -0.155779
368.757 13.557 0.482173
118.547 39.4174 0.458121
293.79 41.5005 -0.182424
467.199 1.057 0.183729
889.358 30.5829 0.410192
766.348 0.762093 -0.552812
364.37 3.02531 0.468237
329.173 26.0749 0.136423
509.018 40.1579 0.20452
89.2729 7.84482 -0.445036
217.652 43.8466 -0.377648
870.351 27.6427 -0.356233
544.87 37.6897 -0.0627167
219.971 40.457 -0.249497
176.897 41.5343 0.357581
921.937 33.1415 -0.42216
917.607 11.1659 -0.510265
671.746 3.28335 -0.304064
209.097 24.026 -0.0936446
606.426 27.3746 0.104175
608.488 27.0432 0.251149
449.486 5.53034 -0.13367
530.004 0.933826 -0.279208
858.874 37.152 -0.417804
94.0073 29.7649 0.216576
732.071 18.019 0.439321
301.206 15.3266 -0.322112
10.9142 2.32993 0.333725
138.17 36.0135 -0.191647
73.3961 22.5106 0.449619
785.63 35.187 0.332542
892.468 47.2747 0.175831
204.322 27.7367 -0.17445
909.419 11.4644 -0.326664
49.4349 35.9818 -0.250719
100.24 27.761 0.15768
705.261 12.8196 0.363745
454.366 17.7235 -0.489047
572.599 16.2785 0.105461
261.652 27.7995 0.185561
690.275 4.5205 -0.403007
922.326 10.5972 0.309548
33.0123 30.7663 0.264838
296.531 7.67108 0.184074
244.128 14.8438 -0.234546
1.11562 35.0203 -0.147492
247.806 14.3852 -0.35468
232.852 10.8186 0.123722
235.901 25.7883 0.268101
146.584 27.3036 0.128577
604.575 14.7686 0.314712
184.383 14.1947 -0.341187
881.558 41.2234 -0.235734
191.932 3.92503 -0.471195
52.0729 37.1191 -0.353646
835.405 47.7624 0.426481
308.712 31.0335 0.377299
756.088 23.496 -0.440756
897.973 29.4058 -0.461057
330.286 9.07407 -0.112363
825.954 29.2624 0.329538
361.035 2.63011 -0.352002
457.266 23.4125 -0.365914
753.001 15.2999 0.455831
116.669 11.3825 0.467637
531.761 3.97477 -0.452614
846.077 17.5527 -0.203226
97.2228 7.55502 -0.19406
309.306 14.4591 0.193588
465.804 11.4242 -0.200774
910.218 2.7734 0.393685
437.277 1.8522 -0.453943
194.865 38.0093 0.279381
831.822 10.3065 -0.290647
141.529 35.3133 -0.189288
289.166 31.0772 -0.376254
440.243 21.2289 0.206878
635.826 12.8065 -0.339746
425.636 9.81493 -0.414154
502.382 27.2567 -0.39727
869.912 44.7052 0.387278
52.2695 10.8434 0.114529
328.959 37.7952 -0.259015
417.233 26.0872 -0.369628
450.357 20.6668 0.25623
575.847 44.3656 0.356492
851.867 36.3174 0.223184
740.702 34.259 -0.351119
248.161 33.5265 0.38653
15.3119 30.4365 0.154382
732.636 35.7177 -0.128232
561.846 41.239 0.431046
252.735 38.1792 0.0902505
763.237 30.501 -0.103578
166.963 9.09427 -0.186499
403.094 20.7547 0.266472
510.821 41.2008 -0.100655
455.302 19.1314 0.211942
866.018 46.4715 0.290981
468.66 3.308 0.41735
54.8279 24.9253 0.28747
517.916 30.8378 0.344244
478.558 40.2181 -0.354468
885.664 36.084 -0.21445
822.847 28.6514 -0.24939
597.98 18.0925 -0.149914
875.518 35.8672 0.406228
322.19 2.05203 -0.427913
416.213 28.3663 -0.456738
31.9559 37.8161 0.276985
829.299 30.308 -0.13789
677.556 19.9497 0.505285
510.059 0.78544 -0.474318
139.592 4.436 0.282367
469.625 39.2408 -0.0940549
13.5051 0.915139 -0.309947
909.084 5.43852 0.18252
407.141 38.052 0.189105
[...]
POINT_DATA 13483
TENSORS Strain_matrix float
-0.155613 -0.163741 0.524654 
0.0521304 0.0357508 0.450309 
-1.0735e-17 6.13061e-18 1 

-0.177235 -0.129151 24.1529 
0.0483509 0.256125 -20.7151 
1.40885e-18 3.49117e-18 1 

-0.0398947 0.0101116 0.557669 
0.00166228 -0.0750816 3.71299 
-1.12549e-17 -3.56776e-19 1 

-0.308523 -0.0951255 0.0351438 
-0.05709 0.0900711 0.241078 
9.04882e-18 1.55193e-17 1 

-0.0635173 -0.0297205 0.0263245 
0.0240061 -0.0799654 0.0382669 
-2.42802e-18 -1.27532e-17 1 

-0.0409106 -0.0156659 -0.141617 
0.00238954 -0.0368203 -0.364614 
-3.21683e-18 -6.92154e-18 1 

-0.0349659 -0.0367537 -0.119552 
-0.0217514 -0.0915591 0.0504037 
-5.98451e-18 2.64022e-19 1 

-0.0502605 -0.0778485 -0.312009 
0.0153671 -0.10538 -0.185734 
-9.24451e-18 -1.16689e-17 1 

-0.0556945 0.0135783 -0.0593812 
0.00256268 -0.026693 -0.0644398 
7.93411e-18 5.11878e-18 1 

-0.164903 0.00398674 0.185011 
0.0271178 -0.0282092 -0.0132783 
-6.69339e-18 -1.10097e-17 1 

-0.0221568 0.0233042 -0.0793808 
-0.0298436 -0.0830864 -0.00328571 
1.38369e-17 -4.53277e-18 1 

-0.0399715 -0.0455035 0.126113 
-0.0452796 -0.112854 0.103802 
4.66919e-18 -1.27754e-17 1 

-0.194884 0.194958 0.777869 
0.0138446 0.195215 0.238396 
-1.54112e-18 -5.25965e-18 1 

-0.0707218 -0.00315295 -0.3081 
0.0455922 -0.0294187 0.107541 
-3.27879e-18 6.37285e-18 1 

-0.0561462 0.0176638 0.559591 
-0.0144789 -0.0137783 -0.865374 
-3.60589e-19 -8.94711e-18 1 

-0.0363751 -0.036175 0.0164045 
-0.0177226 -0.0402354 -0.163485 
1.06053e-17 -1.03673e-18 1 

-0.0492114 -0.0201649 0.0802839 
0.0136513 -0.0836123 -0.026777 
1.43554e-17 -5.1381e-18 1 

-0.0811616 0.00346757 0.101251 
0.0199601 -0.0895733 -0.080273 
5.3249e-18 2.53064e-18 1 

-0.0451074 0.0107974 0.401612 
0.063825 -0.017733 0.343366 
-1.16331e-18 -3.93118e-18 1 

-0.0484978 0.0525806 0.166114 
-0.0702159 -0.125077 -0.00426114 
8.11355e-18 -1.41987e-18 1 

-0.0708204 -0.00610753 0.0584956 
0.0238319 -0.0174414 0.167257 
-6.47985e-20 -4.25078e-18 1 

-0.0610192 -0.054806 -0.473709 
1.7524e-05 -0.0557717 0.0495694 
-4.50012e-18 1.36075e-17 1 

-0.524114 0.185682 -3.91184 
-0.284635 0.31363 -3.21304 
-4.41979e-19 4.61131e-18 1 

-0.0783216 0.0583041 0.516208 
-0.0540011 0.00144631 -0.0030562 
2.97498e-18 -1.68979e-17 1 

-0.0408469 -0.0233034 -0.0954782 
0.0756602 -0.0530637 0.215978 
-4.31444e-18 -1.15809e-18 1 

-0.0138611 0.0470996 0.164377 
-0.0710936 -0.0301061 -0.0729768 
5.64284e-18 -7.8857e-18 1 

-0.0573595 -0.0112246 -2.44876 
0.00621172 -0.0496818 -2.32304 
2.62158e-18 4.46727e-18 1 

-0.146003 -0.142424 -0.161196 
0.071891 0.0315361 -0.53099 
5.41203e-19 -2.7542e-18 1 

-0.0520085 0.0210278 -0.18458 
0.0384146 -0.0883019 0.55153 
1.81986e-18 6.63369e-18 1 

-0.0929114 -0.00479977 0.0959979 
0.0252776 -0.0185611 0.0136209 
-1.0618e-17 -6.06345e-18 1 

-0.045715 -0.0252908 -0.294223 
-0.0196844 -0.167145 0.452543 
-1.38642e-17 6.56723e-18 1 

-0.0371393 0.057855 0.029949 
0.115515 -0.118525 0.27591 
2.2754e-18 5.14516e-18 1 

-0.0981454 -0.26452 -0.878127 
0.214914 0.0569625 -0.164605 
-1.09477e-17 -1.80277e-18 1 

-0.0493201 0.0235039 -0.844366 
-0.0155992 0.00918749 -1.70074 
-3.64126e-18 3.99648e-17 1 

0.00112784 0.0140442 0.0046905 
-0.0464956 -0.0395047 0.0649331 
7.86589e-18 2.34141e-18 1 

-0.0513258 -0.0283114 -0.306276 
-0.0722722 0.00533759 -0.0782679 
4.43164e-18 -5.35693e-19 1 

-0.0504986 0.0302736 -0.930899 
0.00274215 -0.0500778 0.0659341 
-2.0521e-19 -7.01133e-19 1 

0.0205831 0.0651019 -0.434655 
-0.151102 -0.101444 0.36046 
1.00119e-17 -5.19497e-18 1 

-0.0749905 -0.0391841 -0.0514833 
0.165298 -0.0548636 0.0823012 
-3.82962e-18 3.62262e-18 1 

-0.0291027 0.0134195 0.020751 
-0.000731781 -0.0655393 0.0341549 
1.49027e-17 -3.33821e-18 1 

-0.092699 0.0785473 -0.0846225 
-0.0995813 -0.0379075 0.0599361 
-1.20191e-17 8.46698e-19 1 

-0.0309862 -0.0207546 -0.25673 
-0.021827 -0.0578026 0.456345 
3.37612e-18 5.69603e-18 1 

-0.139652 -0.0795879 -0.167026 
-0.0013769 -0.0504156 0.131901 
5.16404e-18 -4.94335e-18 1 

-0.0238647 -0.029539 0.122619 
0.00594696 -0.090879 -0.0807533 
3.02796e-18 -2.45347e-18 1 

-0.0276998 0.0369981 0.0128 
-0.0360044 -0.104696 0.144531 
-2.12928e-19 3.10874e-18 1 

-0.0204853 0.00665541 -0.0476834 
0.0194106 -0.0955602 -0.0131631 
-1.72088e-18 -1.59847e-17 1 

-0.168715 0.0143196 0.286615 
-0.041776 -0.0424575 -0.75956 
3.82855e-18 -2.46729e-18 1 

-0.0262551 -0.0101113 0.0836492 
-0.00932868 -0.12848 -0.0718971 
-3.72194e-18 -5.84876e-18 1 

-0.100653 -0.0104175 0.063388 
0.00117917 0.0197945 0.0947289 
-5.73297e-18 4.82777e-18 1 

-0.246296 0.0341489 -0.398544 
-0.00571123 0.0840739 -0.486863 
5.66539e-18 5.25748e-18 1 

-0.0415234 -0.0741791 -0.28917 
-0.030601 -0.024886 0.427208 
2.58451e-18 -2.06761e-19 1 

-0.0907178 0.0701338 0.0457785 
0.00687555 0.0488347 -0.240266 
1.79041e-18 4.36366e-18 1 

-0.0744042 -0.062902 0.0324098 
0.0355098 -0.01781 0.00728445 
-2.51889e-18 -1.32738e-18 1 

-0.0804443 0.0173059 0.0680662 
0.00128401 -0.0604385 -0.0885567 
8.82343e-18 -1.32351e-17 1 

-0.0472949 -0.00928331 0.0452755 
-0.00830188 -0.143529 -0.236344 
-1.25016e-17 2.96969e-18 1 

-0.0348597 -0.0480463 -0.255586 
0.000930913 -0.0370851 -0.396499 
-3.22192e-18 2.20791e-18 1 

-0.0496796 -0.0155246 0.0861666 
0.0618157 -0.0342832 0.16061 
9.5581e-18 1.04034e-18 1 

-0.0542685 0.0824435 -0.396296 
0.00675475 -0.0778401 0.0132697 
6.24216e-18 -5.0394e-17 1 

-0.0173257 0.023886 -0.0562076 
0.00726647 -0.141399 0.179908 
-1.09317e-17 3.56175e-18 1 

-0.0668256 -0.0171736 -0.0438373 
-0.0480375 -0.0663842 0.0672537 
8.67104e-18 1.33445e-17 1 

-0.0564723 0.191335 -0.0333135 
0.0204355 0.114128 -0.0588695 
-8.93228e-18 -3.20286e-17 1 

-0.0344742 -0.0105549 -0.349099 
-0.0401252 0.00206157 -0.132682 
6.33767e-18 4.42128e-18 1 

-0.0493022 -0.021762 -0.161628 
0.00182333 -0.0394288 -0.0280887 
-9.70736e-18 5.10319e-17 1 

-0.0864132 -0.0560303 -0.185839 
0.0137764 -0.0603505 0.246636 
4.23928e-19 -1.95659e-19 1 

-0.0262936 0.00617251 0.173426 
0.0213358 -0.00741314 0.0364878 
7.06341e-18 6.55888e-18 1 

-0.0398298 -0.0223623 0.129694 
-0.0168066 -0.10843 0.271891 
-1.93001e-17 1.72389e-17 1 

-0.124346 0.065732 -0.0108456 
0.0360007 -0.115814 -0.112314 
3.23696e-18 1.40501e-17 1 

-0.152971 -0.0871205 -0.235476 
0.100598 0.0725674 1.18658 
-1.2239e-18 5.0284e-18 1 

-0.0701536 0.0051803 0.168806 
-0.0395453 -0.0969036 0.758745 
-1.00282e-17 5.69988e-19 1 

-0.113435 -0.0122408 0.00872013 
-0.0217377 -0.0787376 0.0792327 
1.01045e-17 1.08748e-18 1 

-0.088708 0.233621 0.424931 
-0.184841 0.03252 0.320842 
4.33092e-18 -1.57488e-19 1 

-0.0227888 -0.00501302 0.00913834 
-0.0107584 -0.0814738 0.0526102 
2.29365e-18 6.96409e-18 1 

-0.0444258 -0.0424079 -0.161536 
-0.0393 -0.0440748 0.212854 
-1.18817e-17 4.20145e-18 1 

-0.0402352 0.0294237 -0.0989732 
-0.0975867 -0.0531203 0.125038 
-8.16821e-18 -9.03439e-18 1 

-0.0597667 0.00964901 -0.169823 
0.0103281 -0.0524586 -0.4636 
-4.24357e-18 -1.61188e-18 1 

-0.0352309 -0.00139519 0.0870592 
-0.0293741 -0.105537 0.0483846 
-8.415e-18 5.24199e-18 1 

-0.158989 -0.0887432 1.45757 
0.277327 0.136648 3.92885 
-9.41922e-18 6.91621e-19 1 

-0.0424486 -0.0625345 -0.100543 
0.111201 -0.0774272 0.669293 
5.22498e-18 5.10835e-19 1 

-0.205137 -0.0042319 -0.27586 
0.01906 0.0209412 -0.0412362 
-8.5881e-19 5.18299e-18 1 

-0.154316 -0.028561 0.536047 
0.00432754 0.0530059 -0.196157 
-1.69612e-18 1.49606e-17 1 

-0.136085 0.210499 -0.352448 
-0.18821 -0.0423123 0.135992 
-7.66979e-18 -1.06563e-17 1 

-0.0143582 -0.0147472 -0.0467106 
-0.00929681 -0.0277404 -0.232999 
4.16258e-19 -3.16494e-18 1 

-0.0140265 0.040214 0.0445602 
-0.0385139 -0.0444957 -0.000386935 
2.83027e-18 -2.04784e-18 1 

-0.185195 0.0420974 -0.146264 
-0.00793156 0.0611306 0.0563959 
-8.67252e-18 9.85083e-19 1 

-0.188462 -0.121934 0.238845 
0.181879 0.0148389 0.355975 
-1.68671e-17 4.74772e-18 1 

-0.581054 -0.502197 -0.16263 
-0.167403 0.302368 0.507438 
1.09065e-18 2.83685e-18 1 

-0.266865 -0.326959 -1.47498 
-0.0261074 0.241103 1.2178 
-4.77895e-19 7.96265e-17 1 

-0.0644084 0.0415654 0.374322 
0.0230267 -0.0891918 -0.441217 
-2.90114e-18 9.24738e-18 1 

-0.0972079 -0.0509539 -0.0925722 
0.0461932 -0.0644557 -0.0281707 
-3.97275e-18 -8.81454e-18 1 

-0.0624889 0.0186856 0.0146382 
0.00163739 -0.0751255 -0.301931 
3.46728e-18 -8.27719e-18 1 

-0.0649579 -0.0765691 -0.0930743 
-0.0282924 -0.0456881 -0.107821 
4.84824e-18 5.8914e-18 1 

-0.0253759 0.0356752 -0.0209461 
0.0268134 -0.0768149 0.199007 
-2.90903e-18 1.44269e-17 1 

-0.207993 0.194537 3.43821 
0.0963357 0.0041086 0.784422 
1.0295e-19 -2.57376e-19 1 

-0.0448908 -0.0301536 0.172043 
-0.0177181 -0.0726258 -0.0617512 
-2.86854e-18 1.56911e-18 1 

-0.0493486 0.0376989 -0.790323 
0.0319493 -0.0137152 -0.130399 
-3.54932e-18 2.31078e-18 1 

-0.0532649 -0.00679037 0.0531961 
-0.00847352 0.198603 -0.429416 
2.99681e-18 7.15891e-18 1 

-0.0614122 0.0398885 -0.387416 
0.00509499 -0.0475001 0.289237 
1.25877e-17 7.11578e-18 1 

-0.183074 0.111266 -0.0911388 
-0.0403938 -0.0543051 0.146267 
8.55352e-18 1.07338e-17 1 

-0.0810181 -0.108012 0.000654991 
0.0708434 -0.00248608 -0.0458751 
-2.86569e-18 -9.55231e-19 1 

-0.0218613 0.0271335 -0.0371862 
-0.0620164 -0.0796403 0.0970617 
-8.27271e-18 1.95878e-18 1 

-0.0561737 -0.0345994 0.886845 
0.00657884 -0.0132587 2.35102 
-3.00917e-18 -7.78093e-18 1 

-0.0842921 -0.0142714 0.281856 
0.00978449 -0.00547847 0.305281 
1.15219e-18 -1.68289e-18 1 

-0.0439955 0.00893567 2.54454 
-0.000650491 -0.0729279 6.41904 
-7.19355e-19 -1.25353e-18 1 

-0.0548249 -0.0311388 0.0603105 
0.0119105 -0.0430975 -0.0985921 
-7.16489e-18 -1.32333e-19 1 

-0.0427389 -0.0196827 -0.037206 
0.00917643 -0.102865 0.348957 
8.81932e-19 -7.66602e-18 1 

-0.0756783 0.0124497 0.228411 
0.0116196 -0.0661612 0.0634774 
-1.40759e-19 -1.07489e-18 1 

-0.236215 0.172289 0.334523 
-0.0422651 -0.0184065 -0.226507 
2.0985e-18 -8.99357e-18 1 

-0.0354472 0.0350617 -0.402682 
-0.0329092 -0.0324813 0.302897 
-3.21601e-18 1.02096e-18 1 

-0.0605406 -0.00347362 0.003825 
0.0140301 -0.0967864 0.0492232 
-2.20988e-18 -1.56387e-17 1 

-0.0733466 0.0192387 -0.438441 
0.010568 -0.0734533 0.405835 
1.45636e-17 -8.66615e-18 1 

-0.0532957 0.0234922 1.6727 
0.00103987 -0.0201495 5.54642 
6.33121e-18 3.22334e-18 1 

-0.00490099 0.0918559 0.782075 
-0.0111534 -0.0953206 -0.299329 
-3.25823e-18 -9.72037e-18 1 

-0.0320386 0.0209452 0.0107025 
0.00871198 -0.100305 0.0783624 
3.07331e-18 0 1 

-0.109674 -0.0813302 -0.668781 
0.0364704 0.0623537 -1.56767 
-2.59335e-18 -5.86496e-18 1 

-0.0268465 -0.120222 0.00757265 
-0.10238 -0.0549939 -0.21802 
-7.90002e-19 1.22168e-17 1 

-0.0460843 -0.0187107 -0.111343 
-0.00567794 -0.024637 0.479277 
-5.23514e-18 5.1848e-18 1 

-0.0262823 -0.0450479 0.396791 
0.0664143 -0.0565745 0.242593 
1.13931e-17 -1.03836e-17 1 

-0.0477161 0.0265786 -0.0373404 
0.0200613 -0.0465555 0.0366687 
6.54132e-19 7.4758e-18 1 

-0.0736373 0.0740473 0.0289705 
-0.0970897 -0.0175651 -0.0768149 
1.36346e-18 -8.05684e-18 1 

-0.0513029 0.0273112 -0.072815 
-0.0125917 -0.00752017 0.0729649 
2.07217e-18 -1.53933e-17 1 

-0.150244 0.0863244 -0.0389464 
-0.0038705 -0.122953 0.0325894 
5.52889e-18 -5.98421e-18 1 

-0.17941 0.106919 -0.0197581 
-0.070289 -0.00411727 -0.367404 
2.39592e-18 -7.91381e-18 1 

-0.0495775 0.0216264 0.0516337 
-0.0296663 -0.00248428 -0.096165 
5.60638e-19 2.09693e-18 1 

-0.0598162 -0.0405273 0.0328847 
0.0722814 -0.0317565 0.0252092 
8.69161e-18 2.66399e-18 1 

0.000138847 -0.0378339 1.40004 
-0.00920368 -0.109368 0.719724 
-8.56033e-18 7.77613e-18 1 

-0.0512371 0.00853918 -0.153674 
-0.0228232 -0.130369 0.00880004 
-3.22389e-18 -1.2438e-17 1 

-0.105418 -0.0301571 -0.0024303 
0.0107391 -0.00591364 -0.017157 
-8.35291e-18 -1.42039e-17 1 

-0.0578351 0.0318294 -0.0397926 
-0.014767 -0.0585545 0.100991 
1.07133e-19 -1.04455e-18 1 

-0.028762 -0.0115665 0.0609661 
-0.026693 -0.0590538 -0.115075 
-7.10725e-18 3.86718e-18 1 

-0.0358708 0.0194168 0.689853 
-0.0289596 -0.0797519 0.698317 
9.63569e-18 1.30543e-18 1 

-0.0568465 0.0116184 -0.148827 
0.010591 0.0249543 -0.0412885 
-1.81487e-18 -3.2921e-18 1 

-0.166786 -0.0144763 -0.487596 
0.0271621 0.0672023 0.140801 
-6.07373e-18 -6.73181e-18 1 

-0.038798 -0.00698963 -0.0353617 
-0.00329872 -0.0446546 -0.242881 
-6.33383e-18 3.10631e-18 1 

-0.21366 0.14853 -0.118295 
0.117058 0.0353284 -0.221322 
1.56568e-18 5.28418e-18 1 

-0.0715785 -0.00280832 0.0694746 
-0.0183934 -0.00653734 0.533795 
-7.78672e-18 -4.05374e-18 1 

-0.0355509 0.0302615 -0.183584 
-0.0466387 -0.0215629 0.0791675 
-2.26526e-18 4.19621e-18 1 

-0.192764 -0.0567586 0.206038 
0.32214 0.0769231 1.13575 
-7.26159e-18 -6.07527e-18 1 

-0.0490573 -0.0106474 0.0958115 
0.0547182 -0.0418108 -0.470835 
1.41126e-17 -2.16452e-18 1 

-0.0435648 0.0713874 0.0160089 
-0.0158321 -0.0827704 0.110975 
-1.12985e-18 2.05255e-18 1 

-0.0538842 0.0218598 -0.243557 
-0.1325 -0.0963173 -0.421091 
6.80001e-18 8.16001e-18 1 

-0.0779428 -0.0156131 -0.0825889 
0.027231 -0.0425033 -0.329568 
1.62866e-17 7.60961e-18 1 

-0.0318822 -0.00674426 -0.150689 
0.0510613 -0.0466355 0.0617922 
-9.23926e-18 1.30381e-17 1 

-0.0301334 -0.0344182 -0.0764542 
0.0726817 -0.0631318 -0.0141432 
-4.00225e-18 2.71439e-18 1 

-0.0345244 -0.023129 -1.06315 
0.011032 -0.0425323 -0.094947 
-6.94591e-18 -1.42059e-17 1 

-0.0360779 -0.00272601 0.0450738 
-0.0240121 -0.0445889 -0.0711031 
3.98621e-19 7.0192e-18 1 

-0.115534 -0.203936 -0.130238 
0.20851 0.0623916 -0.0549311 
-5.11654e-18 -6.58477e-18 1 

-0.164744 -0.00049532 0.273639 
-0.035876 -0.0801211 -0.0172028 
-9.43032e-20 3.08843e-18 1 

-0.0983445 -0.0270536 -0.316033 
0.0194885 -0.090539 0.100931 
2.11155e-18 -2.8154e-19 1 

-0.0526909 -0.0558967 0.0322263 
0.0584703 -0.0668138 -0.0153929 
8.72906e-18 -7.35009e-18 1 

0.0023663 0.0778215 -0.0386494 
0.104969 -0.0417929 -0.330096 
4.83229e-18 5.26507e-18 1 

-0.0328726 -0.0120241 1.12625 
0.0561269 -0.0462008 -0.171607 
3.99724e-18 -2.40634e-18 1 

-0.109632 0.0378568 0.0239934 
0.0884089 -0.0329362 -0.301628 
-3.17227e-18 -5.34582e-18 1 

-0.0122717 -0.0327964 0.386217 
0.0143188 -0.0939524 0.0647058 
-8.05238e-19 2.26828e-19 1 

-0.0396694 0.00977378 -1.54888 
0.00297104 -0.0471073 1.35493 
1.14676e-18 4.27975e-18 1 

-0.04801 -0.0313208 -0.489657 
0.0101425 -0.0831848 0.26687 
5.41647e-18 -4.98775e-18 1 

-0.0611745 0.0408328 -0.527518 
0.017188 -0.00550357 0.433428 
2.75744e-18 3.49622e-18 1 

-0.128321 -0.117441 -0.903483 
0.0810443 0.0602202 0.544987 
-9.17595e-18 -1.21278e-17 1 

-0.0151523 -0.00417904 2.65561 
-0.0546957 -0.0653272 5.59193 
-1.29702e-18 -5.12288e-18 1 

-0.0988629 0.00524658 0.715693 
-0.0339674 0.14523 -0.992777 
1.06382e-18 1.19481e-17 1 

-0.178412 0.0793816 0.0322542 
0.00130654 -0.0860254 0.274055 
-7.14848e-18 -1.40322e-17 1 

-0.105014 -0.144578 -39.5653 
-0.00754714 0.0419183 8.13509 
-6.01242e-19 -1.53788e-18 1 

-0.0776274 -0.0394313 -0.209072 
-0.0325579 -0.0903389 -0.0756309 
1.08136e-18 -2.00383e-17 1 

-0.0715771 -0.00159628 -0.128201 
0.0808908 -0.0273115 0.639156 
8.07732e-18 -1.62136e-18 1 

-0.083151 -0.029702 1.88839 
-0.0167392 0.0142832 -2.68083 
-1.05132e-18 -4.04244e-18 1 

-0.122804 0.0105648 -0.270122 
0.0884567 -0.0203806 -0.622703 
2.68708e-18 2.55272e-18 1 

-0.283092 0.0817245 -0.118226 
-0.107699 -0.0111321 0.171674 
-3.10896e-18 3.55309e-18 1 

-0.0615632 -0.0353708 0.218324 
0.00149986 -0.0314985 -0.0358338 
7.71716e-19 1.24251e-18 1 

-0.0738152 -0.0434969 0.0828279 
-0.0328223 -0.0471489 -0.0179496 
1.69745e-19 3.12614e-18 1 

-0.0292864 -0.0405651 -0.226252 
0.00624068 -0.112926 0.125832 
-3.78999e-18 -4.93794e-18 1 

-0.00857107 -0.0131531 0.333918 
-0.0153858 -0.125104 -0.69293 
-2.52312e-19 6.66321e-18 1 

-0.0280023 -0.00607312 0.0338236 
0.00194644 -0.0869533 0.161272 
-2.25376e-18 -1.65794e-18 1 

-0.0394882 0.0417271 0.105921 
0.00744255 -0.0270696 -0.0287958 
-1.90793e-18 4.68073e-18 1 

-0.011592 0.0319464 -0.0135394 
0.0535026 -0.0777804 -0.309447 
4.21387e-18 1.73437e-19 1 

-0.0591141 0.00845501 0.781477 
-0.00965932 -0.0143695 -0.221163 
-9.61847e-19 7.18683e-19 1 

-0.0727593 -0.0135074 -0.039373 
0.0486725 -0.0208333 0.0584469 
-1.36421e-18 3.84687e-18 1 

-0.078974 -0.00727088 0.0981333 
-0.0339365 -0.0515595 0.707909 
1.1922e-17 1.34832e-18 1 

-0.443281 -0.0945969 0.0318174 
-0.00437231 0.191982 0.279332 
-4.50703e-18 -2.74341e-18 1 

-0.0540577 0.0164377 0.0283883 
-0.0264582 -0.0801326 -0.139714 
-2.61347e-18 1.85024e-18 1 

-0.00266149 0.058395 0.514571 
-0.0665099 -0.0750543 -1.07968 
5.96605e-18 5.53991e-18 1 

-0.0750082 0.0595614 -0.00532969 
-0.0358135 -0.0901207 -0.0469322 
5.83342e-18 9.09695e-19 1 

-0.0538181 0.102106 -0.221751 
-0.136249 -0.0340325 0.182692 
-2.43882e-18 -1.14625e-17 1 

-0.08283 -0.0137584 0.0348185 
-0.0494363 -0.17743 0.17835 
4.95435e-18 -8.43294e-19 1 

-0.039064 -0.00815711 -0.0248595 
-0.0324559 -0.0709069 0.0139896 
1.33887e-17 -8.54867e-18 1 

-0.0498484 -0.0103636 0.394096 
0.0182776 -0.0824465 0.380914 
-2.27344e-18 6.54552e-18 1 

-0.115157 -0.0231215 0.0666426 
0.0911194 -0.0517754 -0.354879 
3.19791e-18 5.32984e-18 1 

-0.0623969 0.00981045 0.0432788 
-0.0719525 -0.0620161 0.140671 
-4.72266e-18 5.50977e-18 1 

-0.0606372 -0.0218702 0.317559 
-0.053845 -0.0572683 0.309916 
-2.23702e-18 -1.41729e-18 1 

-0.124157 -0.132616 0.170433 
0.14063 0.0060245 0.0212444 
3.43437e-18 3.73005e-18 1 

-0.0320409 0.0145159 -0.0918952 
-0.0246285 -0.0735861 -0.0524565 
-7.56274e-19 8.28508e-18 1 

-0.198209 -0.0616294 0.139902 
0.0528555 -0.00990088 0.227158 
-1.61133e-18 -5.89142e-18 1 

-0.0811714 -0.0884209 -0.015298 
0.107345 -0.0333522 -0.200061 
-3.64611e-18 -2.48246e-18 1 

-0.0586335 -0.072991 -0.0161275 
0.0465107 -0.0645121 0.0235811 
5.45596e-18 8.61468e-19 1 

-0.174733 -0.0774642 -0.14876 
0.0756682 -0.00324066 -0.162592 
6.74467e-18 -2.70638e-17 1 

-0.153588 -0.158943 0.329092 
0.0976931 0.0672935 0.449493 
2.84888e-18 -5.8809e-18 1 

-0.167557 0.0510151 -0.162379 
-0.360142 -0.0457461 -0.500212 
-8.0975e-18 1.21096e-18 1 

-0.0435491 0.0540591 0.377362 
-0.0290969 -0.0428701 -0.257779 
-4.38539e-18 1.28478e-18 1 

-0.0366714 0.00828676 -0.163734 
0.0584854 -0.0978533 -0.375356 
6.38899e-18 9.12713e-18 1 

-0.0204588 0.0692019 0.152785 
-0.0619979 0.0964378 0.283762 
2.19179e-18 -1.15357e-18 1 

-0.0569923 -0.0239832 -0.0231129 
-0.0435664 -0.0759728 0.250917 
-8.09371e-19 1.10693e-18 1 

-0.104125 -0.0258837 0.0507225 
0.0519078 -0.0200561 0.584793 
-8.97155e-18 2.61211e-18 1 

0.0117035 -0.0369799 -0.178821 
-0.0704038 -0.133832 0.192912 
-6.21342e-18 -9.52389e-19 1 

-0.0411113 0.0178472 0.117235 
-0.0148866 -0.0568707 -0.0990444 
1.16416e-18 5.5711e-18 1 

-0.155414 0.183829 -0.0373673 
-0.212771 0.0118172 0.0737561 
-1.29007e-17 -2.26327e-18 1 

-0.0942192 -0.108756 0.0520292 
-0.0110316 0.0125413 0.367954 
-4.4444e-18 -1.06042e-17 1 

-0.0597737 0.00142144 0.0799886 
0.0582245 -0.0501721 0.146177 
-1.09909e-18 -1.15004e-17 1 

-0.0269154 0.0185344 -0.0704034 
-0.0508802 -0.0461552 -0.222417 
2.66819e-18 -3.51159e-18 1 

-0.0669651 -0.0363774 0.549795 
-0.00258029 -0.0341564 0.374499 
-1.89385e-18 -4.43241e-18 1 

-0.0696318 0.00256637 -0.0301927 
0.0549261 0.0108294 0.18957 
-5.4805e-18 -5.60506e-18 1 

-0.253813 0.19308 -0.534557 
0.0956381 0.0970254 0.714789 
-6.40712e-18 1.22889e-18 1 

-0.141388 0.0284205 0.385961 
-0.0819498 0.0525377 0.0688126 
5.50512e-18 -3.68188e-18 1 

-0.0254907 0.0124782 -0.144206 
-0.0449239 -0.0574407 -0.228567 
-4.06289e-18 8.50373e-19 1 

-0.089624 -0.00576997 -0.0838726 
0.00825787 -0.0567294 -0.493599 
-4.34709e-18 -3.6032e-18 1 

-0.0372154 0.0341223 -0.0307505 
0.0148541 -0.0648798 -0.15933 
-9.79061e-18 1.8192e-17 1 

-0.0350883 -0.0122963 0.720275 
-0.0174534 -0.0449813 -0.505565 
3.1782e-18 -1.45601e-17 1 

-0.0906718 0.0577598 -0.148824 
-0.00729129 -0.00415561 -0.021527 
7.21502e-18 -1.84898e-18 1 

-0.0501782 -0.0167971 -0.191417 