# vtk DataFile Version 3.0
Output file generated by Yade's KinematicLocalisationAnalyser
ASCII
DATASET UNSTRUCTURED_GRID

POINTS 13483 float
638.026 29.614 -0.41251
807.801 59.4184 -0.554456
124.566 6.05805 -0.473286
833.983 5.20674 0.275947
520.104 7.72286 -0.283439
327.107 35.2623 -0.454362
162.469 6.85974 0.426034
595.42 10.6533 0.103344
517.295 23.3468 -0.158941
755.111 14.1182 -0.374346
218.543 8.75727 -0.115816
266.904 6.27108 -0.268905
684.753 30.9926 0.159968
664.622 15.497 0.0908052
142.225 17.3745 -0.452924
229.946 34.5195 -0.39001
225.937 12.8973 -0.260548
300.282 9.54641 0.379473
354.683 32.8486 0.445429
546.95 8.49954 0.368325
428.004 35.9749 0.105201
617.808 44.9674 0.265016
832.821 42.3987 -0.510227
732.832 48.6735 -0.0500858
477.815 16.3847 0.290502
250.194 44.1685 0.123027
512.049 27.9572 -0.460185
612.381 20.4472 0.285109
46.7379 15.8537 0.46312
754.038 37.354 -0.316959
502.451 4.8308 0.330863
17.0324 23.2107 0.278432
821.603 58.6433 0.264175
515.982 2.48637 0.480319
81.2686 44.255 0.100311
544.291 30.4143 0.32437
553.543 16.5433 -0.413663
357.579 22.3257 -0.169096
557.517 25.7467 -0.302876
365.298 33.7889 -0.391238
250.657 14.3865 -0.313829
452.659 37.4606 0.0785116
709.615 6.4865 0.18038
200.249 6.19152 0.375407
57.5444 7.02336 -0.108487
71.1592 8.97158 0.287884
726.149 8.50974 -0.552896
24.4658 11.7855 0.276138
639.432 46.0183 0.384556
712.119 26.5496 -0.321629
178.923 32.5158 0.298931
798.912 46.6578 0.125637
36.4258 27.9334 -0.11163
557.517 3.02387 0.317194
147.53 7.19528 -0.475461
620.993 34.2107 0.379209
525.455 27.3774 0.137249
181.708 0.960644 0.262407
34.1173 2.42215 0.290712
363.048 17.8224 0.260075
651.417 48.5468 -0.13554
481.77 34.3676 -0.171196
416.133 1.03517 0.193465
735.661 8.00847 -0.404326
27.7247 42.8197 -0.235269
266.961 30.1234 0.291753
755.418 9.06513 0.266979
707.577 49.736 0.41119
435.426 8.59232 -0.491895
596.204 3.85369 -0.312089
785.128 38.7582 0.39071
135.778 7.67614 0.273931
520.164 25.2119 -0.135523
498.205 14.9463 -0.130884
306.616 16.6535 -0.341253
21.4786 13.5815 -0.272467
822.97 49.5295 -0.3193
346.445 38.9738 -0.293759
709.931 25.7314 0.357757
724.908 13.8994 -0.228375
825.329 18.8764 -0.23381
485.257 34.9821 -0.166314
96.4233 38.4903 -0.269629
722.141 39.6714 -0.222105
684.351 41.6298 0.0906379
837.514 47.4171 -0.106688
820.208 0.694366 -0.58823
302.951 28.4521 0.475281
653.812 6.25006 -0.108933
25.3197 5.28118 0.499214
138.418 38.7309 0.145096
536.37 13.8236 0.201217
808.591 34.5412 -0.519363
203.543 28.4346 -0.250899
46.3139 34.4694 -0.286469
514.893 1.15698 0.129083
245.516 8.75104 -0.39308
782.465 57.0362 0.0872478
800.799 31.0115 0.2419
377.281 20.5534 -0.270912
170.696 26.8724 -0.443831
576.143 41.5899 -0.493023
396.804 15.162 -0.47506
432.981 29.1221 -0.0941712
394.961 4.42427 0.406082
574.236 10.7251 -0.095003
839.756 11.6659 0.182771
83.5985 39.2512 0.380586
350.231 4.82311 -0.180908
588.797 9.57845 -0.403
376.331 44.2873 0.439106
26.5409 24.3403 -0.47002
31.7766 5.68811 0.307528
595.392 34.2271 0.403932
528.818 25.2246 -0.144166
27.5815 36.728 0.420434
97.2863 30.7074 0.223245
339.597 15.8753 -0.287918
632.097 18.4218 -0.111246
497.642 38.3832 0.291783
771.383 9.91215 -0.384249
764.089 6.14083 0.201389
405.182 37.0119 -0.0992475
669.024 27.8019 -0.0926496
248.943 17.133 -0.481926
345.252 3.70832 0.462152
107.924 31.802 0.31656
121.703 24.6088 -0.262643
571.328 40.8669 -0.067958
320.383 18.9691 0.482087
749.032 39.7494 -0.106339
712.183 49.9177 -0.11511
504.929 19.9067 -0.381608
807.301 11.5223 0.344872
450.391 23.8205 -0.224558
289.891 24.3871 -0.292687
712.02 38.1501 -0.278526
292.096 29.1656 0.379974
606.971 12.0504 0.182255
348.061 35.9571 -0.192546
530.083 11.3171 0.495553
384.584 31.5634 -0.0844492
452.426 16.7191 -0.100764
333.461 42.0382 0.434896
199.518 29.7839 -0.118976
812.425 58.0295 0.170555
836.719 13.4338 -0.26341
6.09152 12.0375 -0.449989
456.054 22.6291 -0.399234
40.2109 22.3956 -0.0823555
395.123 31.3753 -0.485099
415.035 24.586 -0.260456
78.3422 11.9406 -0.512522
54.3217 33.7625 -0.441105
236.812 13.5187 0.438499
653.576 42.3201 0.422088
609.586 21.3751 -0.427893
78.1828 21.3223 0.497648
736.83 50.7693 0.406074
794.827 2.12646 -0.550364
701.515 43.8311 0.48525
731.737 1.99376 -0.520651
580.244 28.8536 -0.431014
619.429 44.9912 -0.448263
539.391 18.1101 -0.374298
832.518 3.84702 0.227891
234.47 24.9694 -0.132342
133.999 35.5881 -0.188863
259.445 6.61247 -0.374736
99.1332 4.18277 0.280299
67.3824 9.98386 0.221422
289.955 36.287 -0.306829
17.2752 25.0974 -0.35408
586.563 19.9994 0.42587
639.976 40.9649 0.224473
487.499 21.375 -0.370134
833.887 62.444 -0.363644
428.363 8.50654 0.0849015
459.025 38.0668 -0.438049
566.172 3.45641 -0.186604
23.8329 23.9055 -0.398771
608.917 4.49737 0.445167
576.316 4.26211 -0.298235
216.687 11.1979 0.479655
448.138 16.113 0.190943
327.562 6.23139 0.352096
408.635 18.9535 -0.327072
775.425 50.3091 0.0960414
201.702 25.644 -0.422306
816.089 6.41852 0.338049
776.861 46.7726 -0.321913
403.729 10.2506 -0.157894
752.994 2.4046 0.413846
641.321 24.794 -0.40977
775.668 22.2372 -0.413401
454.08 44.507 -0.277864
524.483 12.626 0.396289
490.777 44.8451 0.218297
470.01 8.836 -0.14741
705.24 43.5227 0.277646
703.385 39.7903 -0.313974
202.019 38.8511 -0.27895
823.175 19.2916 -0.113104
621.751 45.6116 -0.249292
11.835 16.9009 -0.176247
430.358 24.9524 0.329593
196.722 23.0903 0.41539
98.0514 39.5559 -0.207621
806.182 30.7463 0.514249
698.652 48.8661 -0.230645
336.27 25.5242 0.349966
562.96 10.2541 0.311313
86.5758 44.3779 0.165688
260.741 25.6861 -0.470338
587.917 24.9101 0.385072
513.811 19.4302 0.381978
276.635 0.898225 -0.343832
585.072 42.9836 -0.384021
564.264 41.8985 0.477382
508.807 33.5853 0.381219
527.31 0.793007 -0.50511
741.704 20.6173 -0.446604
188.847 12.0201 -0.170685
529.028 37.0758 0.443369
596.963 41.0401 0.13442
76.7072 0.914594 -0.257754
265.048 4.65762 0.179234
836.583 15.5072 0.188775
826.111 20.6261 -0.438426
841.853 19.1433 -0.476504
319.876 8.53557 -0.235872
783.82 25.2358 -0.413748
429.819 41.0409 0.355611
474.247 0.80516 -0.396604
689.364 38.1263 -0.405133
28.4552 30.3328 0.324379
348.598 40.7752 -0.474104
265.969 2.81531 0.322529
825.471 57.3618 -0.187994
747.651 53.231 -0.238818
302.982 10.8413 0.226619
704.608 32.8617 -0.0835706
590.859 2.59728 0.225162
574.012 6.33944 0.425852
101.908 18.45 -0.500751
319.712 1.03254 -0.223667
362.132 2.2897 -0.352062
14.7444 7.63852 -0.347235
4.53885 31.394 -0.24977
170.571 18.8888 -0.361565
72.0077 41.5542 -0.217975
70.2911 28.8383 -0.317638
447.802 14.3956 -0.408389
387.692 35.1951 -0.41287
799.569 48.8411 -0.112779
20.6408 4.03457 -0.26591
74.3018 6.95886 -0.127522
663.409 40.6854 -0.161713
310.841 0.916964 0.354011
384.969 15.9447 -0.106692
248.321 4.65368 -0.381027
691.942 22.8628 0.181288
477.287 8.57492 0.410997
785.78 23.0516 -0.408065
667.991 31.0609 -0.31321
709.026 20.3362 -0.0733117
445.272 26.5449 0.466151
107.794 45.0852 -0.30632
574.389 45.1942 0.0719241
771.718 18.2406 0.215072
250.833 30.2475 -0.234711
33.6487 16.5574 -0.170515
355.186 13.8243 0.480746
113.466 40.5326 -0.488075
282.557 42.485 -0.199289
449.912 1.09579 -0.22761
816.968 42.8201 0.43322
725.51 0.741459 -0.519743
350.806 3.20368 0.520913
316.663 26.8095 -0.144586
489.367 41.7098 0.215701
85.912 7.90306 0.400556
208.571 44.8013 -0.37838
800.692 37.7185 -0.411478
524.149 39.4892 0.0764985
210.988 40.9412 -0.262338
169.407 42.355 0.29225
841.306 40.7282 -0.463524
838.068 12.1257 -0.568189
643.702 2.71223 -0.476344
200.348 24.4213 -0.0917491
582.315 30.3454 -0.106002
583.45 28.6216 0.26727
433.058 5.60013 -0.134266
509.719 0.921653 -0.292859
797.32 51.7941 -0.463071
89.7858 30.932 0.216145
697.071 18.9887 0.520895
289.614 15.4153 -0.348156
10.3752 2.3023 0.347262
132.519 37.3696 -0.192355
70.4128 22.9123 0.476839
740.361 37.5456 0.297356
824.936 67.6845 0.176434
195.702 28.3394 -0.181853
832.205 14.7397 -0.481213
47.654 36.7173 -0.257068
95.9877 29.0569 0.158185
673.453 14.552 0.413151
438.032 18.0087 -0.467969
550.135 16.6197 0.101813
251.458 28.3521 0.19149
661.34 4.36896 -0.456067
841.733 11.1325 0.461503
31.5057 31.4377 0.273959
285.332 7.64687 0.187188
234.378 15.2338 -0.24665
1.09451 36.0867 0.14791
237.961 14.7895 -0.355504
223.5 10.864 0.123232
225.968 26.0629 -0.281088
140.233 28.1564 0.129008
580.954 15.2529 0.326228
176.371 14.1741 -0.341653
819.196 56.3073 -0.220086
183.837 3.93307 -0.488344
49.9811 38.0289 -0.388169
773.563 61.6985 -0.425837
297.359 32.1268 0.377031
717.033 27.9402 -0.487489
820.993 40.1131 -0.486597
317.905 9.17746 -0.106571
776.12 36.7744 0.342583
347.597 2.60284 -0.372603
441.714 23.9545 -0.38407
713.601 17.0569 0.430474
111.377 11.5697 0.483959
511.419 3.88047 -0.484528
788.57 20.3396 0.170149
93.3124 7.67761 -0.221577
297.754 14.6999 0.184844
448.828 11.597 -0.216535
831.395 2.54024 0.613158
421.221 1.95785 -0.517994
186.395 39.1914 0.285411
773.956 14.5784 -0.318476
135.799 36.7445 -0.204707
278.318 31.4619 -0.37608
424.238 21.431 0.217001
609.786 13.8007 -0.307941
409.822 9.89881 -0.427085
483.54 28.1161 -0.436893
808.576 60.2555 0.395004
50.309 10.9988 0.128538
316.401 38.3748 -0.265972
401.736 26.1018 -0.41634
434.351 20.7434 0.248547
552.476 44.4865 0.356388
790.333 52.1862 0.205208
708.578 39.6786 -0.351161
238.273 34.2726 0.403082
14.4185 31.5593 0.15972
701.348 40.0511 -0.119452
540.531 42.2049 0.435354
242.706 38.9534 0.0911961
721.985 35.0338 0.106294
159.642 9.28641 -0.19102
389.678 21.8554 0.262128
491.182 42.719 -0.106632
438.994 19.4712 0.197793
804.723 61.0197 0.294789
451.457 3.38919 0.442845
52.4864 25.3327 0.304102
497.943 32.0383 0.350614
460.893 42.8297 -0.353921
821.998 51.1663 0.244212
772.921 37.3361 -0.221644
575.073 18.556 -0.160618
813.634 51.1419 0.428768
310.352 2.20754 -0.46071
401.772 29.1414 -0.460318
30.7568 38.5567 0.296911
779.189 37.6076 0.142495
648.529 20.1655 0.46138
490.451 0.784186 -0.467569
133.184 4.54445 0.274481
452.089 41.7225 -0.103052
12.8867 0.909123 -0.312677
829.921 6.84473 -0.202458
[...]
POINT_DATA 13483
TENSORS Strain_matrix float
-0.365163 -0.271768 -0.0561706 
0.0485236 0.202928 1.52881 
-2.22806e-17 3.7967e-18 1 

-0.411724 0.143006 24.1143 
0.152139 0.198279 -4.95608 
3.08184e-18 3.36027e-18 1 

-0.0862766 -0.00107202 -0.639925 
0.00687687 -0.036416 2.65171 
-5.47721e-18 -3.16068e-18 1 

-0.855511 -0.236468 -0.715681 
-0.330132 0.323355 -1.311 
1.15105e-17 -7.02057e-18 1 

-0.116916 -0.00445953 0.0984297 
-0.0468299 -0.0432105 0.0034236 
-1.99424e-18 2.45828e-17 1 

-0.066002 -0.0163579 -0.0806869 
-0.00720058 -0.0235976 -0.553317 
-7.45437e-18 -5.83441e-18 1 

-0.0764664 -0.0290217 -0.144915 
-0.0310261 -0.0777183 0.0996957 
-3.09838e-18 -1.61285e-18 1 

-0.0608327 -0.124974 -0.454904 
0.0130277 -0.0934404 -0.302364 
-9.39796e-18 -1.21741e-17 1 

-0.0949952 0.0112916 0.0707994 
-0.0917064 -0.00616211 0.221025 
-5.20854e-18 -1.24449e-17 1 

-0.379762 -0.263407 1.45865 
0.0656663 0.0475489 -0.381987 
-6.60483e-18 -1.35982e-18 1 

-0.039758 0.0201355 -0.0740002 
-0.0260257 -0.0805698 -0.00529602 
-1.20474e-17 -1.01064e-17 1 

-0.0682263 -0.0558063 0.171265 
-0.037262 -0.103876 0.117199 
3.49132e-17 -1.70034e-17 1 

-0.248919 0.31967 0.620512 
-0.198534 0.250856 0.292519 
-4.12637e-18 -4.65771e-18 1 

-0.113168 0.0231019 -0.135011 
0.117742 -0.015093 -0.0129182 
-3.85383e-18 1.47552e-17 1 

-0.0789852 -0.048254 -0.00673389 
0.0116518 -0.0129463 -0.477297 
-2.13795e-19 9.66354e-18 1 

-0.0666576 -0.00315859 -0.477022 
-0.0139635 -0.00519048 -0.446378 
4.80537e-19 -8.45744e-18 1 

-0.0753513 -0.0376234 0.138988 
0.0249981 -0.0902389 0.000193532 
-1.36704e-17 -5.22483e-18 1 

-0.128997 -0.00293835 -0.0522396 
0.00864022 -0.0710864 -0.0119716 
-3.96575e-18 5.8542e-18 1 

-0.0752239 0.0170767 -0.841708 
0.0719229 -0.0262047 0.592402 
2.29117e-18 1.12312e-18 1 

-0.0726285 0.0595474 0.175561 
-0.0933256 -0.11277 -0.0376681 
7.2434e-18 1.32861e-17 1 

-0.105535 -0.0600583 0.271117 
-0.023228 0.0060419 0.876423 
3.00437e-18 -7.0912e-18 1 

-0.118977 -0.18174 -0.280515 
0.0250775 -0.0273556 0.185012 
-7.81304e-18 -6.79434e-18 1 

-0.601245 0.354737 -6.26786 
-0.360659 0.325345 5.54709 
-3.40449e-18 -5.07461e-18 1 

0.0979081 0.777335 0.131514 
-1.02192 0.542071 0.097026 
-2.62865e-18 -2.36578e-18 1 

-0.0824554 -0.00235058 -0.192512 
0.00983199 -0.0429001 0.327606 
-2.58674e-18 -4.39535e-18 1 

-0.0469537 0.0647467 0.0497354 
-0.0904878 -0.0251079 -0.11267 
1.13207e-17 -2.12263e-18 1 

-0.100988 -0.00839981 0.0958903 
-0.00317002 0.00660392 -0.528116 
4.89522e-18 -5.27536e-19 1 

-0.146337 -0.144964 -0.271319 
0.0745955 0.0980488 -0.863502 
3.67523e-18 -1.35403e-18 1 

-0.0814729 -0.00555661 0.131057 
0.0480095 -0.0685886 0.697029 
5.37679e-19 -4.11602e-18 1 

-0.731134 -0.0999168 -1.09366 
0.224065 0.17268 1.2991 
-1.80481e-18 -1.0528e-18 1 

-0.0807119 -0.0112721 -0.301083 
-0.0513407 -0.167125 0.3118 
-3.0375e-18 3.28648e-18 1 

-0.0990875 0.034539 0.0651808 
0.0487754 -0.0462701 0.140496 
8.74088e-18 -1.33505e-17 1 

0.0213801 -0.514203 -0.862405 
0.415173 0.0646492 0.672105 
1.60115e-18 2.91373e-18 1 

-0.124255 0.0666698 -1.3564 
0.00219214 0.086224 -1.93875 
1.04253e-17 -2.58693e-17 1 

-0.0205689 -0.00993293 -0.0941278 
-0.0372077 -0.0518895 -0.0471801 
-9.2173e-18 -1.06727e-17 1 

-0.0859291 0.0384489 -0.191959 
-0.104542 0.023476 0.00892653 
-3.04281e-18 -9.74649e-19 1 

-0.0818152 0.0491784 -1.24637 
-0.00354359 -0.0298627 -0.760184 
1.03918e-17 2.39442e-18 1 

-0.0162767 -0.0594656 -0.151562 
-0.086007 -0.104391 0.0814884 
-4.19809e-18 -5.71406e-18 1 

-0.107873 -0.0145423 0.335954 
0.148747 -0.0710002 0.108106 
3.28054e-18 -7.7327e-18 1 

-0.0704204 -0.0261716 0.17702 
0.107231 -0.00209372 -0.347463 
2.103e-17 -3.03628e-18 1 

-0.110147 0.0275881 0.0670702 
-0.148224 -0.00917083 0.0924698 
1.2382e-17 3.95796e-18 1 

-0.113528 -0.0720993 0.0144053 
0.100507 -0.00510644 0.210041 
-6.61948e-18 -8.13335e-18 1 

-0.27093 0.0985819 -0.0477737 
-0.201407 -0.0867419 0.243991 
-5.08779e-18 8.17316e-18 1 

-0.0480084 -0.0308593 0.354488 
0.00791525 -0.0890636 0.134738 
-5.47183e-18 -3.21872e-19 1 

-0.0722892 0.0536093 -0.0233014 
-0.0583977 -0.0737739 0.153334 
5.13943e-18 7.6927e-18 1 

-0.0582271 -0.014786 -0.186112 
0.0141133 -0.0678954 0.00378575 
5.23229e-18 3.95143e-18 1 

-0.371327 0.00022905 0.923215 
-0.0759123 0.0119688 -0.78723 
4.89337e-18 -1.32067e-17 1 

-0.0470832 -0.0328262 0.0585898 
-0.00855931 -0.104536 -0.0691831 
-8.83308e-18 -3.866e-18 1 

-0.121921 -0.200092 0.0872747 
0.179628 0.0105548 0.473774 
-5.35373e-18 -3.26323e-18 1 

-0.342486 0.322061 -0.43749 
-0.222662 0.546247 -1.11392 
8.7042e-18 4.30487e-18 1 

-0.0573053 -0.129167 -0.331652 
0.0679186 0.026553 0.699243 
1.18398e-17 -7.38342e-19 1 

-0.399997 0.456069 -1.34242 
-0.0469666 0.281582 0.461711 
-1.39226e-17 -1.04944e-18 1 

-0.0934378 -0.0177641 0.0431592 
0.00638479 0.00826968 0.0489212 
8.84462e-18 -6.04023e-18 1 

-0.125215 0.0410612 0.0967038 
-0.0191683 -0.0391357 -0.0331106 
-2.68691e-18 -5.69951e-19 1 

-0.100492 0.00485456 0.0805916 
-0.0260921 -0.148639 0.0223967 
-1.36507e-17 1.11688e-18 1 

-0.0959183 -0.117459 -0.811373 
0.0138103 0.0314389 0.322365 
-6.14399e-18 7.15249e-19 1 

-0.250159 -0.190833 0.332429 
0.37967 0.206741 -0.192932 
-2.71751e-17 1.1053e-17 1 

-0.0800639 0.0591485 -0.157448 
0.00867016 -0.0704696 0.0533075 
-2.90994e-18 -2.68331e-17 1 

-0.0369257 0.0160186 -0.00535956 
0.00715762 -0.139742 0.173538 
-7.10477e-18 -1.69429e-17 1 

-0.0787269 -0.00125668 -0.148254 
-0.0651718 -0.0638582 0.176476 
3.07471e-18 6.31003e-20 1 

-0.0524255 0.134905 -0.322471 
0.138627 -0.0382906 0.146024 
6.62117e-18 4.31128e-17 1 

-0.0658721 -0.0998233 0.0304949 
0.0158524 0.0218895 -0.106622 
-6.19214e-18 -2.94248e-18 1 

-0.0802712 -0.0823877 -0.2679 
-0.00129926 -0.0408449 -0.0644562 
-9.75303e-18 -7.12742e-18 1 

-0.428156 -0.0899583 0.318584 
-0.0285798 0.104398 -0.401462 
-4.95028e-18 4.05761e-18 1 

-0.109342 0.00894738 0.285322 
-0.0019614 0.0361202 -0.215036 
1.49604e-17 2.72393e-18 1 

-0.0758559 0.0341811 0.134903 
-0.0336635 -0.0589649 0.282853 
-1.15989e-18 -8.1359e-18 1 

-0.351889 0.0796622 -0.108968 
0.170013 -0.0591438 -0.505979 
7.74671e-18 9.19867e-18 1 

-0.209409 -0.331703 -0.11885 
0.265111 0.194801 1.00853 
-1.06654e-17 1.23088e-17 1 

-0.103212 0.0056929 -0.170546 
-0.0384487 -0.0838622 1.28162 
-2.79237e-18 8.47348e-18 1 

-0.204702 0.119277 0.167124 
-0.150225 -0.0385823 -0.307306 
1.42485e-17 -3.5345e-18 1 

-0.965597 0.554407 1.68325 
-0.230337 0.582052 1.42245 
1.56872e-17 -1.08187e-18 1 

-0.0504043 0.00155524 0.00522364 
-0.0206184 -0.0727037 0.0348259 
-2.18764e-18 -5.24921e-18 1 

-0.0842139 0.0380612 -0.0674082 
-0.13865 -0.036318 0.0222762 
6.62239e-18 -4.17211e-18 1 

-0.0562103 0.0304846 -0.0774648 
-0.0676369 -0.0449 -0.0141014 
1.92559e-18 7.20228e-18 1 

-0.0698692 -0.0054444 -0.443058 
-0.0131092 -0.0479673 -0.452019 
-1.58915e-19 -9.72184e-18 1 

-0.064709 -0.0162732 0.0986922 
-0.0125404 -0.0872069 -0.0507468 
1.23964e-17 -9.29374e-18 1 

-0.259474 2.59477 -5.53403 
0.124094 0.172191 2.78459 
1.20136e-19 7.02797e-18 1 

-0.0703486 -0.0265619 -0.13582 
0.0689333 -0.0781173 0.628684 
4.80494e-18 -5.27866e-18 1 

-0.3307 0.0628475 -0.170373 
-0.00713082 0.320944 -1.26256 
-5.28768e-18 -1.26842e-17 1 

-0.295658 -0.479915 0.99067 
0.223629 0.197773 0.592076 
1.23283e-17 2.87241e-17 1 

-0.163524 0.137987 -1.36147 
-0.169984 -0.0660143 0.53898 
1.1578e-18 1.14768e-17 1 

-0.0521032 -0.115096 -0.116185 
0.0707157 0.020393 0.363602 
-4.11785e-18 9.61799e-18 1 

-0.0306417 -0.00594869 0.0437724 
0.00736605 -0.0327872 0.0742177 
5.48182e-18 -3.89648e-18 1 

-1.20507 0.835782 0.339904 
-0.298889 0.688145 0.90875 
-1.76174e-17 -1.37636e-18 1 

-0.141926 -0.221345 0.226567 
0.258181 0.0275512 0.348512 
9.97219e-19 -9.13243e-18 1 

-1.76749 -1.14011 1.18725 
-0.563075 0.473121 1.12593 
-1.5184e-17 -3.70342e-19 1 

-1.50324 32.9036 14.5051 
-0.00395333 0.171884 0.920901 
1.20005e-17 -4.26536e-16 1 

-0.15402 0.0668128 -0.163194 
-0.0661151 -0.0376552 1.51392 
-1.76511e-18 -1.12064e-17 1 

-0.120593 -0.0277219 -0.130155 
0.0186311 -0.0764342 -0.0245419 
-6.28677e-18 4.63878e-18 1 

-0.0880781 0.0187872 -1.35093 
-8.97142e-05 -0.0692855 0.879348 
1.82576e-18 4.81733e-18 1 

-0.098138 -0.0914144 -0.0550616 
-0.0486703 -0.0524177 -0.0584031 
-2.00022e-18 1.22013e-17 1 

-0.170026 -0.0355037 0.0913596 
0.176464 0.041406 0.0440681 
-3.7651e-18 4.78482e-18 1 

-0.735523 0.0512224 -3.11314 
0.100986 0.248501 2.44925 
8.00417e-18 -1.26051e-17 1 

-0.0742921 -0.0385077 0.127499 
-0.0397797 -0.102656 -0.0608999 
2.81728e-18 -5.83893e-18 1 

-0.100497 0.0440728 -0.11369 
0.0412096 0.0455293 0.286108 
1.50875e-18 1.26095e-18 1 

-0.112435 0.0622456 -0.0454389 
0.0091877 0.215939 -0.445876 
3.63247e-18 -9.03412e-19 1 

-0.0953136 0.0384227 -0.40167 
0.00475616 -0.0358332 0.243056 
-6.00876e-18 3.69219e-18 1 

-0.344011 0.344942 -0.331945 
-0.0391379 0.0817281 0.212669 
5.2234e-18 9.46741e-18 1 

-1.2237 -0.137577 -2.70354 
-0.146203 0.555342 2.26335 
2.99166e-18 -6.39394e-18 1 

-0.0473212 0.0105643 -0.143971 
-0.0626995 -0.0306378 -0.125313 
3.33965e-18 2.85369e-18 1 

-0.0585523 -0.0369612 -0.645099 
0.00466292 -0.0231116 0.318208 
2.84586e-18 -1.94609e-18 1 

-0.150749 -0.0835956 11.6408 
0.0489371 0.0146131 6.89946 
2.38009e-19 4.6144e-18 1 

-0.0918666 0.0291251 0.515165 
-0.0137032 -0.0548288 0.860952 
9.61979e-19 3.99071e-18 1 

-0.0550426 -0.06182 0.247295 
0.0874904 -0.0299371 -0.0383785 
1.95529e-19 -1.01675e-18 1 

-0.0681674 -0.025104 0.221485 
0.00951681 -0.0857667 0.619519 
-1.94064e-17 2.41814e-18 1 

-0.101731 0.101034 0.185847 
-0.0937675 -0.0626183 0.0541564 
8.97544e-18 -4.37553e-18 1 

-0.75968 0.108115 0.131318 
-0.22232 0.132225 0.244184 
-1.39627e-18 1.06117e-17 1 

-0.0701383 0.0109805 0.0081137 
-0.00657619 -0.0298364 -0.0686246 
4.66556e-18 6.83727e-18 1 

-0.104947 0.0364927 0.0942021 
0.0223302 -0.100817 -0.023325 
-6.63076e-18 9.86471e-18 1 

-0.198597 -0.0728814 0.605137 
0.107028 -0.0599684 -1.57384 
-9.39564e-18 6.72705e-18 1 

-0.0868647 0.0201764 -0.504439 
0.00571825 -0.0752658 -1.20035 
-1.35203e-18 7.55807e-18 1 

-0.0776039 0.0260392 -0.031279 
0.00374071 -0.0672277 0.572327 
5.55237e-18 -2.37023e-17 1 

-0.06272 0.016598 0.00985045 
0.0166654 -0.0884638 0.0501368 
-4.64949e-18 5.79375e-18 1 

-0.219873 -0.0669485 -0.872617 
-0.029481 0.139231 -1.58093 
8.71425e-18 2.8881e-18 1 

-0.269178 -0.0389699 0.240388 
-0.0136919 0.118749 -0.187073 
-3.6503e-18 1.12954e-18 1 

-0.0745982 0.011713 -0.575571 
-0.0102227 -0.00832584 1.4491 
-5.79954e-18 2.9859e-18 1 

-0.136636 0.00117298 0.0408493 
0.0201862 0.0372763 0.558782 
-7.6796e-18 1.9199e-18 1 

-0.0810897 0.0348959 0.0431835 
0.0350486 -0.00819286 0.0642569 
-1.16102e-18 4.8885e-19 1 

-0.226497 -0.076981 -0.0702637 
0.393134 0.0963492 0.346044 
9.09674e-18 -2.91874e-19 1 

-0.0794522 0.0458078 -0.094161 
-0.032409 0.00235315 0.14833 
-1.70167e-18 5.105e-18 1 

-1.07674 -0.958823 -0.430304 
0.502823 0.625691 0.292023 
-9.24221e-18 -5.02294e-19 1 

-0.378973 0.164146 0.127095 
-0.106073 0.131107 -0.213671 
2.2596e-17 4.80164e-18 1 

-0.0782022 0.0633973 0.070609 
-0.0718348 0.011955 -0.120282 
-9.99408e-18 4.23662e-18 1 

-0.0200685 -0.0597055 0.0918313 
0.00262528 -0.0610976 0.0726833 
-9.51586e-18 3.05867e-18 1 

-0.0658132 -0.0171879 0.409354 
-0.0271771 -0.0775629 -0.0727794 
8.94585e-18 -4.05258e-18 1 

-0.0791997 0.0346099 -0.232984 
-0.0240712 -0.125211 0.0587164 
6.35311e-18 -4.91648e-18 1 

-0.112843 -0.113763 0.200769 
0.0442556 0.00739028 -0.240638 
-3.7795e-18 -3.10644e-18 1 

-0.168844 0.038614 0.0844272 
0.0264678 0.083432 0.0718802 
-7.33503e-18 5.73049e-18 1 

-0.0427985 -0.219857 -0.00218394 
0.163935 -0.0276996 -0.0149767 
-3.04227e-18 -7.28543e-18 1 

-0.0759456 -0.00117732 -0.602098 
-0.0174683 -0.0696542 2.26516 
-4.13028e-18 -7.27963e-18 1 

-0.108396 -0.255829 -0.482613 
0.44287 0.153803 0.317007 
2.96031e-18 5.69291e-20 1 

-0.0852936 -0.337966 -0.429342 
0.433869 0.00838308 0.0750318 
-1.59436e-17 6.35659e-19 1 

-0.167983 -0.107424 -1.13254 
0.158239 0.107959 1.21737 
3.63723e-18 2.3642e-18 1 

-0.346512 0.376582 -0.0333755 
-0.173037 -0.0154468 -0.222353 
1.96991e-17 -1.75505e-18 1 

-0.292177 0.169463 0.262075 
-0.0099622 0.171748 0.0211809 
6.95918e-18 1.36784e-17 1 

-0.236339 0.0785941 0.818634 
0.147285 0.0381062 0.375577 
-1.77204e-18 -1.04255e-17 1 

-0.532795 0.806086 -1.48513 
0.569322 0.359219 1.84643 
2.15063e-18 -4.48049e-18 1 

-0.102414 -0.0474617 1.22953 
0.135839 -6.30255e-05 -1.25399 
1.9446e-18 -9.85518e-18 1 

-0.048422 0.0910199 -0.0585855 
-0.146575 -0.0960145 0.0549337 
-1.00741e-17 -1.52177e-18 1 

-0.0706209 0.0235591 -0.222859 
-0.145222 -0.0551524 -0.468397 
-1.49454e-17 -1.22206e-17 1 

-0.133957 0.027163 0.485303 
0.00383188 -0.036019 0.0771228 
3.0579e-18 -3.21491e-18 1 

-0.0392934 -0.0812121 -0.284633 
-0.166533 0.0306808 -0.0402015 
-3.44527e-18 -4.08328e-18 1 

-0.0126234 -0.00138694 0.0292795 
0.126035 -0.0733325 0.0707922 
-2.19364e-18 -5.68185e-18 1 

-0.0501717 -0.0066731 -0.971711 
0.00377789 -0.0403123 -0.830778 
1.30948e-18 -1.03262e-17 1 

-0.0305004 -0.010942 0.0137488 
0.000380056 -0.00959397 0.0916637 
4.07815e-18 1.97997e-18 1 

-0.268902 -0.150605 -0.227774 
0.122733 0.0964774 0.141581 
5.44328e-19 1.80989e-17 1 

-0.396795 0.523681 0.729491 
-0.476392 0.159351 -0.173101 
6.12538e-18 5.19729e-18 1 

-0.113216 0.00524936 0.173846 
-0.0064163 -0.101005 -0.0771905 
3.7105e-18 -3.13267e-18 1 

-0.16295 -0.111395 1.44281 
0.238389 0.0712176 0.0853704 
3.6362e-18 5.98904e-18 1 

-0.034922 0.0572108 -0.0715418 
0.113355 -0.0185237 -0.413867 
-1.03269e-18 3.4736e-18 1 

-0.0948837 -0.0405499 6.68765 
0.0091265 -0.0122786 3.49863 
-3.36405e-18 -4.13426e-18 1 

-0.119657 0.00597922 0.0116426 
0.0475787 -0.010779 -0.325714 
2.85127e-18 -1.10644e-17 1 

-0.0715469 -0.0325506 -1.34066 
0.0101891 -0.0468343 -0.71203 
-3.97973e-18 -1.06085e-17 1 

-0.0835536 0.0453235 -0.223553 
0.028485 -0.0095442 0.705303 
9.04535e-19 3.42216e-18 1 

-0.0709715 -0.00647167 -0.0539389 
0.0141779 -0.0410047 0.481633 
4.52766e-19 7.12635e-18 1 

-0.164735 -0.17668 -0.305043 
0.115632 0.0244679 -0.24009 
-6.87791e-18 1.93137e-17 1 

-0.194989 -0.234074 -0.957937 
0.0426314 0.078285 2.46706 
1.3024e-17 -1.51251e-17 1 

-0.0634282 -0.0176937 0.352674 
-0.0283876 -0.0425119 1.3832 
-8.15063e-19 2.65709e-18 1 

-1.47084 0.0826685 8.16325 
-0.437542 0.857548 4.07814 
3.83383e-18 3.38493e-18 1 

-0.506279 0.0486909 -1.1286 
0.198867 0.0610661 -3.29278 
-2.78789e-18 6.13335e-18 1 

-0.23893 0.134118 -6.88668 
0.126092 0.0341545 3.54614 
2.1646e-18 7.72498e-18 1 

-0.35879 -0.0322928 -0.728774 
-0.0714378 -0.0811493 -1.18853 
8.05577e-18 2.01489e-17 1 

-0.199714 0.0120917 -0.391912 
0.00976005 0.089172 -0.920693 
3.22608e-18 4.0326e-19 1 

-0.164553 0.0511367 -2.66205 
-0.0321996 0.156117 -1.75436 
2.4475e-18 -4.07737e-17 1 

-0.139896 -0.0375799 -0.630769 
0.073286 -0.0136882 -0.240098 
1.91534e-18 1.23433e-17 1 

-0.865112 -0.437363 -0.885122 
0.0886304 0.270269 -0.74412 
-1.22574e-17 -1.57595e-17 1 

-0.0952004 -0.0444533 0.191927 
0.0196501 -0.0220139 0.0930597 
2.39044e-18 -7.01195e-18 1 

-0.0979709 -0.0560071 0.199274 
0.00433231 -0.0581484 -0.00827075 
-1.08677e-18 6.52064e-19 1 

-0.0535387 -0.0341209 -0.178484 
0.00412735 -0.101086 0.35387 
1.92494e-19 -1.64038e-18 1 

-0.0973147 0.0114379 -0.160562 
-0.00585845 -0.0699013 0.237408 
8.14079e-19 -8.27512e-19 1 

-0.0876206 -0.0195739 -0.139798 
0.010177 -0.0603187 -0.0813136 
1.47257e-18 -1.32302e-18 1 

-0.0895251 0.040579 0.314062 
0.0181533 -0.00678784 0.0663082 
1.37811e-18 -6.41534e-19 1 

-0.100196 -0.0213663 -0.104936 
0.0278572 0.00447276 0.0348063 
4.36374e-18 6.94445e-18 1 

-0.196887 -0.0313722 0.653332 
-0.107384 0.101868 1.19219 
-6.0841e-18 -2.62893e-19 1 

-0.0937638 -0.0648415 -0.109564 
0.115424 -0.00156073 0.17376 
5.70408e-18 -6.97166e-18 1 

-0.0858122 0.0370405 -0.178894 
-0.0494347 -0.0569343 0.904872 
5.36321e-18 2.22886e-18 1 

-1.80839 0.977443 11.8298 
-0.250625 0.661266 0.0340274 
9.67066e-19 9.84649e-18 1 

-0.0804793 -0.0030867 0.0411409 
-0.0128702 -0.0670601 -0.167975 
9.6744e-18 9.83387e-18 1 

-0.0341611 0.128219 -0.452987 
-0.125853 -0.0526786 -1.83615 
4.4219e-18 -9.28254e-18 1 

-0.145165 0.0700385 -0.0539681 
-0.0257729 -0.0746691 -0.0395366 
-1.52966e-17 -4.27332e-18 1 

-0.0779659 -0.0149909 -0.108684 
-0.0766798 -0.0322411 0.213024 
-1.49218e-17 -4.60904e-19 1 

-0.185343 0.00776291 0.253768 
-0.177344 -0.0852184 0.104532 
1.35996e-17 1.52145e-17 1 

-0.0598065 -0.01873 0.0274209 
-0.0427991 -0.0799832 0.0602133 
1.02239e-17 -5.4194e-18 1 

-0.0732926 -0.010848 -0.663087 
0.0201137 -0.0698659 0.00972366 
-1.04808e-19 -4.09799e-18 1 

-0.131001 -0.0281536 -0.015003 
0.0837258 -0.057231 -0.383613 
1.63297e-18 9.16416e-18 1 

-0.111479 -0.0057171 0.112351 
-0.0738105 -0.0593566 0.150339 
1.17924e-17 -3.26855e-18 1 

-0.0892386 -0.0222854 0.386084 
-0.046378 -0.0584758 0.319044 
4.02869e-18 1.8549e-17 1 

0.3268 -0.869397 -0.352482 
0.725229 0.536412 -0.120317 
-2.36681e-17 -7.79972e-18 1 

-0.0657332 0.0284359 -0.31293 
-0.0465466 -0.0386342 0.180739 
1.21364e-17 7.0819e-18 1 

-0.492918 -0.0634476 -1.0994 
0.578007 0.236132 1.28837 
3.12005e-17 -1.51555e-17 1 

0.0854583 -0.679399 0.380322 
0.733342 0.290997 -1.13871 
1.33305e-18 -5.31287e-18 1 

-0.101963 -0.0938033 0.00525372 
0.0741946 -0.0546831 0.00649782 
-4.05204e-19 8.74565e-18 1 

-0.412313 -0.284406 -0.435735 
0.104607 0.147811 -0.154982 
-1.09337e-17 1.1351e-18 1 

-0.475586 0.0659996 -0.122097 
0.170292 0.275434 0.262683 
-1.5084e-18 7.19917e-19 1 

-0.186507 0.661701 -0.0442152 
-0.678471 0.346154 1.67333 
-1.87485e-17 -8.11622e-18 1 

-0.0641279 -0.0772221 0.11684 
0.0635706 0.0141995 -0.250445 
3.32177e-18 3.71348e-18 1 

-0.0848007 0.0955811 -0.270574 
-0.00275514 -0.0467316 -1.27784 
-6.39273e-18 -1.65363e-17 1 

-0.0376186 0.0628491 -0.228375 
-0.150264 -0.0507278 0.36119 
4.5635e-18 2.85219e-19 1 

-0.154202 0.00604086 0.0594888 
-0.0693237 -0.0469913 0.14002 
2.36988e-19 -4.66435e-18 1 

-0.0971141 -0.146942 -0.990606 
0.242501 0.00258303 0.461261 
2.1502e-18 1.232e-18 1 

-0.191928 0.371201 -0.170616 
0.18717 -0.120832 0.354549 
-1.82959e-18 -1.36622e-17 1 

-0.0670357 0.0430227 0.160892 
-0.0206847 -0.0354738 -0.0254941 
8.60876e-18 1.21535e-18 1 

-0.128315 0.177523 -0.107615 
-0.200574 -0.0314169 0.19071 
8.12406e-18 -1.21835e-17 1 

-0.17254 -0.233297 -0.165849 
-0.0067151 0.0988355 0.532128 
-3.13897e-19 -6.43489e-18 1 

-0.084267 -0.0366313 0.0944529 
0.0573118 -0.00766742 0.203093 
-3.47827e-18 1.01449e-18 1 

-0.00960346 0.0277256 -0.162514 
-0.0109126 -0.0683763 -0.109435 
-5.69207e-18 -4.6368e-18 1 

-0.0898049 -0.0301899 0.609115 
-0.0193566 -0.00680051 0.158042 
-8.08312e-18 -9.16642e-18 1 

-0.098267 -0.0472255 -0.0517087 
0.108834 0.0265721 0.272193 
-3.0726e-18 1.43523e-18 1 

-1.13547 0.0659946 14.9095 
0.324163 0.329161 -8.63468 
-3.15065e-18 3.09006e-18 1 

-0.239066 -0.054784 0.137531 
-0.0654857 0.198962 0.413178 
-2.07956e-18 3.46593e-19 1 

-0.0402721 0.0277002 -0.0164806 
-0.0698876 -0.0394285 -0.0648967 
9.03545e-18 4.93227e-18 1 

-0.116579 0.00501215 0.139983 
-0.00271038 -0.0416896 -1.26988 
8.35964e-18 1.61799e-18 1 

-0.0511137 0.0258713 -0.277644 
0.0159129 -0.0934132 -0.140714 
9.02413e-18 -4.44399e-18 1 

-0.065593 -0.000978874 0.834791 
-0.0233399 -0.0244348 -0.842089 
-3.65185e-19 3.79205e-18 1 

-0.182481 0.0539996 0.536077 
-0.0115712 0.07493 0.39248 
-7.96008e-18 -2.42616e-18 1 

-0.0288348 0.0347214 -0.335704 
-0.0779947 -0.0685894 -0.044206 
-1.62337e-17 -9.79618e-18 1 

-0.0867955 -0.0817815 0.0235429 
-0.00965292 -0.125157 0.161114 
1.41917e-17 3.42587e-19 1 

-0.12358 -0.0312623 0.899814 
-0.000447802 0.0485663 1.32083 
-1.65937e-18 5.79215e-18 1 

-0.135749 -0.16 -4.36534 
0.131356 -0.0174315 -5.78544 
9.47799e-19 -1.34093e-17 1 

0.00369962 -0.046672 -0.387567 