# vtk DataFile Version 3.0
Output file generated by Yade's KinematicLocalisationAnalyser
ASCII
DATASET UNSTRUCTURED_GRID

POINTS 13483 float
650.131 27.5839 -0.405766
843.172 50.5864 -0.544991
127.037 6.11577 -0.451435
874.524 5.60908 0.330888
529.767 7.67119 -0.293972
332.557 34.9575 -0.460409
165.604 6.80247 0.4176
606.966 10.3825 0.134816
527.053 23.007 -0.149991
780.892 13.9998 -0.380729
222.414 8.74241 -0.116708
271.404 6.25336 -0.271494
701.059 28.0102 0.140796
679.399 14.1072 0.0770654
145.077 17.0708 -0.446005
233.981 34.2912 -0.388091
229.873 12.8424 -0.259172
305.098 9.4841 0.374823
360.293 32.7663 0.448983
557.224 8.50314 0.365848
435.305 35.8423 0.102727
629.945 44.3832 0.259152
872.783 36.4858 -0.497651
754.857 44.3962 0.42752
486.487 15.9668 0.289093
254.453 43.7927 0.12233
521.802 27.4496 -0.466914
624.666 19.8748 0.296444
47.4617 15.7339 0.465962
777.842 34.0841 -0.329741
511.711 4.80148 0.331563
17.2023 22.82 0.285163
857.189 49.2145 0.262424
525.503 2.48423 0.478762
82.769 43.8402 0.100261
554.309 30.0621 0.326226
563.875 16.6238 -0.40907
363.187 22.0741 -0.169075
567.641 25.5477 -0.31419
370.963 33.2269 -0.384475
254.968 14.3622 -0.305255
460.39 35.8232 0.0673809
731.379 6.66993 0.100458
203.929 6.16163 0.377229
58.4724 6.96494 -0.110965
72.2623 8.91915 0.286873
749.479 8.46203 -0.495121
24.9014 11.7472 0.281852
652.33 44.4427 0.362358
733.389 23.872 -0.330126
182.359 32.2543 0.294331
834.718 36.489 -0.124904
37.1515 27.7513 -0.10799
567.968 3.00923 0.312081
150.445 7.20334 -0.470262
632.935 33.773 0.396205
535.313 27.0468 0.137013
185.113 0.960256 0.256182
34.6477 2.42673 0.286096
368.802 17.6328 0.267954
664.644 45.2093 -0.136391
490.477 33.6051 -0.173241
423.017 1.03415 0.192979
760.131 7.78421 -0.390574
28.0734 42.3891 -0.235271
271.416 30.0038 0.291954
780.452 9.07497 0.270611
722.52 45.1005 0.398509
442.592 8.56162 -0.474563
607.63 3.69842 -0.331325
815.054 33.2953 0.372701
138.496 7.60599 0.27487
530.01 24.9226 -0.13811
507.251 14.7824 -0.116214
311.672 16.6431 -0.3377
21.8638 13.5172 -0.261797
861.476 41.6194 -0.345104
352.001 38.8138 -0.279785
731.373 21.2634 0.336141
748.12 13.2452 -0.229641
861.552 12.645 -0.234482
494.062 33.9752 0.164104
97.9874 37.9063 -0.268699
742.066 36.9854 -0.216432
698.006 38.5719 -0.0964056
876.618 41.5444 -0.124546
856.411 0.793613 -0.455144
308.143 28.517 0.438255
667.432 6.34573 -0.104401
25.7378 5.27621 0.478459
140.798 37.5766 0.139736
546.315 13.751 0.20616
846.431 27.6833 -0.466372
207.257 28.4667 -0.234536
47.0172 34.2513 -0.280595
524.393 1.15819 0.118707
249.774 8.69997 -0.392879
817.622 46.7725 0.260443
835.724 26.4875 0.225171
383.198 20.6073 -0.254984
174.01 26.6976 -0.43282
587.07 39.952 -0.484917
403.555 15.0096 -0.47758
439.854 28.9522 -0.0975275
401.691 4.41575 0.403685
584.969 10.6803 -0.0976512
879.593 11.1325 0.170549
85.055 38.8441 0.38185
356.008 4.74392 -0.179325
599.948 9.58532 -0.344252
382.711 43.0963 0.445463
27.3658 24.2507 -0.466595
32.2836 5.677 0.309314
607.36 32.9872 0.408399
538.697 24.9277 -0.147253
27.9769 36.3676 0.41535
98.7748 30.409 0.215628
345.2 15.7579 -0.294333
644.229 18.4029 -0.131522
506.924 37.3956 0.296853
797.15 8.33744 -0.494161
789.638 6.3516 0.190731
411.905 36.8573 -0.0944134
685.148 25.7611 -0.0923765
253.366 16.9869 -0.487668
350.928 3.67081 0.467194
109.598 31.0908 0.316713
123.663 24.021 -0.267177
582.164 39.5485 0.0758338
325.57 18.7931 0.475323
773.775 36.9838 -0.103321
727.037 44.9058 -0.134581
513.918 19.9094 -0.360349
837.956 10.5719 0.313091
457.246 23.3532 -0.246232
295.334 23.7963 -0.296388
731.513 32.5853 -0.268822
296.707 28.7681 0.394761
619.327 12.078 0.171948
353.629 35.7933 -0.191849
540.036 11.2317 0.480289
391.23 30.8313 0.0816489
459.593 16.6704 -0.102079
338.86 41.677 0.43399
203.09 29.4845 -0.125441
847.877 49.0056 0.1597
876.515 13.0333 -0.3165
6.22507 11.959 -0.443969
463.777 22.0424 -0.411978
41.0361 22.2977 -0.0860211
401.739 31.0914 -0.467261
421.961 24.5103 -0.256821
79.5711 11.8123 -0.503189
55.0729 33.41 -0.434545
241.126 13.471 0.42934
666.29 38.7685 0.405792
621.544 20.7759 -0.428291
79.4026 21.146 0.490406
758.168 47.6558 -0.424056
823.998 2.34987 -0.462069
716.169 39.7682 0.526518
756.074 2.23822 -0.48897
591.204 27.5251 -0.425229
631.598 44.407 -0.441391
549.447 17.9944 -0.36187
872.668 3.8524 0.288699
238.614 24.6761 -0.130011
136.197 34.636 -0.187147
263.875 6.57277 -0.367925
100.969 4.09767 0.264392
68.4339 9.9194 0.212282
294.637 35.8315 -0.314744
17.5515 24.5526 -0.353654
598.237 19.3508 0.430253
652.35 39.4441 0.212072
496.154 20.9305 -0.353762
873.913 54.0267 -0.349721
435.434 8.45956 0.0868641
467.167 36.2542 -0.435329
576.76 3.43022 -0.1873
24.3044 23.6068 -0.385429
621.207 4.43622 0.443599
587.144 4.2545 -0.295815
220.542 11.1855 0.477232
455.381 15.9837 0.203959
332.962 6.20965 0.340802
415.482 18.8503 -0.32465
806.473 46.5074 -0.0973605
205.454 25.5734 -0.408332
847.961 6.36334 0.361244
806.032 42.557 -0.320282
410.535 10.1794 -0.164306
778.029 2.42852 0.410046
653.998 24.2328 -0.402855
804.255 19.7637 -0.361061
462.138 42.814 -0.263439
534.09 12.412 0.364183
499.835 43.6171 0.218334
478.16 8.61739 0.123602
719.712 39.0414 0.313797
717.591 35.0183 -0.298233
205.636 38.482 -0.330037
859.412 12.5297 -0.160083
634.116 44.9951 -0.232905
12.0047 16.7999 0.159593
437.145 24.8643 0.332178
200.366 22.91 0.407985
99.6326 38.9296 -0.203534
843.559 25.5608 0.390031
713.317 44.532 -0.233139
341.783 25.2813 0.352891
573.545 10.1676 0.308887
88.1418 43.8871 0.163546
265.156 25.6065 -0.467334
599.714 23.98 0.385789
523.542 18.7033 0.382054
281.277 0.896117 -0.343339
596.181 41.4197 -0.373487
575.084 41.1127 0.473261
518.359 33.0417 0.38458
537.108 0.779906 -0.490984
765.875 20.0219 -0.352579
192.393 11.9369 -0.171744
538.665 36.8099 0.438577
608.416 40.0981 0.127172
77.8309 0.915436 -0.262833
269.529 4.64496 0.177214
876.361 15.056 0.184651
862.044 14.5867 -0.368236
881.446 17.5401 -0.590771
325.124 8.48159 -0.232342
814.012 23.0951 -0.436728
437.229 40.8338 0.318769
482.513 0.815959 -0.398354
704.25 35.0423 0.42479
29.1173 30.0477 0.318956
354.115 40.7481 -0.454167
270.455 2.80324 0.31745
860.901 47.4299 -0.220299
776.485 50.2212 -0.237767
307.894 10.7286 0.195301
724.658 28.7742 0.0989985
601.968 2.60853 0.255213
584.807 6.30908 0.422116
103.432 18.11 -0.470562
324.973 1.03794 -0.223689
368.312 2.29104 -0.352452
14.9989 7.64048 -0.313891
4.74589 31.0393 -0.246521
173.835 18.7832 -0.365548
73.3296 41.3637 -0.20784
71.4479 28.6323 -0.313908
455.056 14.2983 -0.419204
394.336 34.5142 -0.460963
834.622 40.0238 0.113629
20.9914 4.00917 -0.274094
75.4411 6.88701 -0.132382
677.261 38.2713 -0.155812
316.063 0.935973 0.317052
391.627 15.918 -0.102009
252.625 4.61339 -0.384066
709.929 21.61 0.17731
485.81 8.35546 0.39774
814.566 21.3664 -0.387134
684.194 28.9776 -0.304918
729.641 18.5814 -0.0981519
452.166 26.3839 0.488413
109.587 44.3113 -0.305644
585.476 43.6313 0.0691674
800.575 15.3063 0.196771
255.09 29.9473 -0.232914
34.2231 16.5425 -0.162678
360.967 13.6529 0.482424
115.447 39.9209 -0.460268
287.322 42.2163 -0.192726
457.501 1.08249 0.164339
855.94 35.7441 0.472793
748.564 0.702298 -0.523063
356.616 3.09139 0.493423
322.047 26.4425 -0.147361
498.515 40.4428 0.209961
87.274 7.80768 0.345385
212.339 44.3738 -0.377623
838.413 30.2812 -0.372478
533.722 39.158 0.0744464
214.827 40.8055 -0.257171
172.418 42.0428 -0.386579
881.229 35.0434 -0.40894
878.144 12.0619 -0.581154
657.039 2.83961 -0.460079
204.068 24.344 -0.0924996
593.029 28.3662 -0.104109
594.983 27.7727 0.277837
440.179 5.56415 -0.133419
519.138 0.926567 -0.282487
832.717 42.9036 -0.504782
91.2175 30.4721 0.219733
715.721 18.4328 0.422476
294.524 15.3876 -0.331153
10.6102 2.3046 0.341904
134.762 36.3383 -0.186883
71.5864 22.7916 0.470951
766.222 37.8748 0.312872
862.097 57.4879 0.174231
199.259 28.0769 -0.177076
871.81 13.3261 -0.389004
48.3305 36.4197 -0.256403
97.3893 28.5722 0.160574
689.629 12.8205 0.401854
445.089 17.767 -0.481972
560.439 16.553 0.107206
255.746 28.0628 0.189126
674.963 4.51374 -0.40921
882.041 10.7874 0.510159
32.1352 31.1706 0.268857
290.023 7.66551 0.185327
238.468 15.0069 -0.235076
1.10624 35.8551 -0.144688
242.064 14.5759 -0.34903
227.405 10.8222 0.124479
230.047 25.9174 -0.276973
142.878 27.4641 0.132897
591.76 14.9032 0.337755
179.789 14.1537 -0.343707
854.684 46.968 -0.222255
187.277 3.9336 -0.48104
50.7653 37.6408 -0.37294
810.821 55.0198 0.426719
301.981 31.5682 0.387777
738.92 25.0698 -0.477106
861.43 32.7754 -0.57386
323.136 9.12084 -0.110088
804.048 33.9189 0.342826
353.331 2.61989 -0.359153
448.524 23.725 -0.372016
736.031 15.6852 0.435244
113.366 11.6379 0.4677
520.863 3.90658 -0.475672
816.915 18.6935 0.178287
94.9848 7.64579 -0.202619
302.669 14.6299 0.18246
456.269 11.4469 -0.220457
871.575 2.50771 0.608908
428.203 1.91256 -0.496487
189.899 38.7521 0.27869
802.852 11.8688 -0.2676
138.079 35.6862 -0.194453
282.787 31.3448 -0.375811
431.164 21.3222 0.215063
622.322 13.3124 -0.330073
416.713 9.88004 -0.423027
492.192 27.2101 -0.427311
844.015 51.3721 0.389428
51.1073 10.9173 0.122998
321.647 38.204 -0.264229
408.549 25.9228 -0.417465
441.226 20.734 0.249577
563.295 44.546 0.356426
825.904 42.472 0.195041
724.055 35.3687 -0.367216
242.391 33.8788 0.400219
14.7838 30.9417 0.155132
715.858 36.0632 -0.135642
550.168 41.9363 0.438086
246.887 38.5526 0.0903312
743.968 31.7925 0.102113
162.738 9.1885 -0.189874
394.753 21.2271 0.262086
500.297 41.4981 -0.105944
445.962 19.2288 0.199833
840.139 52.3975 0.295171
458.976 3.30152 0.428004
53.4378 25.1525 0.296187
507.445 30.9246 0.335368
468.912 41.024 -0.350246
858.033 42.2029 -0.22278
800.426 33.9782 -0.221449
585.849 18.4302 -0.133835
848.824 42.041 0.423367
315.145 2.06318 -0.419016
408.628 28.9539 -0.464569
31.2017 38.1823 0.295114
807.348 33.7374 -0.133176
662.676 20.3236 0.517224
499.602 0.777114 -0.485617
135.889 4.47844 0.279255
460.035 40.1547 -0.096653
13.1501 0.91161 -0.312911
870.01 6.99981 -0.0867222
398.657 38.6767 0.175639
[...]
POINT_DATA 13483
TENSORS Strain_matrix float
-0.254904 -0.288174 -0.158524 
0.0478325 0.139728 1.48246 
-5.26811e-18 -4.77112e-18 1 

-0.328832 -0.0470667 19.6158 
0.0965181 0.37704 -20.3873 
-1.1523e-17 3.7967e-18 1 

-0.0644122 0.0103191 -0.294374 
-0.0118899 -0.0669639 0.0377374 
-1.09035e-17 -5.55194e-18 1 

-0.657206 -0.112291 0.0629189 
-0.399702 0.268127 -0.165739 
-1.20414e-17 -1.21417e-17 1 

-0.089236 -0.0275318 0.122923 
-0.0226116 -0.0549134 0.0710211 
1.38475e-17 -8.65469e-19 1 

-0.0558065 -0.0340531 0.368145 
-0.0067688 -0.0246752 -2.20424 
-1.03812e-17 -1.31493e-18 1 

-0.057167 -0.0330735 -0.096132 
-0.0270735 -0.0859267 0.114977 
1.27361e-18 1.1887e-18 1 

-0.0620812 -0.0959994 -0.326773 
0.0253141 -0.104392 -0.175571 
1.30849e-17 -6.04954e-18 1 

-0.0622044 0.0297972 0.01626 
-0.0704601 -0.0316866 0.297855 
4.10467e-18 8.32611e-19 1 

-0.488575 -0.0965444 0.63191 
0.018027 0.0949111 -0.230808 
1.35529e-17 -2.58973e-17 1 

-0.0323516 0.0229141 -0.0755649 
-0.032391 -0.0816221 -0.00399739 
2.69744e-19 -6.06923e-19 1 

-0.0517025 -0.050764 0.150272 
-0.0457337 -0.109036 0.117733 
-9.82685e-19 -2.94806e-18 1 

-0.199652 0.182227 0.751323 
0.00515181 0.193326 0.24422 
-7.65229e-19 9.41464e-18 1 

-0.118407 0.0889786 -0.151256 
0.0166762 -0.030506 0.0506014 
-1.01543e-17 -4.44253e-18 1 

-0.0690799 -0.00769242 0.0460393 
-0.0191599 -0.00569931 -0.633147 
-1.74907e-18 1.7928e-17 1 

-0.0574356 0.00278738 -0.452324 
-0.0257456 -0.0124601 -0.361423 
9.66988e-18 -7.9999e-20 1 

-0.0689322 -0.0311279 0.130643 
0.0198331 -0.0921907 -0.00469601 
-2.21704e-18 -3.43283e-18 1 

-0.11236 -9.96397e-05 0.00261102 
0.0175638 -0.0762179 0.0889115 
7.75453e-19 2.25586e-18 1 

-0.0696604 0.028385 -0.820746 
0.0683341 -0.0272244 0.535914 
-3.99994e-18 1.10111e-18 1 

-0.0598134 0.0544607 0.16362 
-0.0841317 -0.115127 -0.0234463 
-7.01754e-18 -1.22807e-17 1 

-0.11489 -0.00802552 0.132068 
0.0110587 -0.00192413 0.288135 
1.11709e-17 -5.55432e-18 1 

-0.0881141 -0.142509 -0.298948 
0.0107671 -0.0572816 -0.012914 
1.07043e-18 3.69115e-18 1 

-0.683194 0.437197 -4.84755 
-0.366053 0.346568 7.29281 
2.76608e-18 -1.35243e-18 1 

-0.104124 0.0943737 0.963956 
-0.0848231 0.0261197 0.195665 
-2.96086e-18 1.66789e-17 1 

-0.0464841 -0.0310545 -0.183007 
0.0792098 -0.0445899 0.302758 
8.50952e-18 3.45495e-18 1 

-0.0422476 0.0654141 0.0831912 
-0.088119 -0.0164338 -0.0629629 
9.61759e-18 -6.35523e-18 1 

-0.0884016 -0.0156159 -0.503901 
0.0161037 -0.0170288 1.49601 
-5.26668e-18 2.70754e-19 1 

-0.0951902 -0.19416 -0.235158 
0.124861 0.0661216 -0.933805 
6.29934e-18 1.6816e-18 1 

-0.0641288 0.00593085 -0.162047 
0.0407758 -0.080424 0.93566 
-8.30395e-18 4.63824e-18 1 

-0.341708 0.201444 1.11428 
0.150234 0.157719 1.73692 
-4.02585e-18 5.41991e-18 1 

-0.0636086 -0.0172382 -0.274173 
-0.0376307 -0.168448 0.303873 
6.97948e-18 1.89918e-18 1 

-0.0476476 0.037666 -0.0113598 
0.107816 -0.129773 0.252212 
-4.17944e-18 -1.3038e-17 1 

-0.0422963 -0.368398 -0.674927 
0.298576 0.0850501 0.372195 
-5.44341e-18 -4.83151e-18 1 

-0.0963294 0.0201351 0.394398 
-0.00983881 0.0455924 -2.86789 
-7.02088e-18 2.67647e-17 1 

-0.020716 -0.00595338 -0.0658668 
-0.044329 -0.0568716 -0.0409409 
-1.21395e-19 -2.67068e-18 1 

-0.0691353 -0.0140424 -0.17421 
-0.069679 0.00845031 -0.0358007 
1.05399e-17 -5.40648e-18 1 

-0.0583732 0.027896 -1.22276 
-0.00445889 -0.0390695 -0.404206 
4.03595e-18 3.05206e-19 1 

-0.00356634 0.047001 -0.291169 
-0.157567 -0.0899347 0.457996 
-7.1217e-18 -1.11213e-18 1 

-0.0783099 -0.0409953 -0.0383412 
0.165957 -0.0534213 0.105103 
5.78392e-18 3.46002e-18 1 

-0.0426617 0.0142339 0.0241463 
0.00930306 -0.0566564 -0.0290514 
1.01169e-17 -7.14869e-18 1 

-0.101456 0.0485028 0.0344512 
-0.134402 -0.012334 0.0569272 
-4.10182e-18 -1.71299e-18 1 

-0.0410068 -0.061467 -0.0748581 
-0.00894113 -0.00699696 -0.0806215 
3.92595e-18 -1.90992e-18 1 

-0.164925 -0.0113059 0.144844 
-0.0846871 -0.102092 0.226253 
-1.1251e-17 1.0038e-17 1 

-0.0364657 -0.0326607 0.318835 
0.00590273 -0.0913238 0.0452505 
-9.7113e-18 2.2254e-17 1 

-0.0512866 0.0439913 -0.0142117 
-0.0426879 -0.0856684 0.15783 
-2.71235e-18 8.2585e-18 1 

-0.0437931 -0.00599519 -0.155803 
0.0107867 -0.0746655 -0.0016266 
3.11274e-18 -3.15615e-18 1 

-0.227529 -0.0328398 0.331137 
-0.0698016 -0.0255926 -1.9129 
2.23521e-18 -5.10511e-18 1 

-0.0410133 -0.0204164 0.0561952 
-0.00841118 -0.104344 -0.0648981 
-2.17837e-18 -7.41096e-18 1 

-0.0872633 -0.0228915 0.41243 
0.0162143 -0.0263894 0.326875 
2.56206e-18 3.66009e-19 1 

-0.384156 0.185277 -0.460851 
-0.16937 0.30056 -1.51009 
-5.27113e-18 4.12905e-18 1 

-0.0427412 -0.131426 -0.453832 
0.0533338 0.0190655 0.675906 
8.60991e-18 -8.29395e-19 1 

-0.69397 0.338805 0.127114 
0.114116 0.379171 -0.398353 
-9.49035e-18 6.54304e-18 1 

-0.0808689 -0.0350255 0.0614061 
0.0174532 -0.015535 -0.0329525 
3.28936e-18 -6.61206e-18 1 

-0.107144 0.0355096 0.0768127 
-0.0154344 -0.0451464 -0.0440454 
2.71139e-18 -9.71245e-19 1 

-0.0839508 0.0071419 -0.0784909 
-0.0283492 -0.146266 -0.209267 
-6.37074e-18 -4.90057e-18 1 

-0.0467747 -0.12349 -0.949646 
0.0177418 -0.0188338 -0.0702658 
5.31224e-18 -3.07645e-18 1 

-0.244539 -0.199995 0.333925 
0.3756 0.205392 -0.169897 
-1.58491e-18 -8.31426e-19 1 

-0.0696546 0.0649853 -0.19748 
0.00827989 -0.0728002 0.0444929 
-8.15e-20 9.41777e-19 1 

-0.027431 0.0180366 -0.0527637 
0.00407705 -0.147587 0.0531292 
9.69087e-18 1.08526e-17 1 

-0.0755652 -0.0128744 -0.0710165 
-0.0530396 -0.0631933 0.0687271 
-2.16599e-18 -4.05839e-18 1 

-0.0809144 0.18975 -0.043252 
0.0433542 0.133902 -0.0883582 
2.89697e-18 -1.02461e-17 1 

-0.0424068 -0.0490097 -0.229241 
-0.0340059 0.00533998 -0.00756205 
-2.45931e-18 -6.4182e-18 1 

-0.0703666 -0.0705516 -0.220877 
-0.000193847 -0.0420944 -0.0677468 
3.34505e-18 2.71122e-17 1 

-0.310481 -0.0391781 0.149166 
0.0703492 0.0833265 -0.410566 
-8.83262e-18 3.39716e-18 1 

-0.0762958 -0.00788901 0.276086 
0.00221748 0.0221693 -0.151256 
-2.85926e-18 3.37624e-19 1 

-0.0627755 0.0224661 0.120629 
-0.038288 -0.0852195 0.287055 
3.55479e-18 1.60738e-17 1 

-0.280559 0.165308 -0.0536454 
0.118958 -0.0914799 -0.582021 
1.33834e-18 -1.33684e-17 1 

-0.205587 -0.21784 0.183315 
0.204539 0.128284 0.865293 
5.85978e-18 9.58006e-18 1 

-0.0849897 0.000657453 0.0918561 
-0.0430571 -0.0904819 0.775459 
-9.38265e-18 6.23758e-18 1 

-0.14445 0.026046 -0.11585 
-0.0948721 -0.0768102 -0.190342 
-9.42552e-18 6.73206e-18 1 

-0.583049 0.376624 0.420852 
-0.497495 0.372101 0.739029 
4.86047e-18 -1.57031e-18 1 

-0.0360007 -0.0011983 0.00293243 
-0.0123594 -0.0805835 0.0459645 
-2.65608e-18 8.94873e-18 1 

-0.0702676 0.0276778 -0.130356 
-0.132197 -0.047395 0.00417056 
-5.82888e-18 6.42956e-18 1 

-0.0317848 0.0384892 -0.0346034 
-0.0972733 -0.0560891 0.0646089 
7.47799e-18 1.30094e-17 1 

-0.0653835 0.00152185 -0.432558 
-0.00894304 -0.0490221 -0.362418 
1.45737e-18 1.58157e-18 1 

-0.0500868 -0.0137857 0.101874 
-0.0167033 -0.0931183 -0.0475268 
-6.0511e-18 3.94525e-18 1 

-0.549128 1.77958 -0.870571 
0.456794 0.200773 3.44315 
1.80796e-18 -9.45381e-18 1 

-0.057382 -0.0425351 -0.100703 
0.0928267 -0.0722195 0.585827 
3.09445e-18 1.16902e-18 1 

-0.51141 -0.0243369 -0.59285 
-0.00930588 0.179291 -1.1669 
-3.4178e-18 1.02405e-17 1 

-0.178408 -0.29157 1.32206 
0.124426 0.110578 -0.192697 
1.56092e-17 2.45638e-18 1 

-0.215099 -0.0107501 -0.0130714 
0.0243448 -0.079534 -0.267183 
-1.3536e-19 -1.07678e-17 1 

-0.00983353 -0.0643383 -0.0027966 
0.0265844 -0.0366367 -0.0151037 
8.38873e-19 8.8838e-18 1 

-0.0281255 0.00486583 -0.00343391 
-0.00982073 -0.0389508 0.0213401 
8.30604e-18 4.50086e-18 1 

-0.440844 -0.239449 -0.401487 
0.126598 0.250693 -0.0257064 
6.41925e-18 -1.07043e-17 1 

-0.212175 -0.124614 0.262656 
0.187691 0.0171095 0.356295 
-6.4288e-19 2.77103e-18 1 

-1.39534 -0.682383 0.113932 
-0.468951 0.542868 1.06119 
1.14221e-18 1.28498e-17 1 

-0.499731 0.77239 1.6975 
0.0615529 0.27031 0.0463648 
4.28677e-18 7.80266e-17 1 

-0.100757 0.0390531 0.396076 
-0.0417344 -0.0834251 -0.210353 
5.50246e-18 2.79786e-18 1 

-0.10516 -0.0309079 -0.0995368 
0.0323815 -0.0609751 -0.0255663 
1.26043e-17 1.05036e-17 1 

-0.0858014 0.0248216 -0.247392 
-0.00320058 -0.0704254 0.0666917 
3.59828e-18 1.8487e-17 1 

-0.0645259 -0.058957 -0.134894 
-0.0244079 -0.0366554 -0.0438318 
-1.49198e-18 -9.34448e-18 1 

-0.167382 -0.0212348 0.105794 
0.171255 0.0387717 0.00953233 
5.80003e-18 -1.75612e-17 1 

-0.450876 0.574122 0.0389981 
0.0849435 0.139516 3.31728 
3.44514e-18 3.27708e-18 1 

-0.0556556 -0.028382 0.168752 
-0.0307648 -0.0689686 -0.0472022 
-2.40511e-18 -5.92027e-19 1 

-0.0763211 0.0298378 -0.274377 
0.0446316 0.0250532 0.354729 
1.85892e-18 1.15922e-17 1 

-0.0909064 0.0287725 -0.000173877 
0.00428043 0.244314 -0.507245 
-1.64291e-17 4.95151e-18 1 

-0.0829392 0.0436162 -0.407337 
0.00633141 -0.0382884 0.159044 
-5.63132e-18 -1.15604e-17 1 

-0.325227 0.258532 -0.206031 
0.0457481 -0.00472521 -0.573984 
-1.75828e-17 -2.36407e-18 1 

-0.595225 0.344258 -0.166433 
0.0439242 0.34615 -0.286422 
-4.72811e-18 -8.79194e-19 1 

-0.0311854 0.0149985 -0.0994475 
-0.0445317 -0.0641405 0.152976 
-1.2682e-17 -2.9827e-18 1 

-0.0531404 -0.0278237 -0.375125 
0.00436378 -0.0233945 0.0202307 
-1.14706e-17 1.67534e-18 1 

-0.125696 -0.0605021 0.866341 
0.0590292 0.038936 -6.18785 
-1.99542e-18 -2.76824e-18 1 

-0.0848827 0.040882 0.476795 
-0.00956864 -0.0644842 0.802291 
-2.49171e-18 4.98342e-18 1 

-0.0507328 -0.0460847 0.106202 
0.0394269 -0.0516754 -0.0867099 
-7.16841e-18 1.11639e-18 1 

-0.0550573 -0.0262305 0.362051 
0.00696894 -0.0907568 0.466406 
-4.27245e-18 -1.41401e-18 1 

-0.0958692 0.0791284 0.209586 
-0.0644016 -0.0517031 0.0416233 
-2.42239e-18 1.24798e-17 1 

-0.485815 0.217497 0.500647 
-0.151994 0.0375295 -0.0978296 
2.29761e-18 5.59418e-18 1 

-0.0593447 0.0290959 0.0250321 
-0.013803 -0.028068 0.0286865 
2.4566e-19 3.17311e-19 1 

-0.0798618 0.00986812 0.0468679 
0.0145464 -0.100907 0.0143117 
9.3628e-19 3.88556e-18 1 

-0.116823 -0.0146493 -0.204431 
0.0470228 -0.0773668 0.198962 
-1.78055e-17 -1.45992e-17 1 

-0.0778364 0.0235307 -0.158863 
0.00578965 -0.0108459 3.77093 
3.35057e-18 2.97136e-18 1 

-0.0171422 0.0752406 0.372065 
0.0375353 -0.0973123 0.385002 
-6.2912e-18 2.60075e-18 1 

-0.0506649 0.0151334 0.00914748 
0.0170264 -0.09369 0.0487689 
3.43341e-18 9.54372e-18 1 

-0.173806 -0.117813 -2.4439 
-0.00936817 0.0733095 -1.25101 
1.35219e-17 1.53158e-18 1 

-0.245203 -0.0569186 0.266958 
-0.000122103 0.106401 -0.145975 
2.72214e-18 -1.5679e-18 1 

-0.0591629 -0.00355966 -0.333527 
-0.000674101 -0.0135182 1.1966 
1.22715e-19 -1.00013e-17 1 

-0.0962418 0.0556179 0.036371 
0.0517593 -0.0127913 0.440729 
-2.60412e-18 -2.41811e-18 1 

-0.0609822 0.0287161 -0.0130358 
0.0276336 -0.0336008 0.0445624 
8.38048e-18 -1.97188e-18 1 

-0.0794566 -0.0714403 -0.0322881 
0.00364555 -0.0377915 -0.127891 
-1.40132e-17 9.67777e-18 1 

-0.0651643 -0.00480908 -0.0673241 
0.0336845 -0.00693436 0.160424 
2.41841e-18 6.35749e-18 1 

-0.534183 -0.244035 0.353708 
0.348345 0.100334 0.223046 
5.2866e-19 4.93416e-18 1 

-0.302807 0.21719 -0.270155 
-0.0711423 0.005346 -0.495841 
-8.77093e-18 1.34532e-17 1 

-0.0627718 0.0500202 0.0670947 
-0.0613636 0.00415211 -0.0783648 
1.01024e-17 2.44983e-18 1 

-0.051506 -0.0320486 0.0246501 
0.0417317 -0.0497962 0.0414582 
-1.05179e-18 6.76791e-18 1 

-0.0437615 -0.0195306 0.0303763 
-0.0140508 -0.089398 -0.121468 
-5.28463e-18 -1.07712e-18 1 

-0.0667417 0.0205158 -0.129829 
-0.0296873 -0.128854 -0.0873307 
7.80998e-19 -1.10711e-17 1 

-0.107777 -0.0686478 0.194711 
0.037654 -0.00398169 -0.216379 
6.61313e-18 -2.44177e-18 1 

-0.130535 0.0659195 0.0204169 
-0.0473753 0.0552817 -0.198578 
-4.37286e-18 -9.91521e-19 1 

-0.0397549 -0.149126 -0.0196761 
0.102355 -0.0375471 -0.0888892 
-7.336e-19 1.44198e-18 1 

-0.0542065 0.000455785 -2.90896 
-0.00423734 -0.0581555 3.15074 
-4.66934e-18 7.79478e-18 1 

-0.175459 0.126989 -0.847592 
0.104382 0.0468373 -0.086009 
3.38191e-18 -9.72299e-18 1 

-0.189317 -0.157078 -0.37332 
0.156591 0.0557407 0.00618985 
-5.51593e-18 -5.30178e-18 1 

-0.0995211 -0.0181887 -0.372305 
0.130387 0.0227056 0.757931 
4.34352e-18 4.75286e-18 1 

-0.301359 0.139542 -1.14075 
0.134559 0.0178514 -0.84094 
1.12357e-17 1.15557e-18 1 

-0.129741 0.0926133 -0.0916241 
-0.0204992 0.0492933 0.513435 
-7.67091e-18 7.14638e-18 1 

-0.0763095 0.00199377 0.0174848 
-0.0322297 0.0327108 -0.194486 
1.28858e-17 7.68626e-18 1 

-0.191357 -0.0126538 -0.162236 
0.448238 0.165336 0.0806189 
5.53103e-18 -4.40915e-19 1 

-0.0864594 -0.0449264 0.867025 
0.117587 -0.00448972 -0.894201 
5.18534e-18 1.51458e-18 1 

-0.0237979 0.113901 0.0803141 
-0.00553999 -0.0970835 0.0700084 
1.59542e-18 2.07947e-18 1 

-0.0653644 0.0181916 -0.202677 
-0.134643 -0.0544725 -0.465034 
-6.67511e-18 -4.5057e-18 1 

-0.122365 0.0203593 0.279585 
0.0186596 -0.0386102 -0.345314 
-2.88281e-18 -4.93155e-18 1 

-0.0298491 -0.0346581 -0.145478 
0.0622893 -0.0466181 0.0624351 
-9.80309e-18 -6.40971e-18 1 

-0.0243953 -0.0692936 0.0300276 
0.149502 -0.0445772 0.124494 
-8.85193e-18 -6.36167e-18 1 

-0.0446737 -0.0215618 -0.940876 
0.00281479 -0.0478875 -0.74276 
-7.67868e-18 -4.37738e-18 1 

-0.0340232 -0.0112302 0.0151082 
-0.0286846 -0.0474345 -0.2512 
2.62426e-18 5.91197e-18 1 

-0.250317 -0.117604 -0.27104 
0.0878431 0.0978447 0.143886 
-1.64652e-18 7.54655e-18 1 

-0.380239 0.251969 0.847205 
-0.335675 -0.0279552 -0.0101856 
1.38921e-17 -2.53034e-18 1 

-0.0920642 0.0038565 -0.188216 
0.00130338 -0.108461 0.193264 
2.31261e-17 9.52836e-19 1 

-0.0706544 -0.0150344 0.156706 
0.0252063 -0.0672453 -0.0159854 
7.77385e-20 8.74558e-19 1 

-0.0268561 0.0672787 -0.0393881 
0.102985 -0.0260045 -0.350086 
-9.07089e-18 8.4888e-20 1 

-0.0569362 -0.0295156 6.17034 
0.0780481 -0.0125986 2.18108 
2.24391e-18 -3.33946e-18 1 

-0.102094 0.0145108 0.158889 
0.0437441 -0.01537 -0.406272 
6.55745e-19 3.52482e-18 1 

-0.0574232 -0.0287523 -1.65098 
0.00318405 -0.0599502 -0.820478 
-1.25094e-19 -5.3853e-18 1 

-0.0675557 0.0279912 0.133883 
0.0309152 -0.0183355 1.15951 
1.60714e-18 1.92912e-18 1 

-0.0605795 -0.0319861 -0.470666 
0.0177176 -0.0742339 0.531201 
-3.2863e-18 5.84359e-18 1 

-0.146116 -0.0299584 -0.336586 
0.050272 0.0511442 -0.0447601 
4.57407e-18 -6.07697e-18 1 

-0.174469 -0.219071 -0.864868 
0.0604399 0.051301 1.80642 
-6.40036e-18 -2.47415e-18 1 

-0.049782 -0.00887391 4.36638 
-0.0379742 -0.0388302 3.61593 
-4.4955e-19 3.3529e-18 1 

-0.168296 -0.0352695 -0.316822 
-0.0200336 0.378321 -1.53741 
-2.07556e-18 1.25425e-17 1 

-0.250382 0.175609 0.629698 
0.0075469 -0.126311 -0.205796 
1.29727e-17 5.20785e-17 1 

-0.16365 -0.0702676 -1.65752 
0.0284652 0.0413375 10.5638 
-3.01543e-19 -6.04363e-19 1 

-0.234249 0.0266788 0.173238 
0.000464365 -0.12032 -0.867789 
1.14316e-17 3.34999e-17 1 

-0.129434 0.0121084 -0.721146 
0.0352812 0.000628681 0.402245 
-1.48402e-17 9.78477e-19 1 

-0.12896 0.00695517 -0.514813 
-0.00434762 0.0381031 -1.79284 
-2.23478e-18 9.69237e-18 1 

-0.118103 -0.0453947 -0.549579 
0.0592296 -0.0244363 -0.266144 
8.74386e-18 -5.23355e-18 1 

-0.790536 -0.321845 -0.697489 
0.220682 0.333308 -0.403949 
-2.04376e-18 1.60231e-17 1 

-0.0756279 -0.0496871 0.239368 
0.0109966 -0.0288763 0.0043887 
-5.09199e-18 3.51447e-18 1 

-0.0743487 -0.0071219 0.128127 
-0.0172316 -0.0439884 -0.0237336 
-5.12167e-19 2.7657e-18 1 

-0.0425954 -0.0377457 -0.133861 
0.00481123 -0.105212 0.395184 
-5.07013e-18 9.20628e-18 1 

-0.0581364 0.0135637 -0.0739621 
-0.0101975 -0.0858088 0.0286192 
-5.16707e-18 -5.33864e-18 1 

-0.0687943 -0.0113998 -0.271817 
-0.00102491 -0.0668949 -0.0308729 
8.73377e-19 6.02006e-18 1 

-0.068539 0.0600274 0.26308 
-0.00144461 -0.0146195 -0.0345713 
-4.32619e-18 -6.3045e-19 1 

-0.0306411 0.0340929 -0.228429 
0.0428272 -0.058686 -0.47095 
4.66676e-18 4.39622e-18 1 

-0.174116 -0.03553 -0.0263901 
-0.0600921 0.0799867 0.564015 
-1.30194e-18 -2.96553e-18 1 

-0.0841279 -0.006137 -0.0697227 
0.0440191 -0.0209817 0.0643796 
6.17676e-18 -4.3343e-18 1 

-0.070089 -0.0136592 0.147393 
-0.046585 -0.0696766 0.329721 
1.12098e-17 3.83366e-18 1 

-1.2413 0.709129 14.6071 
0.00618373 0.645153 3.94065 
-2.78043e-18 -5.48254e-18 1 

-0.0738833 -0.00728073 0.0462921 
-0.0167643 -0.0716158 -0.15886 
-6.5953e-18 -2.35371e-18 1 

-0.0181811 0.0972179 0.875425 
-0.100134 -0.0729605 -0.136028 
-6.58e-18 -2.13961e-18 1 

-0.102951 0.0850682 -0.0441445 
-0.0426776 -0.0867173 -0.0513701 
-7.21103e-18 -1.15352e-17 1 

-0.0516471 0.0897406 -0.228698 
-0.113834 -0.0386419 0.146549 
4.4342e-18 3.90324e-18 1 

-0.178537 0.049334 -0.0703999 
-0.129339 -0.0543716 -0.0911733 
-2.86983e-18 -1.01199e-17 1 

-0.0489435 -0.0221805 0.0330644 
-0.0428343 -0.0847054 0.00722072 
8.5226e-18 2.0387e-18 1 

-0.063021 -0.0116327 -0.143948 
0.016607 -0.0767406 1.04981 
5.78025e-18 7.32791e-19 1 

-0.119993 -0.0857414 -0.00470442 
0.11373 -0.0503816 -0.358067 
-1.28758e-17 -3.90175e-18 1 

-0.0954625 0.00487374 0.111502 
-0.0731805 -0.0641906 0.134316 
-3.66763e-18 -3.21722e-18 1 

-0.0835015 -0.0207383 0.342717 
-0.0508555 -0.0572705 0.287534 
-1.16545e-17 7.09782e-19 1 

-0.165769 -0.489586 0.0524469 
0.466391 0.218126 0.0080841 
-1.4286e-17 -1.06612e-17 1 

-0.0460493 0.01588 0.0452574 
-0.0359693 -0.0492874 -0.081348 
-9.55959e-18 1.20885e-17 1 

-0.287799 -0.0591018 0.333574 
0.0218469 -0.036999 0.445486 
-9.03175e-18 4.95861e-18 1 

-0.143411 -0.192663 0.268178 
0.268585 0.0326957 -0.872653 
-1.33503e-17 -8.15346e-18 1 

-0.0800444 -0.0909212 0.0156471 
0.0739433 -0.0583112 0.0572829 
-4.94605e-18 5.21654e-18 1 

-0.388211 -0.32721 -0.571357 
0.116077 0.15307 -0.128172 
-6.60987e-18 -1.22936e-17 1 

-0.261473 -0.218619 -0.0437362 
0.239888 0.206563 0.631507 
2.21944e-18 -5.33444e-18 1 

-0.186212 0.672988 -0.151202 
-0.668923 0.387854 -0.0533442 
1.4491e-17 -3.78648e-18 1 

-0.0466821 0.0564649 0.459077 
-0.0237428 -0.0572446 0.012118 
-2.85317e-18 -7.85077e-18 1 

-0.0467703 0.0728699 -0.0390685 
0.0137 -0.0945782 -0.541901 
5.89537e-18 5.58712e-18 1 

-0.0407766 0.0443105 -0.208733 
-0.139938 -0.0447226 0.380292 
1.41424e-18 7.07121e-18 1 

-0.0801801 -0.0314364 -0.0587398 
-0.0564541 -0.0652124 0.281909 
9.81268e-18 -1.42903e-18 1 

-0.120085 -0.165935 0.116654 
0.159985 0.0139068 0.734599 
-5.80158e-19 -1.65122e-18 1 

0.0231421 -0.0955474 -0.201754 
0.00323433 -0.168091 0.336242 
-6.67168e-19 1.00717e-18 1 

-0.0585726 0.0246495 0.106449 
-0.00142755 -0.0448226 -0.0685294 
2.79651e-19 -6.89806e-18 1 

-0.220222 -0.0332738 -0.171011 
0.0110697 0.0139015 0.194695 
-6.72861e-18 -1.27181e-17 1 

-0.114605 -0.159927 -0.051415 
-0.0213744 0.0825835 0.540344 
-1.72071e-18 2.49503e-18 1 

-0.0750698 -0.0395401 0.12686 
0.0845579 -0.0253976 0.188852 
2.30014e-18 -4.71528e-18 1 

-0.0205846 0.0240181 -0.127472 
-0.0288305 -0.064859 -0.152826 
-4.23544e-18 5.08253e-18 1 

-0.0870605 -0.0353705 0.560095 
-0.0121321 -0.0165239 0.612254 
-4.53143e-18 -1.70997e-19 1 

-0.0749078 -0.0181772 -0.0580947 
0.0735805 0.00227463 0.215477 
6.05937e-18 -9.51395e-18 1 

-0.835917 0.532317 -1.83382 
0.220597 0.153894 1.27163 
-1.58803e-17 4.62737e-18 1 

-0.205458 -0.0711017 0.502803 
-0.0466364 0.11413 0.685135 
1.97241e-18 1.16935e-17 1 

-0.0334392 0.0220899 -0.0341456 
-0.064803 -0.0456239 -0.0657623 
-1.31357e-18 -9.27478e-18 1 

-0.106183 0.0103309 0.0423403 
0.000212115 -0.0441978 -0.684177 
4.4227e-18 -1.2482e-17 1 

-0.034934 0.0305991 -0.236677 
0.00371526 -0.0944209 -0.146563 
1.08499e-18 1.23891e-17 1 

-0.0540686 -0.00317416 0.502985 
-0.0219404 -0.032178 -0.567674 
1.60498e-18 -1.58815e-18 1 

-0.151833 -0.00338187 0.657272 
0.0196613 0.0326768 -0.386831 
-6.05362e-18 5.81307e-18 1 

-0.0536748 0.0390217 -0.215911 
-0.0356199 -0.0117378 -0.148652 
-1.0207e-17 3.14898e-18 1 

-0.0671444 -0.0161703 0.00235289 
-0.00824985 -0.183231 0.149826 
2.2147e-17 -9.1713e-18 1 

-0.111443 -0.0679305 0.799477 