# vtk DataFile Version 3.0
Output file generated by Yade's KinematicLocalisationAnalyser
ASCII
DATASET UNSTRUCTURED_GRID

POINTS 13483 float
569.338 40.194 -0.421805
683.745 76.3962 -0.544475
119.223 5.90748 -0.48152
714.583 6.01589 0.358553
486.731 9.08147 0.49726
312.839 36.8969 0.455579
155.38 6.87033 0.446527
542.346 11.851 0.199685
483.445 29.3656 0.142219
654.262 17.1221 -0.494958
209.488 8.82263 -0.0943159
255.865 6.22743 -0.258755
601.413 51.4993 -0.136313
586.967 31.4656 -0.112514
136.048 18.1485 -0.456737
219.497 36.485 0.397026
216.791 13.0916 -0.258875
287.275 10.1546 0.390821
340.162 33.8031 0.457225
507.236 10.1484 0.385241
408.035 39.8601 -0.099421
555.213 50.8528 0.296321
709.516 56.6046 -0.496417
633.242 54.3375 0.464331
451.578 17.2017 0.292795
239.434 45.5661 -0.139539
479.689 36.231 -0.461015
554.461 23.2044 -0.218792
44.511 16.2215 0.510216
650.308 40.1581 -0.405289
472.911 4.92044 0.460474
15.3674 24.4186 0.334477
697.919 74.5111 0.251918
484.592 2.4767 0.47381
78.0416 45.0433 0.107189
506.058 34.4896 0.356675
513.106 21.1512 -0.464008
342.801 23.2678 0.195549
518.212 30.6686 -0.351632
350.236 36.7463 -0.442659
240.629 14.7365 -0.316947
426.908 43.6798 0.0932337
616.188 5.54083 0.227445
191.851 6.25089 0.373049
55.0125 7.1662 -0.0955383
68.3306 9.04671 0.295305
629.339 8.49558 -0.518597
22.9001 11.7902 0.262633
556.399 65.5156 0.356075
619.773 33.8908 -0.423451
171.02 32.8611 0.288657
678.324 64.6927 0.114763
34.6033 28.2172 -0.115951
514.656 2.56268 0.516098
140.953 7.22821 -0.491236
564.543 40.9469 0.459335
488.991 33.192 -0.112509
174.09 0.972418 0.276763
32.4334 2.41952 0.296832
347.244 18.5552 0.263993
570.828 74.9406 0.135247
456.128 36.5062 -0.178287
395.848 1.03653 0.202332
638.167 9.51145 -0.518197
26.9312 43.2637 -0.238359
255.644 32.1994 0.286502
655.232 10.443 -0.238493
622.6 73.2698 0.363261
414.033 8.65023 -0.527901
543.707 5.36113 -0.497758
674.381 46.6221 0.379763
129.936 7.95136 0.245528
485.498 32.3302 -0.129104
470.223 17.5806 -0.0935808
293.525 17.0391 -0.355125
20.1398 13.8113 -0.277235
698.081 66.166 -0.319139
331.73 39.3899 -0.331626
618.329 33.0538 0.358194
628.014 15.225 -0.233908
708.541 29.5737 -0.240157
458.644 39.7997 -0.189007
92.4797 39.7673 -0.268678
627.391 48.6732 -0.205655
600.16 63.0188 -0.0960747
713.779 61.5861 0.121724
703.023 0.755694 -0.53319
289.83 28.94 0.50453
589.036 7.85656 -0.13511
23.8548 5.2291 0.568694
133.455 39.7346 0.153423
499.434 16.3023 0.220007
692.514 49.5064 -0.475611
195.671 29.6913 -0.220997
44.588 35.0603 -0.273676
483.48 1.15996 0.178499
235.77 8.79118 -0.419809
657.999 70.9721 0.239603
686.449 38.7009 0.276265
359.763 23.2201 -0.254764
162.601 27.5721 -0.448673
530.073 62.6777 -0.451435
378.259 16.1462 -0.497363
411.741 31.3578 -0.0979142
376.141 5.75598 0.398917
526.132 13.649 0.138208
718.236 14.7656 0.280941
80.3226 39.9331 -0.413083
334.756 5.02666 -0.214956
537.017 13.2846 0.447437
359.243 48.5933 -0.150365
24.7739 24.5396 -0.486774
30.1681 5.68305 0.312007
541.227 47.8735 0.407117
491.502 30.5039 -0.14729
25.8385 36.7833 0.419666
93.636 31.3483 0.229493
324.839 16.3785 -0.284202
572.23 21.0106 0.121026
464.611 49.9591 -0.219465
668.39 11.0973 0.439593
662.278 6.83366 0.309984
386.415 37.7514 -0.10858
590.808 46.4083 0.089633
238.573 17.3608 -0.481538
330.184 3.85676 0.46625
103.348 33.2842 0.326727
116.767 25.8446 -0.268329
525.742 61.8827 0.0743743
307.226 19.314 0.452418
651.394 46.0498 -0.113624
627.268 74.1443 0.0898331
473.028 26.745 -0.360617
697.854 13.4135 0.552502
425.173 27.1614 0.234278
277.131 25.8004 -0.306487
623.453 57.5479 -0.287978
279.936 30.0995 0.377107
552.726 14.7188 -0.285732
333.294 36.2668 0.184791
494.153 13.5441 0.475135
367.184 34.1895 -0.0876883
429.472 17.3285 -0.106874
319.291 43.3035 0.436465
191.695 30.0274 -0.12246
688.521 74.5414 0.158978
715.957 17.3464 -0.323905
6.07057 12.8007 -0.447797
431.131 25.2764 -0.398305
38.3861 22.6432 -0.081579
376.826 32.8695 -0.495613
396.113 25.8773 -0.270734
74.9447 11.9947 -0.514053
51.7119 35.653 -0.501232
227.275 13.4599 0.427941
570.787 68.3641 0.405193
551.343 25.7388 -0.532277
74.5709 21.7542 0.478853
636.688 56.5876 0.458886
686.145 2.20081 -0.433823
616.964 66.5775 0.493254
635.849 1.91683 -0.548912
531.253 40.2831 -0.40044
553.988 49.8554 -0.4766
502.121 22.2863 -0.390418
713.885 4.24536 0.388733
225.227 26.0685 -0.141294
129.005 36.7589 -0.191605
248.793 6.86383 -0.402387
94.8661 4.46356 0.288614
64.6172 9.97886 0.240305
277.658 37.5321 -0.3096
15.9417 26.0514 -0.360136
533.721 27.2133 0.445088
560.947 64.2667 0.285886
460.757 24.5494 -0.368962
710.807 75.9141 -0.347808
407.346 8.75616 -0.113744
432.225 41.4836 -0.406814
522.403 3.41764 -0.297219
21.9182 24.0814 -0.406596
553.84 6.29899 0.510421
530.431 7.99086 -0.453106
207.954 11.4951 0.550158
425.607 17.361 -0.184534
313.395 6.34204 0.366888
388.948 20.0482 -0.395437
664.076 60.0298 0.107135
194.201 25.8609 -0.395295
705.33 11.4135 -0.353989
666.255 57.248 -0.337615
384.548 10.685 0.18482
653.318 2.32503 0.474446
573.302 37.9239 -0.441525
671.312 25.8507 0.420377
430.601 49.7805 -0.261823
488.461 15.7129 0.381719
456.661 51.6108 0.226649
445.048 8.92095 -0.32274
620.644 66.8717 0.275893
619.726 62.6413 0.310026
193.926 39.46 -0.329833
706.328 29.2397 -0.129768
556.695 46.6576 0.368395
11.5064 18.0192 -0.200207
409.754 26.2223 0.357141
188.944 23.5001 0.405613
94.0179 40.985 -0.215301
690.269 42.1158 0.431338
613.976 71.3908 -0.228545
321.64 26.1125 0.358225
518.694 10.5524 0.292083
83.1615 45.1923 0.174797
249.592 26.8084 -0.473668
535.425 32.4794 0.364556
480.514 22.5749 0.417671
265.33 0.911532 -0.347606
539.594 63.1275 0.0386577
519.656 58.2194 0.400053
476.728 43.3657 0.381205
493.898 2.73316 -0.642092
643.47 20.9952 -0.383539
180.917 12.5308 -0.170955
491.851 44.0219 0.440203
545.028 52.2495 -0.133126
73.6801 0.940285 -0.260754
254.109 4.70782 0.186207
715.781 20.8813 0.18065
708.809 31.5519 -0.37892
720.536 24.053 -0.559473
305.977 8.59095 -0.2402
677.465 28.4475 -0.443748
407.607 47.3264 0.319123
449.999 0.93346 0.537749
605.124 59.461 -0.419211
26.5858 30.4911 0.352039
333.865 40.8738 -0.564323
254.971 2.82624 0.361416
701.737 72.6203 -0.190156
644.26 56.03 -0.245914
289.854 11.4749 0.261911
615.475 51.593 -0.0808062
540.132 2.67456 0.262447
527.787 8.22734 0.562095
97.9872 18.6436 -0.50062
305.796 1.03994 -0.228037
345.834 2.24813 -0.372875
13.6884 7.63988 -0.447816
4.4984 32.9195 -0.249392
162.983 19.1052 -0.384885
69.2514 42.6537 -0.219433
67.098 29.9348 -0.313864
425.373 14.648 -0.465565
369.193 38.3965 0.465476
674.772 66.9517 -0.116383
19.3313 4.02082 -0.268677
71.3613 7.03498 -0.135714
579.58 62.1151 -0.142494
297.084 0.952256 0.367941
366.613 16.4397 -0.114286
238.261 4.7246 -0.344353
608.026 40.5522 -0.183931
451.921 9.29716 0.457741
679.341 26.6677 -0.425853
587.055 51.0707 -0.28559
617.983 26.0079 -0.0856034
422.044 31.1903 0.49573
103.489 46.7131 -0.306486
528.257 66.3952 0.00793388
667.206 20.5015 0.224638
239.712 31.35 -0.232404
31.6707 16.8237 -0.170726
339.531 14.1657 0.489133
109.014 42.1206 -0.486991
270.671 44.046 -0.205507
427.949 2.19148 -0.249193
694.232 59.5952 0.405875
630.848 0.741342 -0.534561
335.228 3.49073 0.575804
303.105 27.629 -0.144214
458.179 48.3248 0.198858
82.5578 8.22073 0.476613
199.532 46.0776 -0.389936
686.165 46.9572 -0.406741
488.118 48.021 0.0719971
202.241 42.2175 -0.274608
162.444 43.7253 0.390363
717.568 54.615 -0.432318
716.975 15.8207 -0.558926
581.749 2.80834 -0.646472
192.681 24.7386 -0.0932374
533.141 42.534 -0.106774
532.137 38.7679 0.286828
411.772 5.64325 -0.132163
479.257 0.903742 -0.38309
673.589 69.6471 -0.532925
86.2268 31.5306 0.219538
608.96 30.6665 0.397552
276.664 15.854 -0.34074
9.20368 2.35675 0.343038
127.588 38.6235 -0.187317
66.5588 23.2807 0.464238
639.562 42.0108 0.310198
702.203 83.15 0.176227
187.872 28.6562 -0.180025
713.879 20.462 -0.315196
45.7894 37.5151 0.263801
92.4913 29.7294 0.152173
596.48 31.1576 0.392219
417.122 17.7715 -0.54009
509.786 20.5632 0.121089
240.249 29.4376 0.186522
593.86 7.53916 -0.513577
719.766 16.2056 0.510013
29.6528 31.4704 0.2548
273.09 7.76977 0.196043
225.032 15.4142 -0.231494
1.09168 39.1246 0.14726
228.327 14.4106 -0.412583
214.349 11.0757 0.111136
216.497 27.3351 -0.273064
134.706 29.2266 0.133089
531.673 20.4415 0.328064
168.535 14.3681 -0.328327
695.482 72.2854 -0.227586
176.107 3.96447 -0.500359
47.4681 40.113 -0.341891
651.452 81.4269 -0.426283
285.068 33.5159 0.413348
621.167 35.0638 -0.410124
698.787 56.2667 -0.469456
304.041 9.25884 -0.0960733
669.206 44.6505 0.393877
332.203 2.50606 -0.434126
419.205 24.8181 -0.37327
619.126 20.3902 0.449431
106.926 11.6538 0.512941
480.358 3.69965 -0.67332
682.027 21.9726 0.255923
89.4308 7.73739 -0.279877
284.692 15.2851 0.183704
426.027 12.2209 -0.255486
713.977 2.46917 0.475093
400.8 2.00776 -0.53254
178.661 39.2523 0.306963
669.007 16.8248 -0.371743
130.826 37.8553 -0.214886
266.277 33.2022 -0.374776
404.454 22.0348 0.227917
553.533 16.5008 -0.340538
389.96 9.4087 -0.612384
457.594 31.4649 -0.438756
684.636 77.097 0.391257
48.0911 11.0201 0.16199
302.587 39.8077 -0.278922
382.865 26.9074 -0.386119
413.342 21.1722 0.246936
509.807 51.1709 0.380327
667.246 68.1127 0.213132
624.626 63.5334 0.36001
227.838 35.7388 0.416115
13.889 34.0283 -0.153445
617.739 62.8811 -0.134305
503.047 45.5945 -0.48236
232.421 40.0678 0.0960614
625.411 43.6826 -0.125503
152.646 9.33145 -0.199398
370.578 22.7855 0.264222
458.473 50.4417 -0.154019
417.068 19.5052 0.209026
680.718 78.5028 -0.290644
428.656 4.22238 0.632159
50.451 25.7392 0.328629
470.003 39.1441 -0.329251
435.596 45.2647 0.360807
699.403 67.545 0.21753
665.63 45.0405 0.258714
526.477 24.2948 -0.140657
689.528 67.5747 0.410425
296.658 2.30438 -0.457681
383.151 29.9472 -0.46968
28.9945 38.6807 0.311147
670.7 45.9188 -0.137137
581.259 24.6105 0.501603
461.899 0.774427 0.561104
127.242 4.73828 -0.345386
427.93 48.0496 -0.100288
11.6273 0.910443 -0.314721
712.659 8.57358 -0.137502
[...]
POINT_DATA 13483
TENSORS Strain_matrix float
-2.30262 0.12708 -0.497488 
1.11968 0.647135 1.41397 
1.47919e-17 1.25888e-18 1 

-0.613189 -0.330835 12.998 
0.0994976 0.687295 -62.6573 
-1.05881e-18 2.4597e-18 1 

-0.165507 -0.0555515 0.591986 
0.0718561 -0.0168293 0.864928 
1.09327e-17 7.61642e-19 1 

-2.01442 -1.25266 0.448304 
0.404081 0.696857 -0.500069 
1.7328e-17 -7.82722e-18 1 

-0.986621 -0.423253 1.40139 
0.310154 0.28254 0.237477 
1.02786e-17 1.27612e-17 1 

-0.130255 0.0428318 -0.699711 
-0.0442952 0.0123387 -4.34758 
-1.87002e-18 9.888e-19 1 

-0.101001 -0.0121536 -0.473687 
-0.0402692 -0.079988 0.0382673 
-1.08551e-17 1.90207e-18 1 

-0.196339 -0.123103 -0.142425 
0.142652 -0.115287 -0.114235 
-8.80284e-18 3.62031e-18 1 

-0.262737 0.0723759 0.457779 
0.0432549 0.229712 1.33047 
7.99535e-19 -1.99163e-18 1 

-1.00067 0.183303 -0.0524371 
0.010785 0.377891 -1.50092 
-1.14191e-18 9.0694e-18 1 

-0.107254 0.00359618 0.0712461 
0.0323518 -0.0544433 0.0771501 
-1.1445e-18 5.72252e-19 1 

-0.13616 -0.041801 0.225322 
-0.111783 -0.112689 0.0909886 
-1.04168e-18 -1.10296e-18 1 

-0.737442 -0.529607 1.45298 
-0.139539 0.337389 0.0988133 
3.57337e-18 5.54747e-18 1 

-0.969017 -0.556794 -1.3402 
1.13738 0.822197 -0.398663 
-7.26285e-19 1.77032e-18 1 

-0.121589 -0.0663679 -0.612311 
0.0551136 -0.0522993 -0.330007 
-7.10205e-18 -1.97566e-17 1 

-0.134696 -0.0888881 1.17519 
-0.000187622 0.0777936 -0.250134 
-7.84532e-18 -7.60758e-18 1 

-0.0840148 -0.014498 0.164285 
0.00599078 -0.0808961 -0.0261403 
-7.29311e-18 6.03006e-18 1 

-0.176127 -0.0342585 0.0660597 
0.0607595 -0.0758159 -0.0744526 
-8.11939e-18 -3.59837e-18 1 

-0.0394652 -0.0498865 -0.482019 
0.226665 -0.0192144 0.877576 
3.26596e-18 2.81519e-18 1 

-0.220211 0.341676 0.534832 
-0.446451 0.0112889 -0.435435 
8.24724e-18 1.85901e-19 1 

-0.201946 -0.174369 0.0464608 
0.0807259 0.0245846 0.173291 
1.09287e-17 -6.70153e-18 1 

-2.38251 -1.10881 0.83069 
0.139414 1.29717 4.47738 
1.51294e-18 9.8341e-19 1 

-0.752698 0.144453 -0.0585621 
-0.290522 0.291466 5.97635 
-4.77294e-18 9.2211e-18 1 

-1.50087 1.59541 -13.0078 
-1.5368 1.65464 -8.655 
-3.67592e-19 -1.23805e-17 1 

-0.0635137 -0.102786 0.263803 
0.0691831 -0.0404056 0.0539651 
-4.32123e-18 -7.35075e-18 1 

-0.22999 -0.0362686 0.034082 
0.0207047 0.0564626 0.0706774 
3.02544e-18 -6.5403e-18 1 

-0.494762 0.0530976 0.0151073 
-0.170226 0.26851 1.11725 
1.74152e-19 1.31786e-17 1 

-0.140044 -0.477744 -0.470128 
0.242236 -0.163421 1.18113 
1.0032e-17 4.66663e-18 1 

-0.0994894 -0.0230652 -1.80634 
0.0446774 -0.0484042 2.79664 
-4.08126e-18 -7.26271e-18 1 

-0.891759 -0.623755 -0.0793986 
0.383264 0.493422 0.144371 
-1.98058e-17 -1.10974e-17 1 

-0.159171 -0.155604 -0.169003 
-0.059719 -0.346449 -0.141749 
-2.38658e-18 1.27426e-17 1 

-0.149939 0.167194 -0.397805 
-0.203611 -0.0551165 -0.138712 
2.88207e-18 -6.10967e-18 1 

-0.05001 -0.409738 -0.708348 
0.321866 0.0934342 0.627569 
-2.55481e-18 1.59261e-19 1 

-0.353346 -0.110378 -0.433 
0.0343383 0.254556 -0.231193 
-8.37982e-18 -5.72185e-18 1 

-0.0783049 -0.0251354 -0.00509313 
-0.0250074 -0.0956334 -0.178594 
5.88518e-18 7.84691e-18 1 

-0.0187121 0.301667 -0.898427 
-0.0855019 -0.0242265 1.51603 
6.28723e-18 -4.95238e-18 1 

-0.638787 0.300179 4.94805 
0.127869 0.0895884 -1.07996 
-1.27632e-17 1.69119e-18 1 

-0.184903 0.129202 0.321789 
-0.0268979 0.144267 0.0743871 
-1.69073e-17 -2.56129e-18 1 

-0.761716 0.309144 -0.0376749 
0.438182 0.313923 -1.98323 
-6.90488e-18 2.18654e-18 1 

-0.191801 -0.107433 2.55689 
0.169973 0.112223 1.72887 
-2.8323e-18 8.31671e-18 1 

-0.185582 -0.0245264 -0.177036 
-0.0545839 0.0332277 0.280661 
-4.26276e-18 5.17793e-18 1 

-0.107186 0.456593 -0.0104831 
-0.347976 0.0852683 0.336292 
1.96272e-17 1.90125e-17 1 

-0.285851 0.208684 0.0394713 
-0.63152 -0.105442 0.470377 
4.49294e-18 3.19778e-18 1 

-0.079702 -0.0181972 0.503979 
-0.00382658 -0.0779528 -0.18815 
-2.73829e-18 1.09178e-18 1 

-0.118088 0.0593216 -0.025778 
-0.0678066 -0.0560921 0.0815379 
-4.69645e-18 -4.84795e-18 1 

-0.0853045 -0.0118993 -0.112337 
0.0340366 -0.0574984 -0.0179614 
-9.84804e-18 4.35674e-18 1 

-0.805362 -0.482788 0.0765104 
0.151866 0.30253 -0.579469 
1.36856e-17 -1.89183e-17 1 

-0.082824 -0.0702786 -0.00549971 
-0.0750814 -0.0693241 -0.0833903 
5.28135e-18 -2.83732e-18 1 

-0.858211 -1.24052 17.0138 
0.830269 0.714913 -0.76269 
-2.54548e-18 -8.75727e-18 1 

-1.31852 0.337746 -1.28313 
-0.559953 0.608217 -1.74421 
1.04564e-17 -9.48427e-18 1 

-0.0682581 -0.0541328 0.170663 
0.00187005 0.0565568 0.88658 
1.39016e-17 5.56063e-18 1 

-0.94438 0.314603 -0.0471217 
0.348238 0.187409 -0.514635 
-5.44079e-18 1.00881e-17 1 

-0.119587 -0.00507805 -0.239623 
0.0034611 0.0314611 0.291757 
8.72138e-18 -3.04279e-18 1 

-0.282982 0.334949 0.0530848 
-0.0970548 -0.0684436 0.101331 
2.14567e-18 -2.18468e-17 1 

-0.131248 0.0272138 0.160297 
0.0293797 -0.142361 0.521112 
6.33121e-18 7.20175e-18 1 

-0.811788 -0.221923 -6.66511 
1.17079 0.495503 0.0593632 
-1.09835e-17 1.51674e-17 1 

-0.654253 -0.112123 -1.00202 
-0.110068 0.38961 0.970899 
-5.7097e-18 -8.78416e-19 1 

-0.103815 0.0294693 -0.0934461 
0.0100298 -0.0515953 0.0874743 
-8.66298e-19 -1.9613e-17 1 

-0.0606341 0.0149614 0.0143536 
0.0155589 -0.13421 0.205411 
-1.16233e-17 3.43127e-18 1 

-0.0940154 -0.077469 -0.207469 
-0.0542083 -0.0812391 0.245173 
1.30953e-18 1.77723e-18 1 

0.150946 -7.34869 23.2644 
-0.0467427 1.10122 -1.63491 
1.18857e-18 -1.27484e-17 1 

0.0353829 -0.409893 0.916502 
0.685855 0.152604 -0.077041 
-6.72809e-18 -1.05484e-17 1 

-0.119306 -0.0734359 -0.365925 
-0.0219639 -0.0565254 -0.10686 
6.03032e-19 1.50088e-17 1 

-0.52693 -0.166639 -0.486943 
0.0471142 0.108248 1.12367 
-2.01916e-18 1.89695e-18 1 

-0.335477 0.0919369 0.122717 
-0.100129 0.0948404 -0.721127 
4.46557e-18 -1.05072e-17 1 

-0.106426 0.106232 0.3049 
-0.019057 0.0837445 0.0213047 
-5.69203e-19 -3.6429e-18 1 

-0.812141 -0.29135 0.0114081 
0.213764 0.317625 -0.505435 
5.14104e-18 1.13378e-17 1 

-0.0818642 -0.385089 -0.000174478 
0.375427 0.0997423 -0.187347 
1.31508e-17 -1.11697e-17 1 

-0.156407 0.0252831 1.04842 
-0.0597821 -0.0660112 1.28181 
1.75224e-18 5.58337e-18 1 

-0.352188 0.0369659 1.58493 
-0.0993437 -0.145466 -0.748851 
-6.98306e-18 -1.5476e-17 1 

-1.55176 0.351783 7.94961 
0.0917488 0.881468 2.43184 
-1.9494e-17 -2.45453e-18 1 

-0.108706 0.0144158 -0.0256063 
-0.0480012 -0.019367 -0.0787995 
1.14318e-18 7.48573e-18 1 

-0.56846 -0.0838733 0.224511 
-0.246999 0.324029 0.945405 
-2.65262e-18 -3.24098e-20 1 

-0.211852 0.520204 -0.799324 
-0.366033 0.336206 0.672002 
-5.31399e-18 1.89144e-18 1 

-0.0865347 0.0189571 -0.215296 
-0.0433949 -0.0430063 -0.435266 
1.50523e-18 -1.13886e-17 1 

-0.110549 -0.0202291 -0.0726144 
0.00814357 -0.057176 -0.0621315 
-3.35434e-18 1.69171e-18 1 

-0.259354 3.41092 -10.1217 
-0.0148826 0.125365 3.07042 
-1.43876e-17 7.07037e-18 1 

-0.115117 0.0211927 -0.142112 
-0.0163933 -0.0806915 0.612273 
3.38489e-18 1.2709e-17 1 

-1.54214 0.422499 4.42276 
-0.712446 0.530738 0.343037 
-8.42302e-19 3.44441e-18 1 

-0.0881584 -0.773496 1.31619 
0.295885 0.244882 0.870135 
1.03604e-18 -4.97875e-18 1 

-0.15655 -0.118401 -1.11671 
0.151238 -0.0861497 0.573019 
7.05355e-18 1.09827e-17 1 

0.0983751 -0.509318 1.15424 
0.644856 0.212634 0.388271 
6.81527e-18 -7.96082e-18 1 

-0.110362 -0.0729688 0.158847 
0.127597 0.0320054 -0.0691277 
-9.20832e-19 -4.56031e-19 1 

-2.21707 1.83458 -2.76888 
-0.540039 1.39248 0.230128 
5.10637e-18 3.64447e-18 1 

-0.198987 -0.355468 0.177489 
0.319079 0.0974216 0.379776 
9.88285e-18 -6.00535e-18 1 

-1.59859 -1.28484 2.41108 
-0.419436 0.400976 1.21247 
1.27774e-17 3.62967e-18 1 

-3.11466 -3.66496 -0.819815 
0.0205539 0.726079 1.73586 
2.12503e-17 -1.6675e-17 1 

-0.170295 0.0264671 -0.993149 
-0.00717886 -0.0145346 2.49877 
1.0316e-18 2.88241e-19 1 

-0.78175 0.0228529 -0.631107 
0.510858 0.284854 -0.120311 
-5.60871e-18 4.20095e-18 1 

-0.121447 0.0414729 -2.92519 
-0.00803586 -0.028446 17.8149 
-2.90615e-18 -1.62624e-18 1 

-0.123638 -0.118016 -0.113104 
-0.0693392 -0.053341 -0.17752 
5.64257e-18 -5.44508e-18 1 

-0.516397 0.701636 0.384989 
0.0373743 0.110671 -0.501361 
9.05529e-18 7.19916e-20 1 

-1.29969 -0.412093 -4.72849 
0.0496248 0.482547 0.323449 
-1.14731e-19 -5.14523e-18 1 

-0.112029 -0.0136336 -0.184653 
0.103809 -0.0107504 0.0616515 
8.03289e-18 -9.20436e-19 1 

-0.162534 -0.0371411 0.346595 
0.164941 0.128994 -0.826277 
-1.4228e-18 1.36154e-17 1 

-0.359323 0.160983 0.0970371 
-0.0812525 0.311363 -0.287716 
3.02137e-18 -1.85931e-18 1 

-0.152152 0.0188068 0.184728 
0.0471337 -0.0347549 0.360019 
-1.74584e-18 7.21839e-18 1 

-0.194245 0.174321 0.289824 
0.00834805 0.0921595 -0.215708 
5.39485e-18 -7.61626e-18 1 

-1.66784 -0.190107 3.07134 
-0.0757593 0.509489 0.114806 
7.68094e-18 4.03762e-18 1 

-0.147002 0.234704 -4.09415 
-0.0112317 0.0233304 0.918804 
5.17699e-18 1.3124e-18 1 

-0.0811679 0.0421969 -1.86402 
-0.00526907 -0.0291996 -0.73753 
3.83396e-18 4.89639e-18 1 

-0.510683 0.141198 16.9628 
0.0915277 0.206478 31.8532 
1.02978e-17 1.66886e-18 1 

-0.108694 0.0638095 0.961512 
-0.0989624 -0.0442805 4.44727 
-6.66359e-18 -4.00456e-18 1 

-0.209223 -0.296744 0.453251 
0.149386 0.106862 -0.647056 
9.41488e-18 2.03926e-18 1 

-0.233847 -0.0686914 0.637497 
0.0285605 -0.0367509 -0.795323 
9.51607e-18 -3.51097e-18 1 

-0.254248 -0.432194 0.179077 
0.20497 0.0461437 -0.155375 
-4.49168e-18 4.96449e-18 1 

-1.03554 0.109156 -0.341228 
0.0156301 0.126653 0.452243 
-8.17867e-18 -1.09594e-17 1 

-0.118542 0.0570683 0.983411 
-0.0322066 0.000594533 0.0507824 
1.92183e-18 8.55523e-18 1 

-0.162551 0.0769809 0.0993035 
0.0855992 -0.108682 -0.0642255 
-9.89128e-18 1.78005e-17 1 

-0.622161 0.391114 0.0712737 
-0.271468 0.278367 -0.475147 
-4.62217e-18 7.02389e-18 1 

-0.0351658 -0.168098 -0.0260954 
-0.063111 -0.00253931 0.281551 
-4.96644e-18 -3.54224e-18 1 

-0.0545139 0.0838224 -4.14529 
-0.0409817 -0.10148 0.802905 
-8.15234e-18 1.33412e-18 1 

-0.0901276 0.012033 0.0178497 
0.0343118 -0.081669 0.17108 
8.20474e-18 9.0224e-19 1 

-0.937031 0.348407 0.140655 
-0.623673 0.627452 -1.77815 
8.43521e-18 -5.28084e-19 1 

-0.219408 -0.158288 0.25934 
0.203997 -0.0176134 0.823511 
5.14645e-19 4.07037e-18 1 

-0.117247 0.0650836 0.56265 
-0.0460257 0.0160452 2.61474 
-1.02513e-17 -3.30013e-18 1 

-0.164071 -0.0673062 -0.0631398 
-0.0304642 0.132566 0.46046 
7.71346e-18 1.0696e-17 1 

-0.147531 -0.0409228 -0.0630171 
0.158073 0.0814577 0.136249 
9.2592e-19 -5.787e-18 1 

-0.674779 0.545698 0.0740017 
0.64847 0.0719963 -0.0633372 
-1.52901e-18 8.25088e-18 1 

-0.166552 -0.693394 0.491885 
0.420159 0.278808 -0.454457 
7.85639e-18 -2.3499e-18 1 

-2.64377 -2.21113 -2.47062 
1.00377 0.974804 -0.12822 
4.61727e-18 -6.86671e-18 1 

-0.561291 0.10056 1.02298 
-0.24997 0.125337 -0.85292 
9.40489e-18 -3.60521e-18 1 

-0.0856016 0.0484765 0.0594369 
-0.0611222 0.00383912 -0.117433 
-4.00373e-18 -1.33458e-18 1 

-0.187444 0.0476403 -0.0926769 
-0.503073 0.102732 0.0750699 
3.84447e-18 -9.87329e-18 1 

-0.0890881 -0.122909 0.271367 
0.0297407 -0.0398786 -0.0318402 
2.67962e-18 1.91801e-18 1 

-0.118749 -0.01424 -0.0904112 
-0.0375407 -0.119081 0.0471531 
2.7421e-18 -9.75435e-18 1 

-0.158954 -0.0848115 0.228718 
0.0333325 0.0245789 -0.238424 
6.82009e-18 -1.03103e-18 1 

-0.182479 0.103354 0.21794 
0.0679165 0.0801886 0.140908 
-2.56984e-18 3.53648e-18 1 

-0.00342606 -0.464451 0.416548 
0.463836 0.143306 -0.0695416 
9.25776e-18 -6.09207e-18 1 

-0.1072 0.203805 -1.45021 
-0.166316 -0.0792577 1.04336 
-5.39423e-18 1.04032e-17 1 

-0.752771 1.00635 9.75708 
0.647994 0.370057 -0.0505015 
-2.69861e-18 -1.5466e-17 1 

-0.0150401 -0.263372 0.0446547 
0.410909 0.0231022 -0.145081 
1.00835e-17 4.20352e-18 1 

-0.494961 -0.238577 -1.46467 
-0.146388 0.275611 2.37493 
-1.35112e-17 2.93565e-18 1 

-1.20321 -0.356657 -9.30359 
0.0864812 0.470061 10.4077 
-3.6081e-18 6.23057e-18 1 

-0.442588 -0.197661 0.232913 
0.068297 0.250533 1.78617 
-7.57355e-18 -1.09762e-19 1 

-0.277173 0.265116 0.29766 
-0.0168347 0.135789 0.54611 
6.00828e-18 9.26579e-19 1 

0.395826 0.353222 1.91552 
-0.451358 0.758911 0.649947 
2.00859e-17 3.69396e-18 1 

-0.133312 0.0371058 0.672169 
0.0780364 0.06378 -1.01331 
-1.59026e-18 4.17444e-18 1 

-0.365831 -0.49162 -0.533822 
0.0537613 0.184644 0.447308 
-4.87182e-18 3.47987e-18 1 

-0.105661 0.00715473 -0.346451 
-0.241692 -0.0677118 -0.135137 
2.50363e-18 4.4295e-18 1 

-0.34029 0.250881 -0.535773 
-0.0706994 0.0820469 0.255715 
-5.81728e-19 1.70519e-17 1 

-0.185766 -0.492759 -0.779564 
-0.158752 0.044243 -0.54049 
2.41826e-18 3.99012e-18 1 

-0.484007 -0.18167 0.353259 
0.1366 0.273971 0.32648 
-4.22377e-19 1.75995e-17 1 

-0.0701208 0.0262536 -0.181979 
-0.0348493 -0.0421757 -0.395751 
6.55604e-18 -4.67339e-18 1 

-0.0328574 -0.0446109 -0.0443229 
-0.0122551 -0.023528 -0.481173 
-1.09128e-18 3.23733e-18 1 

-0.179797 -0.107893 -0.217506 
0.0594239 0.097477 0.253411 
4.31686e-18 -4.57587e-18 1 

-0.4761 0.826696 1.16419 
-0.689999 0.424085 -0.334615 
-2.1724e-17 1.43982e-18 1 

-0.113842 0.0361327 0.590366 
-0.0307166 -0.100721 0.0461646 
1.9671e-18 -1.04583e-17 1 

-0.274231 -0.219876 2.9979 
-0.0419995 0.17943 0.346069 
3.39272e-18 -4.45125e-18 1 

-0.0755103 0.114678 -0.0849422 
0.162088 0.00260807 -0.423496 
-4.83054e-18 3.46476e-18 1 

-0.197887 0.0397569 -0.13377 
-0.058967 0.063475 0.0397389 
-3.97132e-18 5.49738e-18 1 

-0.188332 -0.00378246 -0.162191 
0.0560942 -0.0267196 0.175745 
1.03149e-17 -1.47826e-17 1 

-0.115631 -0.0592511 -2.70365 
0.0298785 -0.029336 -1.30557 
-6.5981e-19 4.45209e-18 1 

-0.137593 -0.00265706 8.78147 
0.0244605 0.0848635 -5.32797 
-3.98629e-18 -6.74025e-18 1 

-0.120458 0.0501855 0.243487 
-0.065 -0.0734252 -0.244508 
1.1965e-17 1.97513e-17 1 

-0.120553 0.334104 0.63914 
-0.365052 0.11106 -1.29969 
-9.02427e-18 -3.69851e-18 1 

-0.316411 -0.0595122 -10.6537 
-0.0955031 0.0554132 7.30562 
1.15168e-18 6.67874e-18 1 

-0.070052 -0.0228656 6.26808 
-0.0410697 -0.0348561 5.17979 
6.71891e-19 2.65976e-18 1 

-0.145718 1.47901 8.87931 
-0.939811 1.53267 18.3506 
-1.06061e-18 1.30095e-18 1 

-0.805602 -0.0449653 -1.84188 
-0.290418 0.391111 0.277424 
-2.47999e-17 -1.75088e-17 1 

-0.623386 0.0375554 -173.103 
0.125785 0.204994 -44.1747 
-1.02812e-18 2.45621e-18 1 

-0.753717 -0.393094 -1.4186 
-0.075156 0.327947 0.352007 
-1.02992e-17 -8.7359e-18 1 

-0.982974 0.638901 -1.91975 
-0.589715 0.710012 -1.19438 
2.80159e-18 7.1364e-18 1 

-2.91772 -1.20537 18.1343 
-0.0608305 0.971088 -4.37949 
3.8064e-18 -5.91597e-18 1 

-0.198297 -0.232713 0.0014629 
-0.00415955 0.00711096 0.847807 
-3.37714e-18 -2.86323e-18 1 

-1.61875 -1.17166 0.0374785 
0.159286 0.527906 0.305366 
3.29339e-17 -5.01416e-18 1 

-0.212325 -0.169579 -0.135757 
0.0626217 0.126836 0.55168 
4.95795e-18 2.94613e-19 1 

-0.109415 -0.0217561 0.172983 
-0.0310711 -0.0540295 -0.0171498 
-2.82325e-18 -1.41163e-17 1 

-0.109117 -0.00807735 -0.476052 
-0.000126418 -0.0747006 0.808052 
1.4623e-18 7.59582e-18 1 

-0.181945 -0.0299674 0.0483313 
0.0131682 -0.00378132 -0.192724 
1.31149e-17 -4.15615e-18 1 

-0.11053 -0.00806032 -0.001664 
0.0423578 -0.0580389 0.0562708 
2.51179e-18 -7.20416e-18 1 

-0.105139 0.0583599 0.270009 
-0.0154466 -0.00497243 0.151353 
-3.29786e-18 -3.08847e-18 1 

-0.180769 0.0462619 -1.13517 
-0.145308 0.0189682 0.0330702 
-3.24019e-19 -2.47469e-18 1 

-0.788722 0.0813513 2.45899 
-0.2382 0.293461 -5.97256 
5.70409e-18 -7.41531e-18 1 

0.63167 -1.09512 -0.593795 
1.01557 0.765189 0.0817728 
1.16479e-18 9.08005e-18 1 

-0.267543 -0.120042 -0.254399 
0.0824052 0.080847 -0.322505 
3.24557e-18 -2.59645e-18 1 

-1.87742 1.65993 9.36859 
-0.313163 0.775358 1.43426 
-8.03061e-18 2.31596e-18 1 

-0.119383 0.0181387 -0.0157985 
-0.0310049 -0.0562223 -0.158475 
1.24429e-17 2.9786e-18 1 

0.0708447 0.581502 -0.916836 
-0.533114 0.173251 -1.08252 
1.11152e-17 2.20566e-18 1 

-0.298793 -0.0569338 0.159296 
0.118602 -0.0473538 -0.0324108 
-8.9573e-18 -1.99051e-18 1 

-0.0918227 0.0606607 -0.292772 
-0.148146 -0.0107028 0.261271 
-7.02972e-18 2.61019e-18 1 

-0.592326 0.229666 0.610247 
-0.119094 0.1958 -1.00022 
-9.4463e-18 -1.40656e-17 1 

-0.339225 -0.364288 1.21761 
0.161622 0.134558 0.3121 
-8.64113e-19 7.92266e-18 1 

-0.115105 0.0136692 0.398759 
0.0180844 -0.0169004 1.83953 
-1.17162e-18 1.39144e-18 1 

-0.408023 0.12448 -0.151706 
0.054294 0.177458 0.170022 
-2.02789e-18 2.02789e-17 1 

-0.159064 -0.013867 -0.151066 
-0.0456695 -0.0448282 0.248134 
1.79463e-18 -5.3571e-18 1 

-0.0153142 -0.0371652 0.952756 
0.160728 0.0111175 1.22812 
-5.21512e-18 -4.01163e-19 1 

0.584219 -1.13088 -0.305809 
0.923337 1.02596 0.0869082 
3.20186e-18 2.42808e-17 1 

-0.0594667 0.0253579 -0.188517 
0.00615279 0.00983855 -0.972574 
6.91242e-18 -1.09378e-17 1 

-0.672803 -0.139429 1.07752 
1.47876 0.266008 0.485159 
9.75399e-18 -9.48491e-18 1 

0.407719 -0.931225 0.436604 
0.943588 0.659169 -1.28344 
2.49794e-18 -1.7726e-17 1 

-0.186486 0.0834329 -0.88274 
0.015265 -0.00564243 -0.266768 
6.64052e-18 8.65371e-18 1 

-0.477812 -0.363221 -0.230827 
0.0713407 0.0824909 0.533367 
-3.47976e-17 -2.11063e-17 1 

-1.43386 -0.685014 -0.733736 
0.649128 0.826414 2.49867 
6.47783e-18 1.81661e-17 1 

-0.603908 0.275321 -0.112616 
-0.915542 0.318037 -1.28105 
-3.2911e-18 2.8084e-17 1 

-0.011168 0.356229 0.118508 
-0.319377 0.010004 -0.0158178 
2.28417e-17 -6.3932e-18 1 

-0.071588 0.170128 -0.152875 
-0.123253 -0.0526888 -0.791273 
-7.73994e-18 -1.04359e-18 1 

0.0251382 -0.824849 -0.277457 
0.819819 0.37958 -0.157098 
-1.93279e-17 5.64375e-18 1 

-0.426445 -0.174894 -0.346692 
-0.0330065 0.0733028 0.270045 
1.72568e-18 3.32809e-18 1 

-0.0724724 -0.375448 -0.789416 
0.388159 0.0893211 0.447775 
2.41943e-18 -1.50482e-17 1 

-0.485812 0.518224 -8.55567 
0.287904 0.0559124 1.15936 
1.17696e-17 1.66074e-18 1 

-0.106684 -0.0086153 0.16368 
0.066857 -0.0312006 -0.0487321 
-6.55003e-18 -3.59158e-18 1 

-0.134035 -0.127672 -0.0670521 
0.133077 -0.0281544 0.207738 
8.8529e-18 -4.98755e-19 1 

-1.88761 -1.60175 4.99486 
0.309034 0.710871 2.25479 
-6.88586e-18 -1.3617e-18 1 

-0.248944 -0.599778 0.697519 
0.0507645 0.0963455 -0.607053 
1.69905e-18 -1.31677e-17 1 

-0.236708 -0.0932564 -0.290833 
0.112976 0.15779 0.828452 
-3.22386e-18 2.74028e-18 1 

-0.0734649 -0.0148141 0.66834 
-0.0362727 -0.020739 0.363943 
8.50117e-18 -1.17324e-17 1 

-0.14744 -0.0907984 0.0549195 
0.209829 0.0906359 -0.175287 
1.12879e-18 -1.29981e-18 1 

-1.74653 -0.91581 6.85039 
0.879403 0.698432 -1.93344 
-1.44056e-17 -3.5279e-18 1 

-0.367355 -0.238989 -0.115264 
0.134822 0.335837 -0.132101 
-8.39308e-18 -5.77024e-18 1 

-0.100836 -0.00249835 0.4168 
-0.145896 0.0382526 0.604348 
3.76534e-18 -1.99394e-18 1 

-0.636143 -0.325929 0.550664 
0.0389406 0.192561 -0.628885 
3.36034e-18 -8.09649e-18 1 

-0.14881 -0.0941047 -0.924315 
0.0842662 -0.034172 -0.452577 
-6.95731e-19 3.09214e-18 1 

-0.119111 -0.0410375 1.66093 
0.0459604 0.0396868 -2.17354 
2.29397e-18 3.31302e-18 1 

-0.734498 0.0071059 -0.108323 
-0.20254 0.324582 -2.38361 
-4.8389e-18 -1.28241e-18 1 

-0.262927 -0.109037 0.772417 
-0.293363 0.149521 -0.682282 
-1.8705e-17 7.27774e-19 1 

-0.181421 -0.0882958 0.117921 
0.0174418 -0.0584952 -0.192466 
-6.98993e-18 -2.92434e-17 1 

0.0805451 0.205589 -0.0847098 
-0.36081 0.047613 -0.228282 
5.47579e-18 7.11059e-18 1 

0.25994 -0.896772 0.740396 
0.768075 0.354181 -1.95642 
-8.01508e-18 4.49969e-19 1 

-0.156902 -0.888466 -4.2744 
0.11553 0.348534 -1.87773 
6.9257e-19 -5.01207e-18 1 

-0.605534 -0.232058 -0.0552642 
0.044315 0.193412 -0.664502 
-5.94012e-18 -1.25653e-17 1 

-0.464259 -0.759799 2.07922 
-0.274522 0.215726 -1.40162 
1.69748e-17 -1.49907e-17 1 

-0.052372 0.079158 0.415672 
0.00360797 -0.0373094 0.0631659 
4.22039e-18 1.79367e-17 1 

-0.262901 0.236076 11.2119 
-0.212694 0.0984944 -5.17306 
9.09916e-18 7.51261e-18 1 

0.49169 0.981999 -0.054177 
-1.02952 0.640957 0.0866312 