# vtk DataFile Version 3.0
Output file generated by Yade's KinematicLocalisationAnalyser
ASCII
DATASET UNSTRUCTURED_GRID

POINTS 13483 float
484.501 49.7822 -0.490411
562.632 82.5088 0.460666
107.491 6.09372 -0.57367
592.01 5.56393 0.407713
428.051 10.556 0.61784
287.903 41.4243 -0.460393
141.463 7.06048 0.458693
463.275 35.5374 0.152956
426.377 27.7003 -0.235313
549.358 15.6911 -0.563594
192.771 8.75411 0.142781
237.503 6.30206 0.364841
518.305 66.5529 -0.202399
498.607 49.6936 0.0875593
123.847 17.9266 0.549105
202.672 35.0625 0.420536
200.004 13.0879 -0.304064
266.585 11.4718 0.517471
309.377 38.0954 0.417621
448.657 7.72196 0.514655
365.961 41.753 -0.161196
474.373 75.5095 -0.276292
586.838 46.7086 0.464259
533.578 63.1321 -0.557735
403.723 22.9463 -0.445772
220.091 46.3982 -0.135269
422.268 35.7528 0.504469
472.616 43.9199 -0.231129
39.4887 16.8994 -0.448138
540.65 34.2991 0.369792
416.038 6.16297 -0.480561
15.4492 25.075 -0.333133
574.969 89.559 -0.251682
423.005 2.30366 0.593697
69.6353 47.0576 -0.0997518
449.678 32.4089 -0.509452
454.573 15.4459 0.547446
312.422 25.9349 -0.190952
454.884 28.371 -0.48144
316.553 41.1523 0.421787
221.708 14.6141 -0.348626
383.093 43.638 0.0897728
515.539 6.76351 0.110178
175.894 6.28993 0.422295
49.169 7.19245 -0.106901
60.5718 9.14189 0.243082
525.373 13.9787 -0.593735
20.8241 12.2553 -0.260246
477.438 90.0721 -0.352495
527.473 60.7499 -0.336595
156.366 32.485 0.333307
568.405 68.1092 0.176682
29.909 30.9656 0.171658
458.32 2.61662 0.540259
128.603 7.71786 -0.563819
476.997 62.9503 -0.371732
432.945 31.2129 -0.208178
159.433 0.959134 -0.29508
29.8045 2.31599 -0.357408
317.449 19.2388 0.27701
487.252 89.4552 -0.131973
399.452 46.8173 -0.184401
354.935 1.03626 0.273401
533.66 6.87386 0.622307
22.8899 48.4569 0.246766
236.847 31.5894 -0.293173
551.783 10.4539 -0.235826
526.697 95.9057 -0.345028
370.35 9.54423 -0.653581
470.456 20.0927 -0.482567
558.286 50.3587 0.454556
117.642 7.80882 0.27521
427.81 30.5173 -0.178244
413.73 20.1698 -0.138785
271.866 17.3554 -0.45779
18.3181 14.5498 0.275566
585.799 87.0661 0.33253
301.507 44.5231 -0.312477
515.487 27.0606 -0.441292
524.463 19.7721 0.370717
580.439 14.9509 0.252348
401.24 48.0234 0.163769
83.332 40.7507 -0.285514
533.33 70.1105 0.256664
514.686 78.1508 0.108205
594.383 50.2477 -0.150653
576.831 0.763517 -0.58707
268.884 30.9738 0.455492
494.431 19.465 0.120781
22.1873 5.85151 -0.655335
120.452 41.3314 -0.185951
439.92 15.4212 0.203588
585.203 73.8713 -0.53418
179.388 29.5257 -0.231212
38.7506 37.6194 0.288739
422.191 1.1291 -0.137866
217.701 8.78831 -0.416524
550.283 63.5429 0.30649
576.111 65.1762 0.293808
327.016 26.9842 -0.290739
148.563 27.4095 -0.440174
437.531 69.9678 0.391855
341.629 19.571 -0.529412
368.128 33.92 0.164596
339.801 8.36871 0.47579
469.011 17.3418 -0.11808
594.498 15.74 0.309209
71.5379 41.9813 -0.48572
307.194 6.57258 -0.164529
458.848 32.5642 0.347714
324.738 54.1728 0.518924
23.0286 28.3886 -0.565119
27.709 6.14399 -0.324537
457.374 62.0971 0.476048
435.082 27.6391 -0.17936
21.9571 41.7355 -0.431218
84.2982 32.7488 0.256664
298.757 18.2142 0.339378
483.3 36.771 0.160831
412.53 50.8168 0.321634
564.217 17.2015 -0.584477
558.043 14.3595 0.233878
349.29 43.9229 -0.111256
503.15 63.6476 0.133082
220.709 17.2729 0.521931
303.832 5.47641 0.540448
93.3439 32.5963 0.292509
105.411 25.3579 0.322506
434.482 73.9966 0.0720444
282.889 20.2653 0.630702
536.535 40.2168 -0.174379
530.699 93.1921 -0.102822
416.576 29.412 -0.347206
589.392 56.5562 -0.261571
381.05 26.8126 -0.309586
256.203 25.3968 -0.362175
530.13 76.842 -0.320788
258.052 29.8193 -0.481542
471.133 34.3064 -0.249253
302.776 41.2779 0.208462
434.143 13.0407 -0.617408
331.293 41.1348 -0.0886629
381.564 17.984 -0.302763
291.599 50.8328 0.26864
175.696 30.5519 0.15561
567.049 83.1834 -0.169025
591.6 16.6372 -0.400034
5.79732 13.2424 -0.444251
385.079 24.3733 -0.430152
33.5419 25.435 -0.102884
339.935 38.7158 -0.487412
355 29.0221 0.321142
67.0707 12.7007 0.533184
46.0123 35.2766 0.320459
209.749 13.8957 0.430039
487.326 78.3169 0.457272
469.967 48.6611 -0.577279
66.9644 22.3373 0.484591
536.786 61.4717 -0.640635
580.299 37.5193 -0.677115
518.422 91.3303 -0.455239
530.079 2.77899 -0.685211
441.123 56.4984 -0.39478
475.042 76.9888 0.537468
443.385 18.8952 -0.428497
589.305 3.82292 0.485589
207.595 25.2311 0.178795
116.83 37.8093 -0.216338
230.536 6.7095 0.453699
84.3224 4.84643 0.27033
56.9777 11.1104 0.220965
256.838 38.0255 0.320846
15.7811 26.8271 0.360779
452.33 47.7523 0.440214
475.871 84.8791 0.18756
402.623 33.105 -0.432724
592.31 99.6921 0.361648
364.173 9.92446 -0.194324
380.968 52.0826 0.404447
465.876 3.25694 -0.362105
20.8618 26.3153 0.637458
475.395 19.0116 0.6349
470.967 7.86079 -0.465168
191.218 11.1857 0.489005
379.164 16.9503 -0.330953
289.598 6.41681 0.412386
350.368 23.2599 -0.388857
546.298 57.8133 -0.113981
178.189 26.3965 -0.475486
571.706 6.15952 -0.512616
546.954 52.4511 -0.353611
347.317 11.4137 0.222974
550.396 1.93261 -0.621012
487.98 46.8743 -0.441175
563.42 36.7997 0.52175
374.04 56.6629 -0.258566
431.48 15.9176 0.576065
406.801 57.6906 0.283785
396.289 9.94239 -0.285674
522.162 90.119 0.26206
520.929 85.5827 -0.279626
177.994 39.909 -0.380051
579.074 16.4691 -0.219952
459.15 78.7733 -0.241408
10.9136 18.0877 0.229776
365.357 28.3661 0.437622
173.305 23.8136 0.402416
85.0758 41.5915 -0.225037
585.794 70.4981 -0.42906
515.652 96.5697 0.232755
295.446 28.8389 -0.493301
463.12 10.2722 0.457996
74.5204 46.6719 -0.222927
231.434 26.48 -0.501591
451.448 53.1206 0.383922
424.912 26.3946 -0.553986
246.149 0.863899 -0.401597
447.794 71.0715 -0.37879
428.463 74.4125 -0.435634
421.317 43.8682 -0.448518
432.311 2.39401 -0.639792
535.505 18.9074 0.606433
165.932 12.7497 -0.218861
437.958 39.9665 0.574029
458.024 70.3924 0.109154
66.0224 0.971083 0.345579
235.654 4.7793 0.21665
590.889 18.5089 0.207366
581.089 16.7031 -0.509368
596.039 23.6043 -0.612483
282.193 8.78221 -0.339859
563.971 42.4555 -0.450528
367.125 48.3861 0.4418
398.832 0.815037 0.586841
520.207 73.4265 -0.4308
23.4338 35.3838 -0.3483
303.547 47.8909 0.467684
236.434 2.91936 0.425322
579.247 89.3986 0.154786
551.03 88.0756 -0.245619
268.638 12.9586 0.393823
523.429 74.3017 -0.0839681
479.42 2.65056 0.221174
468.376 12.749 0.580845
87.8625 19.2912 -0.516651
282.712 0.989192 -0.259396
316.034 2.33915 -0.336218
12.9072 8.03775 -0.609193
4.25267 32.4548 -0.321749
148.567 19.6399 0.442034
61.6392 44.067 0.236877
59.0786 31.2871 -0.298235
378.444 13.9336 -0.600559
335.654 45.8369 0.479932
566.296 68.4365 -0.158324
18.0305 4.02971 0.291403
63.8072 7.42994 0.141674
495.715 77.0122 0.130097
274.59 1.15447 0.500213
332.321 21.3219 -0.10745
220.155 4.68524 -0.391406
520.771 54.153 0.235126
400.7 8.29202 0.656662
566.35 44.2692 0.498602
502.182 66.8809 0.289721
515.566 25.0894 0.110641
377.897 29.9062 0.58921
94.0285 47.2018 0.310903
438.897 76.7849 -0.0611866
564.109 28.1018 0.363145
222.44 31.514 -0.277985
28.2601 19.27 -0.239075
311.306 15.6545 0.511045
98.8589 42.0881 -0.478906
249.744 44.1715 -0.239841
382.879 2.30369 -0.265272
586.19 82.0898 0.38384
525.593 2.2034 0.677873
306.759 3.79849 0.621759
279.503 30.3092 -0.144204
405.678 54.6385 0.207757
73.4423 9.32362 0.600123
183.687 46.1215 0.390212
576.74 68.5738 0.498223
434.602 43.2224 -0.118181
186.173 41.9819 -0.331841
147.285 43.2711 0.434902
595.62 44.1314 -0.535577
592.998 15.4401 -0.597439
488.28 12.4251 -0.694953
176.854 25.304 0.116307
443.052 58.8653 0.111451
445.047 58.2758 -0.286701
368.249 6.6752 -0.181921
421.487 3.056 0.334531
562.646 69.7696 -0.564604
77.2579 32.9861 0.227247
509.069 35.1047 -0.519165
256.788 16.3753 -0.487508
8.1792 2.68689 -0.428386
116.244 40.9267 0.241922
59.873 24.5483 0.625272
532.921 41.9032 -0.379617
579.981 97.6983 0.162107
172.017 29.1529 -0.198877
589.106 14.2913 -0.478234
40.3344 39.4712 -0.271054
83.1628 31.0545 0.208016
506.696 46.3976 0.408102
371.849 20.9886 -0.617774
451.671 16.0123 0.168724
222.899 29.4872 -0.187527
498.191 9.8803 0.726347
596.283 17.0248 0.570636
25.8992 36.618 0.376431
253.652 7.94474 0.203654
207.497 15.6127 0.269462
1.05048 36.9239 -0.158201
210.716 14.9108 -0.40186
197.518 11.1228 0.133945
199.758 26.66 -0.322411
121.532 29.27 0.201191
452.251 37.9983 -0.314926
154.15 14.4349 -0.367982
574.018 86.3078 0.232868
161.319 3.88529 0.515656
42.7909 40.4823 -0.43128
544.389 72.8607 -0.439348
262.799 32.8573 -0.427427
517.219 46.0692 -0.544934
594.502 89.172 0.516575
280.516 9.75664 0.172242
552.312 41.8659 -0.484505
305.381 2.58036 0.621627
374.55 26.0714 -0.457283
516.404 18.9564 0.740333
95.9699 12.7913 -0.555106
422.876 6.59459 -0.664777
568.786 44.829 0.188313
79.4771 8.10526 -0.280278
263.95 16.2778 0.190023
379.498 12.1395 -0.28327
589.821 5.81843 0.620765
359.575 1.83426 -0.579132
163.503 39.5746 -0.309485
567.284 28.6256 -0.558257
118.722 38.807 -0.181879
246.029 32.564 0.415654
360.879 23.7266 0.315355
473.257 36.5305 0.541025
350.139 9.95426 -0.59189
400.036 40.6422 -0.419574
564.078 81.8973 0.50332
42.743 12.7147 -0.236672
278.369 43.085 -0.3047
345.559 34.6722 -0.476257
368.915 22.9475 0.327292
415.312 74.6625 0.352745
558.369 64.0922 0.196205
525.191 84.0069 0.370952
211.171 35.0222 -0.413285
12.4151 32.8586 -0.187979
519.348 86.9037 0.122653
404.301 64.9958 -0.448881
214.504 40.2302 0.127057
522.97 48.266 -0.16283
138.76 9.46423 0.272192
333.78 28.4969 -0.276059
407.433 55.6678 -0.109448
372.606 22.4648 0.325318
559.183 81.1573 -0.300133
383.211 4.99328 0.659322
43.5346 27.5486 0.315786
411.754 44.1032 -0.33621
380.59 61.1818 -0.349034
579.932 83.1459 -0.256111
551.469 38.7357 0.354377
446.566 45.0936 -0.189289
573.061 78.3289 0.456038
274.456 2.43701 -0.505732
344.852 37.2002 0.61418
25.0125 43.6979 -0.326756
553.161 44.1498 -0.175335
494.31 39.2376 -0.483973
409.389 2.62204 0.721174
115.039 4.69757 -0.38449
382.218 48.08 -0.102544
10.4422 0.956947 0.453444
589.256 7.81702 0.339871
339.887 49.9305 -0.434779
493.355 24.154 -0.382298
[...]
POINT_DATA 13483
TENSORS Strain_matrix float
-0.000702092 -0.0113839 -0.243783 
-0.0235666 -0.00363792 0.109834 
0.000205482 -0.00102012 0.0604165 

-0.280927 0.356314 6.85384 
-0.236468 0.275649 4.89641 
-0.0409777 0.0334677 0.721647 

-0.00952316 -0.0043134 0.160196 
0.00353672 -0.00190222 -0.58844 
2.21784e-05 -0.000305414 -0.005878 

-0.0210685 0.0188575 -0.0177662 
-0.012057 -0.00350329 0.028798 
-0.00268738 -0.000952384 0.0309158 

-0.0320321 0.0118013 -0.134794 
-0.0233273 -0.0066552 0.0256797 
0.00453018 0.00032468 0.0471857 

-0.173088 0.108329 1.00194 
0.000805782 0.211661 0.91259 
0.0346537 -0.0101136 0.130281 

-0.0123133 0.0170735 0.0876627 
-0.0258149 0.00596445 0.277244 
-0.00130866 0.00170739 0.116357 

-0.0397396 -0.0946939 0.00801663 
0.0941789 0.0646142 0.0506875 
-0.00337995 0.00844623 0.0147733 

-0.045898 0.0326363 -0.220869 
-0.27713 -0.0945429 -0.194358 
0.00362127 -0.0219232 0.0580543 

0.0106287 -0.0337214 0.0415817 
0.0302588 -0.00811539 0.00253257 
0.000944126 -0.00058439 -0.000289786 

-0.000876411 -0.0305283 0.00617035 
0.0139248 0.00765281 -0.00558366 
-0.00535836 -0.00113339 -0.00668184 

-0.0855187 0.0454276 -0.311572 
-0.0216423 0.00628905 -0.249754 
-0.015889 -0.047168 0.203822 

-0.020138 -0.0140005 0.390083 
0.0616282 0.00778451 -0.753993 
0.00843814 0.0152064 -0.117201 

-0.0235403 0.012505 -0.0138093 
-0.00346326 0.0130384 -0.00109737 
0.00100688 -0.000706987 0.00925367 

-0.00980057 -0.0101393 0.0850666 
0.00968035 0.00396634 0.113071 
0.000734048 0.000774021 0.0169359 

-0.0175262 5.27439e-05 0.0761851 
0.00377891 -2.74493e-05 -0.0281222 
0.00103224 -0.000111649 0.0273978 

-0.00216563 -0.00926515 0.00216472 
0.00492846 -0.00141063 -0.00241731 
0.000156224 -9.05982e-06 0.00576276 

-0.111739 5.44783e-05 0.00742468 
-0.0277016 0.117797 0.0757953 
0.00596192 0.000602482 0.0189295 

-0.106294 -0.0752381 -0.604882 
0.0603167 0.164955 0.782667 
0.0205145 0.0210053 0.0608365 

-0.0117783 -0.00768125 -0.0269658 
-0.0155867 -0.0267758 0.0737247 
-0.000332259 -0.000907411 0.0387149 

-0.0544198 -0.102221 -0.0179002 
0.0432515 0.000684106 -0.0737961 
-0.0327225 0.0283583 0.10515 

0.00335492 -0.0250827 -0.182884 
0.0388609 0.0258685 0.334725 
0.00292953 -0.00267702 -0.0519858 

-0.037633 -0.026062 0.174516 
0.0133587 0.0129514 0.0279259 
-0.0251023 0.000534456 0.114022 

-0.259595 0.475744 -2.33389 
-0.401594 0.361538 -3.9728 
-0.0601435 0.00528988 -0.537273 

-0.100647 0.0835664 0.208771 
0.093092 0.0808665 -1.20685 
-0.0236052 0.00134835 -0.111493 

-0.016044 -0.0578292 -0.0447214 
0.0372031 0.00605076 0.0202501 
-0.000191323 -0.00194116 0.0116837 

0.0105642 0.0196108 0.179121 
-0.065554 -0.000604834 0.0485148 
0.0125057 0.00189397 0.111692 

-0.0289975 -0.0665031 -0.0893537 
0.0463837 0.0148155 0.0156879 
0.00398594 -0.00154189 -0.00557529 

-0.0273838 -0.128784 -0.1215 
0.0866217 0.00474359 0.0278614 
0.0449316 -0.0300651 0.20295 

-0.00205641 -0.0116908 -0.00414352 
0.0182739 -0.0108775 -0.0110564 
0.00154973 0.000438015 0.00182777 

-0.056815 0.0113467 0.0636769 
-0.00688361 0.0218276 -0.212474 
-0.00292044 0.00811463 -0.0129227 

-0.0574283 0.0918099 0.221627 
-0.0153794 0.12927 0.229307 
-0.00333132 -0.00496456 -0.0471208 

-0.01124 -0.0282013 0.197651 
0.0105215 0.000983665 0.0212348 
0.00149352 0.00396344 0.0753836 

-0.0732727 -0.0208363 -0.372845 
-0.0126355 0.0191426 -0.278362 
-0.000708621 0.00350173 -0.0780754 

-0.0100529 0.01284 0.0123038 
-0.0171365 -0.00563614 0.0292208 
-0.00108922 -0.000525853 0.00747845 

-0.401971 -0.880018 2.37608 
0.575583 0.686754 -1.18258 
0.00256636 -0.00745458 0.0491259 

-0.0338593 -0.00157388 0.0200636 
-0.00637524 -0.00685645 0.0920857 
0.000709367 -0.00128649 0.0433618 

-0.165781 0.0155355 0.0896474 
0.00646107 0.226212 0.0287725 
0.00533881 0.00185944 -0.00859214 

-1.1141 -1.55932 0.481204 
1.12428 1.20365 -1.30055 
0.0527746 -0.0418358 -0.199884 

-0.172803 -0.0421446 0.641092 
0.0953622 0.233317 1.53587 
-0.0102112 -0.0357587 -0.257736 

-0.00160484 -0.00607716 0.0278391 
0.0221539 -0.0141145 -0.0750631 
-0.00317437 0.00128808 0.0162936 

-0.101246 0.00764257 -0.135875 
-0.174901 0.0550188 -0.190718 
0.0537022 -0.0156063 0.284744 

-0.0133765 -0.0270235 -0.0103102 
-0.00217109 -0.00515201 -0.00533169 
-0.000726295 0.00114169 0.0146745 

-0.00756679 0.00254497 -0.00152518 
0.000754927 0.00244334 -0.00507872 
-0.000262251 -6.16651e-05 0.0101532 

-0.020458 0.0700649 -0.0262473 
-0.0562572 0.00219434 -0.00694112 
0.00219053 0.00770704 0.0499474 

-0.0555153 -0.0971293 0.272683 
-0.05273 0.0918043 -0.205417 
-0.008652 -0.0192194 0.208807 

-0.0274807 -0.0375604 -0.0213941 
0.0329917 -0.002951 0.100069 
-0.000964936 -0.00905382 -0.00045847 

-0.00484507 0.00183481 -0.0883986 
-0.0158843 0.0269917 0.0593826 
0.0552222 0.0461022 0.163477 

0.0199718 0.0224133 0.634672 
-0.0421882 -0.0596322 1.76083 
0.00118421 0.000575211 -0.0421505 

-0.283168 -0.0664826 0.273444 
-0.205675 0.0971263 -0.949297 
-0.00604969 -0.00560322 0.0151255 

-0.0445001 0.00893071 0.111606 
-0.00443686 0.0636439 0.224928 
0.025127 -0.0112774 0.147244 

-0.0069414 0.0135967 0.00890746 
-0.0241101 -0.00187547 -0.0274149 
-0.000149247 -0.000206201 0.0196077 

-0.0690621 -0.0406209 0.740448 
-0.0362276 0.0817677 -0.115234 
0.00156492 -0.00255304 0.129926 

-0.137621 0.205667 0.00840994 
-0.0418254 0.0919357 0.466507 
-0.00136012 0.0270779 0.163652 

-0.0487232 -0.0341081 -0.00159303 
0.0430072 0.0206823 -0.0482727 
0.0117882 0.000322223 0.0504385 

0.0288057 0.0517451 0.740185 
-0.0535925 -0.00591225 0.543759 
-0.0151761 -0.00808417 0.568096 

-0.0265124 -0.0043027 0.0478042 
0.0169252 -0.02 -0.0150753 
0.00894192 0.00894773 0.101642 

-0.00754124 -0.135964 -0.168329 
-0.000587183 -0.0221556 -0.0353026 
-0.000388372 -0.00147251 0.00865684 

-0.0116882 -0.053499 0.0209478 
-0.00320125 0.0267852 -0.155753 
0.00122654 0.00922729 0.129763 

-0.394851 -0.320146 0.673623 
0.166721 0.256549 -0.14876 
-0.0617759 -0.0227905 1.0778 

0.0353922 0.017605 0.041041 
-0.0653931 -0.0123644 -0.0250872 
0.000433555 -0.00447737 -0.0254848 

-0.0230925 0.133007 -0.149649 
-0.212763 0.0101928 -0.335129 
0.000175086 -0.00187249 0.0128701 

-0.00536857 0.140892 0.00972499 
0.0316181 0.0040602 -0.352877 
0.0145411 0.0596129 0.095454 

-0.0172666 -0.0220008 -0.0612774 
0.00887955 -0.0105981 0.637656 
0.000637967 0.00110406 -0.194582 

0.0146882 0.00652296 0.0112922 
0.0349935 -0.00807608 -0.137728 
0.000341487 -0.000827278 -0.0114839 

-0.0776992 0.115196 0.212265 
0.0413578 0.178853 0.182067 
0.00439268 -0.0441618 0.33925 

0.0257425 0.0083752 -0.0139601 
0.0573564 -0.0246064 0.0106057 
0.00670626 0.0286199 -0.0153528 

0.0319173 0.0783349 0.77396 
0.0112021 0.0893911 -2.767 
-0.0124492 0.00692476 -0.323732 

-0.0779837 0.0655845 -6.51566 
-0.118388 0.01337 -3.87713 
-0.000364786 0.0155502 0.722719 

0.0650751 -1.50909 2.06286 
0.151071 0.750929 -0.256025 
0.084185 -0.0825082 -0.108878 

-0.000968055 -0.014375 0.00395383 
0.0084682 -0.00259157 0.00601877 
0.00107928 -0.000277487 0.00522873 

-0.00702944 -0.00702026 -0.011708 
0.00551122 0.00217048 0.00445285 
-0.000580875 -9.77221e-05 0.0106097 

-0.0387074 0.0550072 -0.0883756 
-0.283471 -0.0582738 0.079123 
0.00627726 0.0264865 0.153026 

-0.152598 -0.0474299 -0.482942 
-0.0125574 0.108959 -0.0660293 
0.00556168 0.00143215 0.0357844 

-0.0288301 0.0390988 -0.547113 
-0.0518281 -0.00731512 0.0845543 
0.00170513 -0.00760127 0.224392 

-0.0496739 0.00914028 0.0643565 
0.0240003 0.106538 0.160003 
0.00262267 -0.00169217 0.0559892 

-0.0261096 -0.00105627 0.00344714 
0.0439137 0.0245526 0.12184 
0.000464826 0.0025461 0.034236 

-0.117435 -0.107269 -1.24911 
-0.00186793 0.0446175 -0.675211 
0.0253216 -0.0133495 -0.110906 

-0.0811234 -0.0769071 0.130735 
-0.54659 0.0229629 -0.233703 
0.0437498 0.0570166 0.0804051 

-0.006761 0.00704961 -0.0106866 
-0.023259 -0.0155578 -0.0276337 
0.000701439 -0.00223463 0.0204865 

-0.0842857 0.0429541 -0.0266807 
-0.0148957 0.061515 -0.0832994 
-0.00397757 0.00114493 0.0476174 

-0.00407624 0.152518 -0.0849524 
-0.181662 0.00540109 -0.0784971 
0.000680252 -0.000461904 0.0382094 

-0.0197947 0.00793794 0.0340148 
-0.0019886 0.0106753 0.0300086 
1.72121e-05 -4.79991e-05 -0.000920299 

-0.106651 0.569478 0.47333 
-0.355803 0.404841 1.12859 
0.00755926 0.00807778 -0.0842655 

0.002897 0.00134016 0.227435 
0.0341555 0.000203199 -0.125708 
-0.0242557 0.00846967 0.0924291 

-0.00894883 0.0177981 -0.0134067 
0.0146764 -0.0105341 0.0296203 
-0.000300188 -0.00275728 0.0295335 

0.00382934 0.0255642 0.274078 
-0.00265025 -0.030973 -0.0704126 
-0.00211843 -0.0111952 -0.0452873 

0.00575315 -0.117047 -0.115382 
0.0815182 0.0167488 -0.0476981 
0.0568648 -0.0430043 0.249427 

-0.572603 0.102979 0.38608 
-0.428682 0.364429 0.372112 
-0.0956126 -0.0996042 0.327237 

-0.0334885 -0.0141918 -0.308929 
0.00493572 0.0122033 -0.576401 
0.0128986 0.000383908 -0.61345 

-0.0148089 -0.00730722 -0.00804224 
0.0143544 0.00192766 0.0166149 
-0.000937476 0.000693448 0.0223165 

-0.0048371 -0.0264736 -0.0194391 
0.0154307 -0.0147001 0.00872755 
0.000232565 0.00104627 0.0261424 

-0.00970188 0.002591 0.0917691 
0.00102635 7.96484e-05 -0.112605 
0.000584701 0.000554376 0.0136244 

-0.00694556 -0.00523571 -0.0216356 
-0.000354071 -0.00150637 -0.00419977 
0.000458674 0.000775454 0.0127306 

0.00691389 0.0536325 0.106759 
-0.0191636 -0.00709937 -0.0181746 
-0.00276252 -0.0073934 0.0014845 

-0.061667 -0.0173382 0.109828 
-0.0126423 0.0190838 -0.0984626 
0.00259464 -0.0202796 0.0975909 

-0.00658136 -8.7019e-07 0.00162477 
-0.00261037 -0.00939593 -0.0991879 
0.00153619 0.000629983 0.025067 

0.0144889 0.0636104 -0.00526633 
-0.0899375 -0.0477777 0.0279984 
0.0279316 -0.0358686 0.348296 

-0.00919071 -0.00546883 0.000774206 
-0.00067481 -0.00685429 -0.0139545 
-0.000683386 0.000214841 0.0331423 

-0.0154036 -0.0750451 1.38163 
0.0322287 0.143692 -0.0382449 
0.0475594 -0.00240469 1.0214 

-0.0200949 0.00497957 -0.0695705 
0.00449204 0.00443248 -0.038833 
0.00183424 0.00538768 0.0429051 

-0.0113233 -0.0210092 -0.219507 
0.0354754 -0.00360232 0.173046 
0.00093642 -0.0012578 0.0244306 

-0.258375 -0.0920873 -0.21038 
-0.119606 0.0262269 0.432737 
-0.037878 -0.0306252 0.183954 

-0.135321 0.0224588 0.460568 
-0.234008 0.0705394 0.159061 
0.0274621 0.030945 0.0998298 

-0.267682 -0.0489157 0.503563 
0.0554567 0.189709 -0.201611 
-0.0259252 -0.0255787 0.772153 

-0.318132 -0.905699 0.448462 
0.35709 0.800081 -0.721403 
-0.00181068 -0.0236529 0.195693 

-0.0459267 -0.00744929 0.0366994 
0.0154978 0.0152289 -0.018472 
0.000947479 -0.00184213 0.0059546 

-0.0108102 0.0158543 -0.257342 
-0.0184038 -0.00459474 -1.0013 
0.000434887 0.0028557 0.118867 

-0.216121 0.13126 -0.169553 
-0.210415 0.127565 -0.56734 
-0.00174975 0.102181 0.355167 

-0.496091 -0.254255 5.67717 
0.402624 0.188116 -4.36897 
-0.00778327 0.00693651 0.114388 

-0.0365399 -0.523707 -15.6353 
-0.028431 0.129684 4.84047 
-0.00171844 0.00603798 0.484428 

-0.0712775 0.0258562 0.32581 
0.057819 0.125773 -0.387497 
0.00243943 0.0075133 0.133598 

-0.018215 -0.0286129 0.00273633 
0.0180805 0.0171423 0.00477159 
0.0129554 -0.00320498 0.0495282 

0.0344633 0.00740806 0.0923254 
-0.0430033 -0.0299782 -0.0237429 
-0.000139829 0.00510925 -0.017389 

0.0130774 2.86435e-05 0.161288 
0.024933 -0.0562615 0.0237571 
0.00901958 0.00395579 0.101166 

-0.0202853 -0.0208463 0.124621 
0.0495259 0.00357291 0.0737928 
0.00071834 0.00420297 0.0889578 

0.00764102 0.0257991 0.0169964 
-0.00018593 -0.0074399 0.0253743 
-0.00294309 0.000261252 -0.010696 

-0.0501328 -0.098882 0.00623228 
0.158848 0.0789253 -0.00370652 
-0.0056379 0.0500209 0.21655 

-0.0832932 0.0196554 0.0606687 
-0.148563 0.0323388 -0.0595484 
-0.0438113 0.0791497 0.134421 

-0.00955639 0.0995927 -0.0170404 
-0.0912388 0.00753757 -0.000871221 
-0.00201164 -0.00209281 0.0302557 

-0.00120119 0.0883246 -0.0885685 
-0.0769779 -0.0417223 -0.0448923 
0.00659005 0.00993742 0.0227817 

0.0046115 -0.0690559 -0.0532484 
0.0940294 -0.0132155 0.0435585 
-0.00835444 0.00311876 0.0316806 

-0.0139052 0.213502 0.348011 
-0.204696 0.0546492 0.0246977 
0.0570718 0.0250167 0.37084 

0.0146753 0.0489041 -0.00617518 
-0.0362389 -0.000566131 0.00644231 
-0.00179167 0.000569819 -0.0268598 

-0.0251731 -0.0153411 -0.431123 
-0.00491339 0.0296229 1.09036 
0.00813689 0.00299994 0.102717 

-0.0954366 -0.158365 -0.0213242 
0.377186 0.106263 -0.506657 
0.0201991 0.0308605 0.540671 

-0.0507189 -0.0414011 0.310797 
0.0431849 0.0443255 0.125148 
0.0178138 -0.00689292 -0.0323712 

0.00383383 -0.0127496 -0.00964596 
0.00108044 0.00153476 0.00550819 
-0.000304186 0.000422644 -0.00518442 

0.0650429 -0.24207 0.0184768 
0.13145 0.0157482 -0.0953688 
0.038885 0.00336079 0.0816827 

-0.0596994 -0.0385757 -4.77184 
0.0885458 0.0525565 6.47083 
0.00488674 0.00222457 0.494478 

-0.00586467 0.0074782 0.0309698 
0.0163713 -0.00495545 -0.0076486 
0.000320262 -0.000797116 0.0223693 

0.0101319 0.0879374 0.0255779 
-0.107073 0.00121849 0.025731 
0.021722 -0.058958 -0.0332901 

-0.113398 -0.322265 0.182419 
-0.175187 0.103098 0.68209 
-0.0411668 -0.0643269 0.515761 

-0.0430685 0.0382925 -0.0565262 
0.0143413 0.014092 -0.0256233 
0.0758325 0.0408036 0.176186 

-0.117097 0.0134284 -0.704012 
-0.00459609 0.0386321 -0.0591801 
-0.00600203 0.0157467 0.00749377 

-0.0194604 -0.100238 0.253149 
-0.0237238 -0.018405 0.00349613 
2.38999e-06 -0.00195549 0.0125869 

0.0347168 0.105116 -0.0504568 
-0.16785 -0.0246534 0.282343 
-0.00847341 0.0035539 0.000896907 

-0.0345129 -0.0642362 -0.0509585 
0.0216124 0.0803921 0.232302 
0.00113098 -0.00865105 0.0729969 

-0.0969275 -0.0333474 0.258797 
0.0707581 0.0648221 0.104145 
0.011754 0.0725014 0.459823 

0.0277294 -0.18174 -0.0228069 
0.0902965 -0.0174097 0.179896 
-0.00533065 -0.0133232 0.0176742 

-0.077516 -0.00953112 0.0158763 
-0.0447143 0.0622975 -0.131757 
0.0127725 0.00795226 0.0102041 

0.0356974 0.225853 -0.0062637 
-0.171652 0.0520672 0.00301993 
-0.0700324 -0.0241606 0.419208 

-0.0942378 0.0327349 0.0399671 
0.0080377 0.0211403 0.142579 
0.00247866 -0.0278845 0.121942 

0.157463 -0.200432 0.917927 
0.0858481 -0.0715283 -0.150989 
-0.0384186 -0.0524758 0.22299 

-0.00845746 -0.00399691 0.00393106 
-0.00210706 0.000640288 -0.00563486 
-2.14349e-05 -0.000232906 0.00731335 

-0.0677223 0.0731264 -0.179905 
0.000238266 -0.00186458 0.000329013 
-0.00958344 0.00780831 0.0171381 

-0.0342109 -0.00312383 -0.0235241 
0.0346865 0.00837298 0.0076399 
-0.00144388 0.00210759 0.0274947 

0.00364832 -0.0606228 1.3718 
0.124964 0.0183208 1.04428 
-0.0169217 0.00738754 0.214581 

-0.0411781 -0.0212719 -0.50835 
-0.0056346 0.00560444 0.0410375 
0.0111977 -0.00180389 0.0105007 

-0.0219088 -0.064808 -0.0486177 
0.113424 0.0183565 0.112313 
-0.0410346 0.0318994 0.116302 

-0.0384737 0.0840648 -0.948648 
-0.118742 0.0904847 -0.819931 
0.011337 -0.0012316 0.337411 

0.011442 0.107394 -0.15117 
-0.169233 0.0289167 0.0875395 
-0.0220512 0.0021574 0.0888073 

-0.0302911 -0.0232875 0.391072 
0.00771248 0.0105744 1.17341 
0.00118844 0.0221846 -0.063211 

-0.0479865 0.106724 0.240544 
-0.0540144 -0.0044074 -0.163891 
0.0016758 0.00400587 0.068641 

-0.0115482 0.020123 0.0726131 
-0.0231284 -0.00590073 -0.0171159 
-0.000766772 0.00214762 0.0134318 

0.0907115 0.0505435 0.197297 
-0.0754713 -0.0369196 -0.166993 
0.000225008 -0.00311925 0.0244536 

0.0299016 -0.0398522 -0.534432 
0.0129741 -0.00738559 2.04573 
0.000989376 -0.000979228 0.113025 

-0.0237207 0.0322243 0.594562 
-0.037034 0.0245494 0.525221 
-0.00932411 -0.00747618 -0.196568 

-0.144318 0.108224 -3.35218 
-0.228276 0.175371 -6.07823 
0.00470353 -0.0130117 0.287657 

-0.0282309 -0.0244792 0.701472 
-0.000663623 0.00772535 -1.64298 
-0.0021524 0.000773909 0.360016 

0.0693518 0.0396447 0.358118 
-0.0271017 -0.0649412 -0.51776 
0.00884734 0.0230512 -0.261618 

-0.0136162 0.0219343 1.60402 
-0.0192086 0.0135864 -0.140449 
-0.00130034 -6.7679e-05 0.148692 

-0.195151 -0.347544 -0.90914 
0.0828069 0.224267 -2.75723 
0.00848842 0.0106679 -0.178215 

0.0406468 0.0709666 0.376654 
0.0184267 -0.000938273 -0.02563 
0.00364768 0.0225574 0.183619 

-0.00626808 -0.0198246 0.00274795 
0.00917224 -0.0160767 0.00379619 
-0.00127016 0.000638714 0.0185934 

-0.0537213 0.0221294 0.0241671 
0.0176508 0.00322906 0.0483552 
0.00697847 0.00489003 0.0344333 

0.00127853 -0.00992575 -0.000187017 
0.00323628 -0.00332942 0.00305287 
-0.000189221 0.000230481 0.00383231 

-0.0215563 0.00363446 0.0438269 
0.00352604 0.00416068 -0.00363103 
-0.00356304 -0.00387931 0.0594998 

-0.016307 0.0119495 -0.450726 
-0.00444684 0.00893638 0.0432496 
0.0117772 0.00867141 -0.757346 

-0.00785534 -0.0101272 -0.0270032 
-0.00210218 -0.00405753 -0.0418527 
-0.000674032 0.000884344 0.0123593 

-0.134195 -0.0327324 0.640252 
-0.0628135 0.123742 -0.82303 
-0.0299745 -0.0812229 0.380245 

-0.049803 0.0542213 -0.478648 
-0.185792 0.0888023 -0.569144 
-0.0399503 -0.0318002 0.00963466 

0.0245193 -0.0253705 0.0705783 
0.0529217 0.0120584 -0.0877194 
-0.000272726 0.0189912 0.211155 

-0.197644 -0.260996 0.0430433 
-0.0971848 0.0108905 0.0931254 
-0.0247048 0.00133729 -0.272492 

-0.00867405 -0.00431717 -0.122178 
-0.0216978 -0.00473286 0.0285241 
0.0604172 -0.0385403 0.619168 

-0.35829 -0.585077 1.05402 
0.313214 0.312973 0.193527 
0.0384834 -0.0413285 -0.701226 

-0.00573726 -0.0156282 0.0333205 
0.0105564 0.00146467 0.0415341 
-0.00459443 0.00564367 0.0373177 

-0.0236673 0.0811092 0.0935425 
-0.0342571 -2.17205e-05 0.0091734 
-0.0341922 0.0394391 0.268415 

-0.484139 -0.459874 0.291802 
0.289675 0.44163 -0.499184 
0.017713 -0.00739558 0.0902714 

-0.00264141 0.02012 -0.0211363 
-0.00824736 -0.0223852 -0.026812 
0.00687335 0.00793723 0.00994104 

-0.0509283 0.0107594 -2.72435 
-0.00759301 0.0503368 -0.310522 
-0.0103533 -0.00152474 1.90732 

-0.640804 -0.683206 0.501984 
0.0618546 0.460822 -2.08382 
-0.0488113 0.046673 0.0385143 

-0.14134 -0.0620169 0.283879 
-0.021482 0.0624327 0.168792 
0.0144462 0.00188448 0.105552 

-0.00351515 -0.00920725 0.971783 
0.00387608 0.00277067 -0.153955 
-0.00533913 -0.00178582 0.163552 

-0.0875483 0.0962824 -0.149276 
-0.0957818 0.0500164 0.176256 
0.0211357 -0.00282516 0.205999 

-0.00366452 0.00118803 -0.0461877 
-0.0286456 -0.0330006 -0.0261169 
0.0211023 -0.000606877 0.610032 

-0.170107 0.0129275 0.103047 
-0.0501684 0.0319568 -0.0167461 
-0.00650523 -0.058306 0.0761945 

0.103762 0.0120092 -0.264635 
-0.0272189 0.0026991 0.0228824 
-0.00588993 0.000466876 -0.105387 

-0.009778 -0.00855215 -0.00247038 
-0.00021839 0.000330964 -0.0226805 
0.000407316 -0.000282523 -0.00353533 

0.0169815 0.049589 -0.0659198 
-0.0279426 -0.00200539 -0.0201076 
-0.00460175 -0.000368891 -0.000740715 

-0.00400953 -0.0599231 -0.269704 
0.0770919 0.00416514 0.0979897 
0.0140703 0.0178489 -0.124072 

-0.102913 0.372268 -0.0724075 
-0.320991 0.224208 -0.290504 
0.0459211 0.041589 0.567625 

-0.0657359 -0.0545669 -0.0578861 
-0.0526567 0.0304228 0.04251 
-0.0151265 0.00251314 0.0485158 

-0.0128025 -0.0410145 -0.355159 
-0.029048 -0.00833475 0.139563 
-0.000259677 0.00778181 -0.107016 

-0.00985007 -0.0355239 -0.00806314 
0.00695157 -0.00980722 0.00317794 
0.000846413 -0.00131095 0.0147839 

-0.0593189 -1.08126 -6.05131 
-0.0456026 0.429073 -6.50606 
0.0268896 0.0122917 1.62755 

-0.176008 -0.137432 -0.290411 
0.170801 0.0587738 0.0018497 
-0.0020526 0.0218497 0.248894 

0.603601 -1.55735 -3.09443 
0.0512651 -0.032384 -0.246859 
0.00855966 0.0430535 0.103672 

-0.0588413 0.0738365 0.084117 
-0.0655725 0.00468833 -0.00783172 
0.00501199 -0.00366943 0.0599485 

0.0224455 0.0299272 -0.432597 
-0.00950037 -0.0652891 -0.501183 
-0.019628 -0.0241486 0.0930097 

0.0807625 0.144504 -0.283507 
-0.053129 -0.032664 -0.0179843 
-0.0122007 0.00903129 0.0937318 

-0.0114972 0.00197451 0.0333492 
-0.00636668 0.00276185 0.0288624 
0.000159288 0.00117198 0.01311 

-0.0887731 0.0482862 -0.111099 
-0.021908 0.0671346 -0.0247185 
0.00772607 -0.00386188 -0.0269865 
