# vtk DataFile Version 3.0
Output file generated by Yade's KinematicLocalisationAnalyser
ASCII
DATASET UNSTRUCTURED_GRID

POINTS 13483 float
436.095 47.6125 0.481437
529.651 80.0345 -0.501155
107.246 6.24415 0.491879
551.682 11.394 0.56813
385.249 10.1503 0.534201
264.446 52.0511 0.591598
141.037 7.70903 0.466785
424.919 11.8185 0.233879
381.479 43.2248 -0.161223
505.852 17.78 -0.556144
185.751 9.01344 0.119889
224.62 7.54725 0.384482
462.647 64.0037 0.164904
458.365 25.9571 -0.182289
123.82 18.1967 0.502357
192.114 36.0997 0.396352
193.055 13.1536 -0.284074
248.576 15.1215 0.517065
287.862 44.2859 0.479656
395.544 12.7875 0.672938
349.326 66.7736 0.121288
423.687 75.5722 0.377274
548.752 56.1247 -0.512616
499.681 75.6869 -0.180107
361.778 20.5117 0.291567
205.775 52.5816 0.134114
377.638 47.1362 -0.558892
435.149 23.1966 -0.30839
38.861 17.9642 -0.482722
500.91 61.2905 -0.442657
376.136 8.24568 0.484263
15.5969 25.3006 0.317903
542.526 83.4901 0.257023
383.652 2.71895 0.602231
68.8741 47.5441 -0.106434
392.789 50.1996 -0.462785
401.761 22.7268 -0.695434
286.419 31.7502 0.194962
401.232 39.6867 -0.333903
298.153 48.0854 0.448463
212.977 16.1404 0.480411
369.32 76.608 0.0725973
474.369 7.79652 0.169286
169.578 6.1225 0.444475
48.6365 7.36973 0.0958134
59.6298 9.55908 0.29125
488.332 7.30557 0.575164
20.945 12.6576 -0.32702
437.31 89.3112 -0.352911
479.42 64.7022 0.329246
154.618 39.8796 0.302392
531.894 65.907 -0.147616
29.0252 33.1965 -0.109374
400.081 3.60639 -0.392721
128.21 7.21625 -0.56427
431.463 68.2953 0.497694
383.221 47.4485 0.129314
156.427 2.23718 -0.597908
28.6267 2.48623 -0.287186
292.315 21.7068 0.264238
450.703 95.9057 0.127595
350.903 41.9767 -0.243327
317.054 1.03965 0.210727
491.471 16.5903 -0.670956
22.8281 50.7163 0.235773
223.465 41.9231 -0.378192
504.068 12.6293 -0.418438
470.063 95.1799 0.367423
331.107 10.2674 -0.648772
424.848 5.3754 0.658083
514.591 53.2841 0.473399
117.758 7.9878 0.282135
382.899 45.2119 -0.147136
372.106 23.0183 -0.105115
254.011 22.9335 -0.403672
18.466 14.6939 0.345145
551.241 77.587 0.407588
281.625 51.1589 -0.32426
484.554 56.8555 0.344686
487.293 11.8902 0.418861
545.242 27.0795 0.291571
353.49 44.9996 0.184703
83.4704 43.377 -0.307311
487.703 82.6181 -0.26567
453.978 70.7142 -0.110501
549.64 67.565 -0.105362
541.969 2.7765 -0.668062
253.849 36.18 0.494426
465.297 10.0435 0.32734
22.0606 6.62583 -0.655703
121.589 39.8017 0.180689
391.943 25.658 0.265171
535.098 53.0073 0.586727
173.936 36.9348 0.223191
38.3808 39.3945 0.303508
383.446 0.921134 0.405082
208.588 10.1771 -0.455417
510.893 64.7763 -0.376769
528.247 51.4358 0.217242
298.729 33.1081 0.263309
145.959 35.3914 0.44023
408.774 60.6724 -0.437419
312.657 33.6399 -0.492113
342.999 53.4375 0.0972889
314.234 20.3103 0.479036
411.447 13.0184 -0.160962
555.267 16.7869 -0.306125
71.4265 42.8931 -0.423854
284.882 5.59332 -0.182109
420.175 10.5552 -0.485375
300.452 63.8029 0.451061
22.6339 29.1822 0.46798
27.4977 6.27004 -0.325555
422.065 44.8005 -0.488011
385.393 40.8491 0.193874
22.8358 44.6326 0.407665
84.664 34.7319 0.247603
277.867 18.7667 0.300523
441.418 26.7252 -0.209097
362.824 52.542 0.334145
516.032 7.97688 -0.673538
510.269 6.29622 0.289305
328.649 64.2393 -0.108132
454.807 49.3775 -0.116255
212.043 20.0105 0.52989
281.791 4.50641 0.488942
92.8778 34.8453 -0.415626
104.702 25.9095 0.263387
405.708 64.3644 0.0764972
264.543 21.3259 0.4753
498.136 52.8285 0.110101
475.56 95.0562 -0.105087
370.214 35.3955 -0.466225
530.84 14.4364 0.480527
337.826 30.393 0.268325
240.385 30.9362 -0.350069
478.637 82.3965 -0.336954
242.63 35.8183 0.378527
432.667 14.8324 -0.26937
282.302 47.8094 0.227874
385.662 24.3542 0.606493
312.238 53.541 0.0925773
341.475 19.7771 -0.185763
271.691 58.8889 0.454378
171.496 38.5228 0.109906
534.017 80.5795 0.184594
552.412 20.2627 -0.330057
5.72932 13.2191 0.417431
341.448 28.993 -0.380482
33.3969 27.0603 -0.0776355
320.789 56.7744 -0.459229
327.699 48.2563 -0.274221
66.0899 12.2462 -0.525553
45.0185 35.7296 -0.544361
201.182 16.0217 0.488983
452.087 86.9733 0.375526
431.595 25.1556 -0.576207
68.1213 22.6113 -0.470678
504.019 74.9704 0.445285
527.801 9.40472 -0.546764
466.119 86.1488 -0.457839
494.506 4.79301 0.506456
412.303 41.7108 0.514556
424.702 74.7948 -0.649487
393.597 31.6888 -0.389907
548.79 6.62278 0.264001
199.542 27.6019 -0.120475
117.512 36.9061 -0.215782
218.758 8.2962 -0.635418
84.0736 4.76036 0.279691
56.1706 11.4622 -0.221097
241.633 43.3279 -0.388021
16.1635 26.9421 -0.3781
419.941 25.8054 0.562196
440.01 84.6559 -0.19124
361.142 30.7045 -0.422436
551.579 100.338 0.332096
324.89 11.0936 -0.197305
374.992 79.058 0.386018
407.579 3.05665 -0.432128
19.6097 28.4609 -0.370015
435.309 5.64166 0.618346
413.718 5.79533 0.667272
184.3 11.4906 0.526201
338.47 17.6424 -0.230256
267.956 6.98216 0.500549
320.75 37.4016 -0.375333
528.793 90.3763 -0.041351
172.464 33.3997 0.488747
539.37 15.1585 -0.444837
526.621 85.2192 0.303403
319.204 28.4502 0.262365
501.575 3.9863 0.479353
436.403 40.4397 -0.532818
509.36 33.6816 -0.377893
369.44 83.5549 -0.259973
381.76 26.6951 0.518909
356.06 56.9591 0.224843
355.817 11.7918 -0.167698
468.196 88.9205 0.251997
469.249 82.2259 0.378819
175.293 50.4186 -0.348406
543.828 28.7427 -0.145023
425.588 76.008 0.279287
10.8467 18.4167 0.183757
329.704 41.6274 0.358687
167.983 31.481 0.401478
85.126 44.3426 -0.217945
535.198 44.2965 0.442816
461.056 86.208 -0.2328
275.403 35.2021 0.378761
405.522 12.1998 0.554791
73.863 47.9643 -0.207126
217.534 29.5279 -0.485402
418.48 31.9401 0.455512
377.043 36.453 0.428764
231.944 0.850964 -0.516197
416.242 55.5391 -0.51878
405.2 71.7329 -0.479676
374.809 54.0544 0.4001
390.351 1.95478 -0.622275
493.192 31.6376 -0.402594
161.598 15.5308 -0.287748
387.587 67.6945 -0.443313
411.528 69.543 0.112825
65.1167 0.976665 0.346476
222.865 5.21212 0.255846
551.566 22.0294 0.239476
546.622 27.8325 -0.620215
555.222 25.2298 -0.654138
262.149 11.5563 -0.24245
517.595 39.8519 0.483482
346.963 72.5885 0.343381
358.178 1.52154 0.631819
460 73.8447 -0.549951
23.1824 37.9654 -0.540711
284.117 54.0417 0.476471
224.21 3.85676 0.566101
546.975 85.6564 -0.201816
500.791 98.0238 0.23059
250.686 16.6223 0.281064
474.643 71.7506 -0.0877919
421.89 2.61223 0.351618
412.092 9.14969 0.599803
86.5847 19.168 -0.510107
262.562 0.971029 0.261865
294.975 2.46482 -0.317837
12.5942 8.24937 -0.632467
4.52944 32.6507 0.279869
147.23 20.998 -0.356632
60.8312 43.8786 -0.217681
60.1464 30.6937 -0.345088
338.836 15.9017 -0.627281
313.659 58.0115 0.466205
529.597 66.4704 0.131661
18.1086 4.53465 -0.265322
62.6077 7.51676 0.226941
443.145 55.7481 -0.17428
255.272 2.40694 0.409369
303.916 30.5649 -0.0759627
210.777 6.10147 0.539141
469.56 54.975 -0.172814
359.619 9.02628 0.702126
518.839 39.2266 -0.474956
454.413 53.5941 0.305557
488.981 47.9782 0.0853132
333.195 33.6666 0.526183
94.3624 49.3403 -0.310867
410.852 63.9943 0.0855949
516.245 18.2485 0.253488
211.486 38.5002 -0.255745
27.9236 18.9434 -0.171989
288.15 15.8417 0.623541
98.7391 43.7836 0.47079
237.185 51.2328 -0.219867
343.242 2.41875 -0.336373
535.939 57.7533 0.374313
489.636 0.796642 0.600037
285.552 3.98775 0.541727
263.863 31.2732 -0.150943
355.323 53.0818 0.224253
72.9448 9.02306 0.544539
182.734 55.9371 0.376662
529.119 57.3076 -0.357578
382.365 66.0926 -0.0763436
183.923 52.4413 -0.248219
146.14 51.0092 0.392428
552.386 62.9363 0.418748
553.826 19.2545 -0.609857
459.338 5.27563 -0.527666
169.86 32.0859 -0.086939
411.518 43.5209 0.139403
414.112 41.2913 0.290665
328.781 7.34787 -0.167915
379.556 0.797958 0.508243
526.609 68.3975 0.495019
77.9514 34.5823 0.236328
474.133 52.387 -0.556643
238.7 19.2162 -0.362138
8.39566 2.56772 -0.391687
115.995 38.3904 -0.197379
60.9702 25.883 0.473821
496.674 62.0882 0.345877
542.017 93.0137 0.18748
169.337 38.5809 0.190122
547.613 19.4842 0.572224
40.1586 41.0117 -0.253968
83.851 32.9295 0.153687
463.849 32.4949 -0.461954
333.021 19.1925 -0.661986
400.711 24.0698 0.140537
212.35 36.701 0.183322
467.265 14.933 0.561071
556.657 15.7214 0.519896
25.1961 37.9866 -0.359082
239.235 9.29692 0.208678
199.282 18.0818 -0.303362
1.09867 36.9167 0.165272
202.317 16.5971 -0.471919
190.568 11.2459 0.121662
190.773 27.4147 0.307818
124.245 29.5762 -0.121134
415.351 21.1741 -0.464405
151.021 16.4425 -0.478845
542.295 81.4703 0.248279
157.468 5.6549 0.614515
42.825 41.4863 -0.381234
534.843 98.183 -0.426721
248.171 38.9955 -0.376553
485.525 60.1867 0.471228
541.26 59.8787 -0.5248
260.537 12.7955 0.113209
506.361 51.0684 -0.412515
283.513 2.3661 -0.402374
331.209 31.9441 0.402668
484.587 36.3807 -0.569354
95.9618 12.5037 -0.448467
381.035 3.96795 0.557552
520.031 35.4123 0.216255
79.4046 7.99587 -0.352021
245.878 19.9833 -0.221689
340.235 13.3466 0.367913
549.62 8.28811 0.594941
321.679 1.91637 -0.591021
160.711 47.8705 -0.266202
514.298 22.0781 -0.370159
119.258 37.9974 0.208189
231.22 39.572 -0.377978
327.449 35.7435 -0.239968
434.928 16.5709 -0.474926
312.998 10.8741 -0.664997
356.896 37.4986 -0.479719
529.21 81.5477 -0.405103
42.5042 12.0774 0.210684
257.087 55.9506 0.272427
318.798 47.8894 -0.391153
329.542 23.9399 -0.334717
404.221 84.2797 -0.356341
520.248 64.1547 0.287214
473.958 84.1822 -0.359956
199.232 38.891 0.434113
12.5942 36.4615 -0.200796
467.461 82.869 -0.138681
391.416 79.6925 -0.456589
201.84 44.9653 -0.153957
485.458 76.2622 0.110308
138.451 10.2874 -0.267112
310.976 39.0812 0.271151
356.409 54.8158 0.11286
333.612 22.8659 0.196303
526.36 79.9092 -0.352913
343.072 5.35473 0.468998
43.0839 29.3465 -0.292589
365.757 47.1353 0.393674
377.913 83.4741 -0.347635
548.09 79.4521 -0.23665
508.169 70.8419 0.230202
412.127 24.6475 -0.15688
538.795 75.26 -0.500474
255.313 3.70932 -0.592834
325.665 54.8463 0.483559
26.107 46.455 0.30878
503.414 59.2902 0.165002
448.187 31.6293 -0.558251
369.565 0.742196 0.537219
114.83 5.25819 -0.410006
368.196 80.4085 0.101785
10.8328 0.882579 -0.296303
548.199 12.4718 -0.145116
315.189 63.707 -0.417345
462.924 13.5652 0.41437
[...]
POINT_DATA 13483
TENSORS Strain_matrix float
-3.02934 -0.142632 12.7124 
-0.889823 0.608411 3.5137 
-3.93668e-18 2.03781e-17 1 

-0.512301 0.551947 -64.1267 
0.631853 0.994198 -14.0883 
3.59296e-18 1.06251e-18 1 

-0.266179 -0.003051 -0.0566688 
0.098687 0.0488632 0.173585 
-1.68149e-18 -7.41917e-20 1 

-1.6454 0.311076 -2.26812 
-0.64758 0.786839 -0.253163 
-2.47768e-18 2.0953e-17 1 

-3.48476 0.152129 2.33886 
1.00788 0.677287 3.9878 
-1.16454e-17 -2.00893e-17 1 

-0.430384 -0.132241 -9.30506 
0.0213824 0.338499 6.00729 
2.89086e-18 -1.36548e-18 1 

-0.252188 -0.230864 0.015708 
0.172408 0.107961 -1.36963 
-4.20594e-18 1.8247e-17 1 

-0.44901 0.0521609 0.305261 
0.161487 0.0491511 -0.0760868 
1.87613e-17 2.4285e-18 1 

-0.631962 0.210809 -0.239094 
-0.299883 0.488923 0.185754 
7.14965e-18 -2.13497e-18 1 

-0.172025 0.65651 0.429431 
-1.01303 0.211513 0.119839 
3.89328e-18 1.32225e-18 1 

-0.19949 -0.101645 0.178275 
0.0756039 0.0220082 -0.350879 
3.58387e-18 -9.66087e-18 1 

-0.403639 0.0406777 -0.229011 
-0.00419221 0.0912595 -0.579563 
-1.39318e-17 1.24391e-18 1 

-1.45928 -0.912525 1.12184 
0.380335 0.60147 -0.916483 
9.13924e-18 2.57041e-18 1 

-0.185586 -1.20388 -1.17759 
0.701455 0.797233 -0.445216 
2.98823e-18 7.69311e-18 1 

-0.196862 -0.00712991 -0.172674 
0.0848228 0.0135561 0.170569 
5.32507e-18 -7.79279e-18 1 

-0.137193 -0.38002 1.35654 
0.378278 0.110345 0.782545 
1.71344e-17 1.54829e-18 1 

-0.155181 -0.0608196 0.103674 
0.025833 -0.071122 -0.145619 
-2.64534e-18 -1.49745e-18 1 

-0.248595 -0.168522 0.177244 
0.164794 -0.107613 -0.148641 
2.2616e-18 1.44122e-17 1 

-0.436828 0.0840954 -4.43395 
0.0377219 0.0738791 0.139196 
9.13028e-18 3.97481e-18 1 

-0.849443 0.385004 14.2413 
-0.508102 0.236847 1.76375 
1.0847e-17 1.23574e-18 1 

-0.175468 -0.508268 -0.467265 
0.399214 0.136631 0.322042 
2.07732e-18 -1.05329e-18 1 

-1.14441 -0.226765 -1.49906 
-0.100606 0.54053 0.941989 
1.79623e-18 -8.23128e-18 1 

-1.71869 -1.04403 -5.32865 
0.0987519 0.846439 -3.99006 
1.01249e-17 -2.08454e-18 1 

0.374723 1.01115 0.181536 
-1.05523 0.793152 0.0013242 
2.00196e-17 2.03403e-18 1 

-0.788132 -0.425272 0.49291 
0.0807638 0.465045 0.360588 
-7.31337e-18 2.40974e-18 1 

-0.170881 -0.631132 0.663028 
0.330932 0.330195 -0.347822 
4.31788e-18 6.3285e-19 1 

-0.914304 0.312608 4.82069 
0.104904 0.413457 2.66455 
4.45356e-18 -1.07965e-17 1 

-0.477417 -0.925195 -0.932701 
0.646092 0.472613 0.106885 
2.12008e-18 1.43694e-17 1 

-0.280655 -0.321056 -1.77456 
0.263106 0.163798 -0.621007 
4.82062e-18 1.42105e-18 1 

-9.19789 1.50765 -10.2109 
1.57733 -0.771681 -3.34662 
2.83081e-17 0 1 

-1.13715 -0.233817 -0.704203 
0.655412 0.418408 0.460517 
-1.3335e-17 7.0151e-18 1 

-0.394444 -0.376794 -0.62167 
0.0646826 0.158378 0.560048 
-2.16155e-18 -1.90686e-18 1 

0.403849 -0.974748 -1.69531 
0.627102 0.285826 2.86004 
-1.60146e-17 -5.6367e-18 1 

-1.18581 -0.191341 -1.00623 
-0.112971 0.466835 -0.925058 
-9.80505e-18 1.6216e-17 1 

-0.104202 -0.196102 0.0303939 
0.179144 -0.0616249 0.229534 
-5.26577e-19 -2.37124e-17 1 

-0.859888 1.33141 -14.2696 
-0.886088 0.856831 0.917171 
4.49365e-18 -3.86332e-19 1 

-1.16367 0.0118222 3.39389 
-0.0431864 0.433444 -7.1327 
-7.40767e-19 3.29729e-18 1 

-1.31598 -0.523764 -1.11937 
0.501575 0.446963 -1.05649 
-2.48394e-18 5.66859e-19 1 

-1.12659 -0.373263 -3.61029 
0.134831 0.310834 -0.415162 
-4.36705e-18 -6.69615e-18 1 

-0.389567 -0.262983 -5.4963 
0.488238 0.264637 -0.712521 
-6.6792e-18 -1.31871e-17 1 

-0.345856 -0.264698 0.541457 
0.128946 0.10528 0.696239 
3.75757e-18 -7.27553e-18 1 

-0.239332 -0.181993 0.535484 
0.347904 0.110018 0.266562 
9.0637e-18 -5.7981e-18 1 

-1.40328 0.679549 -1.01035 
-1.63788 1.28369 -0.213025 
2.37988e-18 5.55305e-18 1 

-0.205002 0.0851783 0.255192 
-0.0938818 -0.0626926 0.842133 
-7.15829e-18 2.18451e-17 1 

-0.272616 0.12054 0.257882 
-0.049122 0.00956684 0.116407 
-3.04771e-18 1.66672e-18 1 

-0.231731 -0.114365 0.220308 
0.00152569 0.0983254 -0.102776 
-3.07886e-18 1.34762e-18 1 

-0.657426 -0.612512 -2.87994 
0.254282 0.32971 4.90026 
-3.49848e-18 5.89745e-18 1 

-0.0643176 -0.0200587 0.0130233 
0.0198985 -0.194145 -0.0317144 
-1.43624e-17 -2.59451e-18 1 

0.0999292 -0.592285 -0.0106193 
0.701691 0.187453 -0.0159432 
1.0742e-18 -9.66777e-18 1 

-1.46746 -1.07038 8.60845 
-0.0449914 0.179115 -2.58069 
-9.30508e-18 -7.2812e-18 1 

-0.171351 -0.11722 -0.214195 
0.0398752 0.0703295 0.560003 
-7.4782e-18 -1.35967e-17 1 

-1.11125 0.186305 5.48242 
0.589773 0.126352 -0.406294 
6.51265e-18 1.20648e-17 1 

-0.275708 -0.0517423 -0.723216 
-0.189896 0.119385 0.754014 
1.97758e-18 6.85562e-18 1 

-0.620382 0.00962653 0.157373 
-0.0499528 0.188213 0.088994 
7.53035e-18 2.79967e-17 1 

-0.220357 -0.0241774 1.48627 
-0.0276517 -0.0529834 -1.96781 
8.90456e-19 9.88713e-18 1 

-0.889898 0.0573667 -15.4736 
0.378527 0.562464 -9.5177 
8.42171e-18 -2.19761e-18 1 

-1.54021 0.328572 -4.94908 
0.171376 0.48764 1.98159 
5.71786e-18 -9.0045e-18 1 

-0.547599 0.168623 2.14284 
0.0536824 0.151204 -0.5507 
-7.62591e-19 1.00065e-17 1 

-0.0961147 0.132905 0.0946238 
-0.112412 -0.120011 -0.067695 
1.30574e-18 2.53391e-18 1 

-0.992206 -0.969301 0.320573 
0.252111 0.599458 0.623151 
-5.83367e-18 -7.18271e-18 1 

-1.6671 0.363101 -13.0202 
-0.00799377 1.00409 -1.39702 
-9.7461e-20 -2.783e-18 1 

-0.0544814 -0.394789 -1.65742 
0.479087 0.205906 0.438124 
-1.60791e-17 1.42682e-17 1 

-0.130632 -0.323255 -0.359587 
-0.0272343 -0.104234 -0.11015 
-1.84586e-17 3.63242e-18 1 

-0.76664 -0.735372 -9.10299 
0.450556 0.458987 21.3869 
-3.28007e-18 1.16612e-17 1 

-0.100302 0.0136929 0.21737 
0.0335412 0.0303913 0.200398 
-5.06631e-18 6.66126e-18 1 

-0.457614 -0.019604 2.38008 
0.0695209 0.218787 2.21504 
1.4588e-17 1.07265e-17 1 

-1.1122 0.309696 0.076033 
-1.45376 0.528169 0.0343618 
-4.57824e-18 1.0107e-17 1 

-2.59348 2.30008 15.0645 
0.2085 0.365577 3.45762 
-8.03825e-18 6.31232e-18 1 

-0.409741 0.000662134 0.794571 
-0.233312 -0.0053105 -0.0442718 
1.39617e-17 -6.03281e-19 1 

-0.695502 0.138578 -0.313262 
0.0725526 -0.0402786 2.16817 
9.83054e-19 3.48706e-18 1 

-1.38576 -1.8163 -1.5462 
-0.0362787 0.604163 -1.20291 
1.50787e-17 7.10147e-18 1 

-0.19275 0.10162 0.204287 
-0.117627 -0.0352459 0.35617 
9.36323e-18 -5.28075e-18 1 

-1.30072 -0.78476 -7.41499 
-0.0497206 0.628314 1.0632 
7.32556e-18 1.24463e-18 1 

-1.56221 -2.6493 0.805437 
0.43579 0.952047 -0.858867 
-8.86963e-18 -4.55051e-18 1 

-0.384726 0.0588272 -0.0941071 
-0.00676831 0.0936077 1.82372 
1.05764e-18 1.83684e-18 1 

-0.198562 0.0675934 0.0460305 
-0.104407 -0.0814228 0.055584 
6.49928e-18 7.0539e-18 1 

-5.6774 5.27773 8.07709 
-1.44022 1.81609 2.56684 
-1.13937e-17 -9.89809e-18 1 

-0.140331 0.267236 -1.03626 
-0.110206 -0.0256332 -1.29033 
5.26555e-18 1.42312e-19 1 

-1.05542 -2.79376 -1.92156 
-0.397147 -0.439685 -1.29919 
-8.13717e-18 6.62406e-18 1 

-1.21389 -1.61693 0.430766 
0.993104 1.30533 1.53527 
-1.30399e-18 -4.80301e-18 1 

-0.379107 0.667183 0.259671 
-0.852383 0.448982 0.174816 
7.95784e-18 -2.42195e-18 1 

-0.0439143 -0.323191 -0.060213 
0.309964 0.0284288 0.46866 
3.82696e-18 -3.07457e-18 1 

-0.0988214 -0.0649287 -0.180505 
0.115175 -0.0373488 0.37697 
-3.67381e-18 -1.75864e-17 1 

-0.349927 0.830474 -0.915841 
-0.499974 0.409618 -0.0185224 
1.81933e-19 -6.2807e-18 1 

0.418776 -0.976181 0.167208 
0.825581 0.48049 -0.303841 
2.57907e-18 -2.45362e-18 1 

-0.346327 0.0298928 -0.302293 
-0.0892827 0.215484 0.198575 
2.44116e-18 -2.33594e-17 1 

-1.99608 0.136192 5.70473 
-0.0319199 0.812096 -0.693292 
-5.78107e-18 -1.99913e-17 1 

-0.519185 0.284089 0.238666 
-0.0653329 0.255838 0.218062 
5.99452e-18 7.29903e-18 1 

-1.42651 -0.397689 -2.09193 
0.940554 0.474664 0.318451 
1.6074e-18 -7.12422e-18 1 

-0.291598 -0.00254561 1.59876 
0.0157477 0.0760865 -2.21028 
1.02187e-18 -3.86588e-19 1 

-0.170196 -0.163418 -0.0874094 
-0.0105313 -0.0435262 -0.00945412 
6.59704e-18 2.06157e-19 1 

-0.512558 0.291041 -0.730121 
-0.000139906 0.201465 0.798907 
-2.50569e-17 7.27245e-18 1 

-1.07617 0.233786 -21.6955 
-0.0217783 0.241361 -8.80089 
-5.82871e-19 -1.3406e-18 1 

-0.626877 0.132982 -0.374689 
-0.156367 0.24614 0.531566 
-3.37405e-17 -6.84511e-18 1 

-0.0529012 0.292412 0.378024 
-0.216751 0.0275455 -0.391476 
-4.17637e-18 8.61344e-18 1 

-0.985722 0.831912 -0.781583 
-0.0299765 0.710559 -0.657108 
5.97423e-18 5.06387e-17 1 

-0.235914 0.0443702 -1.16059 
0.0245073 -0.0796314 -0.981256 
-4.43871e-18 1.27461e-18 1 

-0.244119 -0.0284901 -0.550136 
-0.150464 -0.0323766 -0.421622 
5.72017e-19 -9.32828e-18 1 

-1.60862 -0.088062 2.49174 
0.470486 0.463288 -1.11265 
-4.36368e-18 4.70845e-19 1 

-1.04425 -0.222876 -0.248473 
0.899757 0.343239 1.68208 
-2.66498e-18 -4.02775e-18 1 

-0.317859 -0.518581 2.89206 
0.203256 0.295634 -5.33239 
7.39009e-18 -3.19622e-18 1 

-0.588656 0.0284784 -1.85263 
-0.597448 0.558588 0.0324768 
5.75036e-18 -5.08427e-18 1 

-0.444235 -0.229945 -1.35211 
0.201584 0.126449 3.44357 
4.39941e-19 5.79255e-18 1 

-1.29469 9.20696 -26.1061 
-2.22213 3.45216 -10.7351 
-2.56624e-18 1.27276e-17 1 

-2.54956 2.13129 1.53229 
-0.744277 1.20395 0.441632 
1.77886e-17 -1.0734e-17 1 

-0.591931 -0.366975 0.0384891 
0.373078 0.192609 0.35597 
0 -8.46686e-18 1 

-1.63533 -0.0702415 1.00727 
-1.11283 0.48884 0.641888 
-1.6455e-18 -3.48087e-18 1 

-0.207172 -0.0569204 0.425712 
0.000424221 0.0271888 0.897333 
-1.81649e-17 4.29873e-18 1 

-0.247484 -0.0358668 -0.294469 
0.111585 -0.0936095 0.376376 
-8.3194e-18 7.09341e-18 1 

-0.697666 0.20507 -1.54585 
-0.418351 0.0908379 -2.38056 
-1.83746e-19 1.29541e-17 1 

-0.209736 -0.275257 7.03924 
0.331908 0.605193 -0.0927167 
4.62201e-19 1.50986e-17 1 

-0.293065 -0.127979 -0.0393593 
0.146891 0.24376 -1.83534 
1.37686e-18 2.65139e-18 1 

-0.377381 0.330998 -0.423752 
-0.208755 0.139763 -0.265658 
-1.17636e-18 5.93083e-18 1 

-0.458601 0.0284519 -13.9096 
-0.403997 0.109845 -5.24195 
6.69496e-18 -1.92718e-18 1 

-1.80414 0.345935 -4.58502 
0.294726 0.389734 1.75757 
2.49656e-18 2.35028e-18 1 

-0.142705 -0.0349027 -2.11437 
-0.00999593 0.0381616 -0.644835 
-1.70264e-18 -2.3837e-17 1 

-0.442943 -0.148819 -0.348544 
0.00504317 0.101429 -0.0443886 
1.29436e-17 -8.81885e-18 1 

-0.699103 -0.0319541 -0.696357 
-0.047684 0.281382 0.701669 
3.89039e-18 -6.26317e-18 1 

-1.58296 -2.21628 1.26734 
0.189926 0.464441 -0.946854 
-2.21483e-17 -9.52479e-18 1 

-0.0448766 -0.473169 -0.118934 
0.409687 0.071952 0.0169132 
5.26429e-18 -4.91592e-18 1 

-0.799606 -0.607701 3.11309 
0.518918 0.326174 -0.439261 
-7.92524e-18 4.19377e-18 1 

-0.393428 -0.0287893 -0.0889488 
-0.520252 -0.136826 -0.221189 
-1.4376e-17 9.98812e-18 1 

-0.120598 -0.195864 0.138356 
0.0924715 0.0233056 -0.336515 
-1.07145e-17 5.34841e-18 1 

-0.292287 -0.66134 -1.29854 
0.928717 0.612944 0.453778 
1.79056e-18 9.25121e-18 1 

-0.635968 -0.0962495 4.06914 
0.075551 0.279895 0.322589 
5.1619e-19 -1.02206e-17 1 

-0.492364 -0.0880327 -0.267828 
-0.0121263 0.0185631 -0.247248 
-2.00566e-19 -1.37989e-17 1 

-0.188107 0.194492 -0.179644 
-0.252475 0.00714808 0.0278478 
-9.45916e-18 -1.29028e-17 1 

-0.236679 0.284925 -0.278641 
-0.174609 0.137558 0.460225 
4.10609e-18 -7.18565e-18 1 

0.302194 0.780988 0.222226 
-0.839222 0.327026 -0.0513629 
1.23876e-17 -2.31896e-17 1 

-0.309107 0.247166 -0.639873 
-0.109498 0.0254399 -0.316503 
-6.1302e-18 -1.43593e-18 1 

0.685125 -0.197063 -3.41198 
-0.925678 -0.380034 1.08862 
-9.471e-19 -2.8413e-19 1 

0.0613063 -0.121289 0.220366 
0.126704 -0.0292126 -0.103303 
7.34e-18 2.83557e-18 1 

-0.818436 0.460684 4.01469 
0.111363 0.277921 0.438042 
-2.72868e-18 -3.29278e-18 1 

-2.2727 0.954675 1.17372 
-1.75623 1.20971 -0.259511 
-3.54206e-18 2.88088e-17 1 

-0.978805 0.8034 -0.551353 
-0.225031 0.382641 -0.873343 
-1.36166e-17 6.92461e-19 1 

-0.350998 0.0573479 2.24137 
-0.0130297 0.199291 0.550681 
1.97299e-18 8.61184e-18 1 

-1.32204 -0.21932 -2.33716 
0.371408 0.531097 1.0568 
2.70244e-18 1.65149e-18 1 

-0.133965 0.298202 -2.77279 
0.0480939 -0.0208392 -1.43983 
3.70195e-18 -2.63764e-18 1 

-0.515742 -0.152541 -0.440422 
0.342989 0.0988661 0.101325 
-1.22984e-17 1.15655e-17 1 

-0.156444 0.0622784 0.34349 
-0.0576301 -0.0178478 0.00198316 
1.83733e-18 3.92378e-18 1 

-0.351943 0.342665 -1.40511 
-0.314055 0.105643 2.27556 
9.77667e-18 2.4973e-17 1 

-0.136798 -0.151325 0.0136309 
0.293707 0.0357847 0.0359239 
-1.94081e-18 3.63958e-18 1 

-0.230373 -0.839076 1.99577 
0.556463 0.401409 -0.0286349 
3.09935e-18 8.24145e-18 1 

-0.509159 -0.381084 -7.78409 
-0.13625 0.378145 1.10693 
-1.1819e-18 -4.67262e-18 1 

-0.737478 0.571862 -0.954134 
-0.390229 0.571643 0.638932 
4.88974e-18 7.51764e-18 1 

-0.04241 -0.971924 0.454404 
0.477412 0.289249 -0.487636 
6.06345e-19 1.23106e-18 1 

-0.593353 0.0800568 1.04659 
-0.07773 0.041927 -0.265093 
9.85447e-18 -1.07029e-17 1 

-0.179346 -0.00569798 -0.370155 
0.00333779 -0.0606035 -0.36632 
-1.91163e-18 -3.32458e-18 1 

-0.570786 -0.0980384 -2.35248 
-0.311445 0.101597 0.116133 
-9.97111e-18 4.92109e-18 1 

-0.210143 -0.0140673 -0.287684 
-0.196836 0.181055 -0.603415 
-2.99956e-18 7.4751e-18 1 

-0.564635 -0.382035 0.4243 
0.201989 0.186862 -0.0222286 
-2.95033e-18 1.52106e-17 1 

-2.18342 1.03294 0.653761 
0.0816219 0.508046 -1.95043 
1.70264e-18 3.09086e-18 1 

-0.229853 -0.0722187 0.279044 
-0.0334827 0.0484367 -1.09394 
-2.71505e-18 7.80513e-19 1 

-0.233573 0.149442 -1.62778 
-0.180035 0.0926853 0.0756264 
-3.12369e-18 -2.19143e-18 1 

-0.145154 0.217837 1.70666 
-0.254718 -0.0455998 -1.12572 
8.69229e-18 3.9387e-18 1 

-0.646869 -0.734943 -0.895645 
-0.677557 0.0357703 0.351233 
1.32801e-18 3.49218e-18 1 

-1.30532 -1.14684 8.88996 
-0.128422 0.524698 -1.64551 
-3.30581e-18 -7.52419e-18 1 

-0.148216 0.17945 2.78209 
-0.0669136 0.0204147 -1.19256 
3.60963e-18 8.49892e-18 1 

-5.33375 0.760867 -1.18649 
1.17143 1.35717 -1.91939 
3.91075e-18 2.98596e-18 1 

-3.44422 -2.52421 1.09133 
-0.0396912 0.908844 0.279095 
-1.80929e-17 -6.83591e-18 1 

-0.744041 0.640252 -61.2069 
0.635482 0.32787 -2.35675 
2.00416e-18 -7.14527e-18 1 

-1.83718 -0.581008 -0.947926 
0.697299 0.569654 -0.259665 
1.23414e-17 -8.58024e-18 1 

-1.26238 -1.14277 2.86497 
-0.0266443 0.353939 3.07447 
-8.90142e-18 2.20237e-18 1 

-0.964374 -2.83039 446.413 
0.110995 0.426079 33.723 
-1.58818e-18 -3.20508e-18 1 

-1.11828 -0.776778 2.28196 
-0.0666045 0.382961 0.107666 
2.31876e-18 -5.37843e-18 1 

-2.37092 -0.603674 0.405022 
0.378324 0.63366 0.32525 
1.11882e-17 -1.53076e-17 1 

-0.0232104 -0.0758364 0.0391358 
0.122845 -0.0841784 0.0881506 
1.37692e-18 -1.26703e-17 1 

-0.127559 -0.0358696 0.115518 
0.0578438 -0.0129514 -0.0221173 
7.47722e-19 4.66227e-19 1 

-0.427024 0.0627969 -0.473205 
0.0605604 0.0725502 -2.92496 
-1.205e-18 -1.36356e-18 1 

-0.268335 -0.0844164 0.470132 
0.037176 0.00300761 -0.372584 
4.45058e-18 3.23141e-18 1 

-0.280937 -0.0599578 -1.09519 
-0.164095 0.12268 0.2431 
-4.55596e-18 -6.94449e-18 1 

-0.135442 0.215062 -0.236083 
-0.0791138 0.0752837 -0.651355 
1.4499e-17 -7.2071e-18 1 

-0.420534 -0.304159 -4.18797 
0.079088 0.293387 -0.423956 
6.97215e-18 -1.06593e-17 1 

-0.751627 -0.586294 6.2045 
-0.0174255 0.308732 1.42158 
-2.76935e-18 -1.08948e-17 1 

-0.0912234 -0.565302 -0.0171736 
0.688315 0.331126 0.132501 
6.30416e-18 -7.00462e-19 1 

-1.54737 -0.272863 5.75811 
0.411843 0.700964 -0.11268 
4.55948e-18 -1.89602e-17 1 

0.547845 -1.06001 0.141415 
0.940683 0.721018 -1.06083 
-3.42093e-18 9.50258e-18 1 

-0.338633 0.377809 -0.0152017 
-0.11761 0.118654 0.0968487 
-4.92737e-18 1.12406e-17 1 

-0.307466 0.428997 -4.01641 
-0.189203 0.470219 -7.43037 
5.00173e-18 4.39735e-18 1 

-0.38249 -0.0545183 -0.124338 
0.118536 -0.115242 -0.367604 
1.94891e-18 -2.0651e-17 1 

-0.280571 -0.356011 -3.65077 
0.326602 0.0993019 0.0228591 
-1.68593e-17 -3.88497e-18 1 

-1.16587 0.60194 0.0333097 
-0.243397 0.367392 -0.735729 
-7.0015e-18 -1.09827e-17 1 

-1.18351 0.490172 -2.08238 
0.0692177 0.328284 -1.80401 
6.5659e-18 1.84234e-18 1 

-0.17057 -0.050305 1.24745 
0.043194 -0.019823 1.841 
2.37889e-17 -4.65891e-18 1 

-0.879029 -0.353652 0.916421 
-0.272418 0.154476 -0.501436 
-5.20983e-18 -4.82391e-19 1 

-0.400203 0.341955 -0.210832 
-0.368496 -0.000119745 0.0433886 
8.21105e-18 -1.25581e-17 1 

-0.289753 -0.081089 16.566 
-0.100098 0.119457 5.11716 
3.47506e-18 -1.53391e-18 1 

-0.26875 -0.0721356 -0.258656 
0.330109 0.190915 -0.649046 
-6.29466e-18 -1.66857e-17 1 

-0.732901 0.815061 -0.389579 
-0.666566 0.610304 -5.81755 
-1.77864e-17 8.85826e-19 1 

-2.15379 -0.149399 0.20894 
0.406102 0.743686 -0.0201841 
-2.92488e-17 -5.90445e-18 1 

-0.233466 0.116153 0.0745065 
-0.126231 0.198709 -0.343023 
9.33401e-18 -4.16859e-18 1 

-0.427249 -0.243246 -6.32833 
0.16024 0.103055 -4.20551 
-2.19176e-18 -6.72255e-18 1 

-3.64746 -1.04582 -2.98135 
0.153369 0.641524 -0.493262 
-7.59125e-18 -2.68237e-17 1 

-2.55313 -0.759463 -5.64838 
-0.262489 0.702154 -4.21511 
-6.71991e-18 1.01149e-17 1 

-3.60039 -0.156356 -2.41125 
0.346299 0.567941 1.0915 
-6.04824e-18 1.42906e-17 1 

0.0208336 -0.246541 -0.0771317 
0.273234 -0.0519003 -0.119343 
-6.20134e-18 -2.64088e-18 1 

-0.292806 0.385376 0.165776 
-0.441127 0.0170704 -0.291095 
-1.79736e-17 6.12924e-18 1 

-1.10298 5.62038 -12.9711 
0.108364 2.47846 -3.77564 
-7.7082e-18 2.64969e-18 1 

-0.878508 0.23561 -0.162473 
-0.501738 0.300584 0.639193 
1.13745e-17 -9.11018e-18 1 

-0.217391 -0.546096 1.22317 
0.789445 0.397702 -3.72815 
-2.04082e-17 2.39844e-18 1 

-0.210827 -0.576548 0.111733 
0.345295 0.0715411 0.151566 
-3.19029e-18 6.7224e-18 1 

-0.284422 -0.129876 -0.135663 
-0.00192932 0.100491 1.06404 
5.94211e-18 -5.60509e-18 1 

-1.50226 0.81105 -2.1121 
-0.397797 0.607472 0.194533 
-1.15842e-17 1.19462e-17 1 

-0.479733 -0.0250275 1.41527 
0.321696 0.7384 1.24442 
5.71666e-18 -4.57333e-18 1 

-0.403635 0.192899 -0.434704 
0.0817298 0.17788 -0.52349 
-6.78623e-18 6.78623e-18 1 

-3.89275 0.832604 -3.5674 
-0.786892 0.81807 -0.172514 
-8.35824e-18 -2.11017e-18 1 

-0.194194 0.684041 1.44385 
0.212245 0.106476 -0.226027 
2.07744e-17 -3.34698e-18 1 

-0.108361 -0.0314215 -0.16176 
0.0156168 -0.00992613 0.437843 
2.50914e-18 1.06448e-17 1 

-1.72713 -0.82081 -2.29018 
0.185152 0.57974 -1.42483 
-2.92006e-18 -2.32692e-18 1 

0.0394911 -0.290549 -9.52186 
0.677083 0.208276 -0.202813 
3.0941e-18 -2.19329e-18 1 

-0.899012 -0.564312 -3.18393 
0.105922 0.384907 -0.289513 
-1.54187e-17 -4.9746e-18 1 

-1.17404 0.155704 -0.61256 
0.0931627 0.278071 -2.21732 
4.29389e-18 8.10299e-18 1 

-0.133883 -0.0241269 -0.387665 
0.0831413 0.0759346 -0.348112 
2.54033e-18 -1.97281e-18 1 

-0.46472 -0.115754 -2.76326 
-0.0420654 0.351733 -0.821726 
-5.97806e-18 -2.56432e-18 1 

-1.87957 -0.254291 2.11094 
-0.227516 0.568031 -2.89972 
-2.72825e-19 7.90252e-19 1 

-0.677134 0.385884 0.375687 
-0.0685953 0.32504 -1.28 
-2.98642e-18 5.54863e-18 1 

-0.345355 4.30814 12.9821 
0.023177 0.283334 -0.613923 
-2.67019e-18 5.73772e-17 1 

-0.775925 0.24507 -31.2324 
-0.205086 0.121303 -9.34782 
-3.56572e-18 7.06861e-19 1 

-1.12787 0.768131 31.1845 
-0.574819 0.408029 6.7463 
1.27925e-18 -2.75995e-18 1 

-0.0100893 -0.567087 0.0860154 
0.454791 0.103664 -0.333187 
-1.07311e-17 8.02328e-19 1 

-1.3913 -0.119369 15.0584 
0.3359 0.470414 -1.69398 
-9.60099e-18 2.11075e-17 1 

-0.727811 0.270748 -0.976482 
0.364558 0.286855 0.135365 
9.50385e-18 1.14838e-17 1 

-0.275598 0.360075 -0.00950733 
-0.328081 0.0423659 -0.101552 
-9.41745e-18 1.23604e-18 1 

-0.737159 -0.00510149 -118.361 
0.640858 0.241051 -1.78918 
3.21381e-19 5.98047e-18 1 

-3.00724 -5.54944 7.52008 
0.311855 1.56865 -2.78943 
1.96251e-18 5.35231e-18 1 

-0.225251 -0.240512 0.336607 
-0.00782632 0.168653 0.231059 
1.57554e-17 -7.48373e-19 1 

-0.260233 -0.101083 -0.176005 
0.240403 0.0411273 0.382983 
-7.90843e-20 1.18626e-17 1 

-0.40195 -0.00493486 -0.445618 
0.00749328 0.119247 -0.0175626 
1.23109e-17 7.09538e-19 1 

-0.695699 0.870699 2.96916 
-0.709034 0.533896 0.85201 