# vtk DataFile Version 3.0
Output file generated by Yade's KinematicLocalisationAnalyser
ASCII
DATASET UNSTRUCTURED_GRID

POINTS 13483 float
546.223 47.0865 0.427128
651.029 70.2355 -0.488639
115.441 6.08731 -0.434005
673.404 9.45667 0.488823
471.479 8.40807 0.329404
304.741 36.9311 -0.406277
150.921 7.03046 0.475986
525.627 11.8921 0.217514
473.197 29.9943 -0.133789
615.106 18.2357 -0.530724
204.062 8.93947 -0.0914494
249.31 6.25868 -0.256027
576.896 58.9516 0.15366
563.875 24.0894 -0.154581
131.983 18.2037 0.490187
214.695 35.0626 0.393263
211.373 13.1118 -0.306999
280.183 9.75129 0.407519
329.962 35.5632 0.5042
492.704 9.49817 0.500025
397.884 39.6025 0.111309
528.52 63.5574 0.343321
671.498 46.2831 -0.495353
618.719 66.0011 -0.421859
438.133 18.6446 0.329788
233.715 46.5339 -0.128773
469.199 33.1175 -0.536523
539.111 23.1153 -0.291534
42.3692 15.907 -0.469304
620.578 52.8523 -0.37549
458.464 4.87584 0.483599
15.966 24.2649 0.331705
664.141 72.7988 0.2601
469.044 2.50965 0.604294
75.0134 45.8056 -0.100048
491.165 41.2449 -0.324993
496.683 18.9823 -0.477582
332.914 24.1504 0.183796
498.783 32.7363 -0.370604
339.712 36.1806 0.569197
234.371 14.7727 0.30675
417.227 47.5603 0.0846549
582.128 7.92336 0.263625
186.584 6.22575 0.360379
52.5542 7.34485 0.0819942
65.5399 9.02468 -0.308602
596.094 7.11259 0.636653
22.1764 12.219 -0.304782
542.142 78.8559 -0.355015
596.384 56.8026 0.346105
166.451 33.1304 0.306614
652.666 55.8692 -0.131867
33.2518 29.7843 -0.112751
500.197 3.1138 -0.464155
137.073 7.40837 -0.497608
537.866 56.0956 0.412045
479.916 34.8521 -0.118901
169.388 0.958247 -0.277013
31.1021 2.35161 -0.344044
337.704 18.0059 0.275257
556.336 84.561 0.128815
439.644 35.1073 -0.229995
385.877 1.01647 0.207068
600.688 15.6724 -0.653999
26.052 46.506 0.235568
248.649 32.9585 -0.3455
613.139 12.1716 -0.29639
590.298 86.9502 0.34736
403.724 9.26229 -0.620687
525.72 5.41175 0.644088
633.191 45.8085 0.532101
126.085 7.81653 0.286617
475.089 32.8874 -0.129794
454.993 16.0481 -0.147381
286.514 16.8387 -0.359341
19.5036 14.1187 0.328203
672.578 66.7041 0.351961
323.242 41.3877 -0.319631
596.852 48.6596 0.382897
595.871 11.5298 0.461206
664.284 21.5503 -0.251576
443.169 37.0315 0.174115
89.68 40.9762 -0.284373
606.866 73.0401 -0.264231
569.688 67.743 -0.109763
672.576 57.686 -0.110897
663.151 2.61341 -0.699073
283.93 31.1527 0.406685
567.693 7.5361 0.197934
23.5727 6.03923 -0.642906
129.164 40.0259 0.176415
484.459 16.4454 0.374781
656.827 44.1326 0.503067
189.726 29.4927 -0.242591
42.2028 36.5768 0.309172
467.807 1.44683 0.19478
229.583 8.92645 -0.449713
630.926 56.1414 -0.339456
649.594 43.8596 0.271986
349.991 22.0845 -0.265943
157.692 28.4227 0.465572
507.018 53.3867 -0.409818
368.604 16.3294 -0.512836
404.245 34.2644 0.101481
367.047 5.36702 0.48407
511.595 13.3531 0.128708
677.092 14.3928 -0.364412
77.6308 40.8321 -0.383949
325.68 4.98352 -0.240268
520.817 10.4411 -0.469626
350.883 46.7733 0.447969
23.8998 26.2685 0.482476
29.1043 6.02887 -0.319497
524.011 40.7747 0.407442
478.818 30.411 0.148523
26.1058 40.2018 0.415931
91.2082 33.246 0.233919
316.379 16.7991 0.29956
546.741 26.7026 -0.133422
454.451 41.045 0.329055
625.662 8.49709 -0.676319
619.722 6.38358 0.208763
377.266 38.1121 -0.116889
564.81 46.8564 -0.117144
233.204 17.6318 0.483657
321.2 3.92316 0.468536
100.065 32.9616 -0.374399
112.662 25.4758 0.254553
503.464 56.3809 -0.071741
298.435 19.0691 0.526173
616.181 44.4652 -0.126553
595.387 86.5658 0.104026
461.319 24.3991 -0.425801
648.838 9.7828 0.407079
412.75 28.2811 -0.239106
271.564 24.6546 -0.331188
597.638 72.5595 -0.308207
272.462 29.7777 0.426716
533.848 15.5155 -0.256913
324.524 38.2068 0.224828
479.063 13.1055 0.567762
357.278 33.6978 0.0917986
416.27 19.7139 -0.111667
310.647 44.0323 0.437052
185.966 30.954 -0.137838
655.446 70.6076 0.181781
674.951 18.0309 -0.337144
5.89158 12.7199 0.423206
417.83 27.9668 -0.421612
36.0403 24.2685 -0.0883944
367.733 32.883 0.486243
385.989 25.3253 -0.279081
71.9654 11.7828 -0.514005
49.7316 34.576 -0.475735
221.457 13.7379 0.466325
557.581 75.3225 0.10521
535.336 25.1484 -0.488977
73.0935 21.3471 -0.488819
623.087 65.2762 0.443072
640.84 5.54781 -0.507081
585.736 78.3682 -0.455851
602.268 4.63916 0.628208
512.096 35.6382 0.385273
529.624 62.8169 -0.644447
487.086 22.5271 -0.380193
671.785 4.84217 -0.301245
219.733 25.2802 -0.12308
124.888 37.3964 -0.219565
242.409 6.6832 -0.456461
91.5193 4.72785 0.281764
61.9377 10.3231 -0.235131
270.354 36.9853 -0.348541
16.6362 25.8264 -0.367668
520.79 25.2702 0.412919
544.636 74.3344 -0.197569
446.601 23.4831 -0.349834
674.751 88.4023 -0.0854
397.265 8.78031 -0.132203
422.936 48.9138 0.605425
507.498 3.18995 -0.38071
20.8467 26.4175 -0.378037
536.234 6.03121 0.571776
513.603 5.6933 0.594675
202.46 11.2806 0.500708
413.263 17.376 -0.195459
305.754 6.49913 0.370592
378.859 19.3326 -0.427803
648.851 78.7434 -0.0981145
189.017 26.2112 0.487771
657.196 10.0028 -0.442515
646.268 73.9775 0.33115
374.687 10.6381 0.186523
611.256 4.10238 0.444
545.64 40.3894 -0.407257
625.808 27.3752 -0.491934
418.192 54.7755 -0.269632
474.883 14.5205 0.574882
448.791 47.6674 0.278919
431.378 10.4926 -0.232725
588.345 80.5611 0.255907
587.627 73.5821 0.316453
188.542 40.1069 -0.346285
662.228 22.0515 -0.169393
530.468 64.0319 0.286977
11.4582 17.2925 0.187841
400.24 25.6874 0.345016
184.05 23.8432 0.418085
91.32 41.971 -0.217334
653.535 36.9468 0.489212
580.67 80.1856 -0.222751
314.116 27.5204 0.353193
504.483 12.5074 0.548107
80.0588 46.2654 -0.182127
243.866 27.1297 -0.455677
519.699 30.4937 0.386623
469.209 23.2633 0.429376
258.722 0.878746 -0.344764
515.706 50.2009 -0.570608
501.497 64.2076 -0.32043
466.089 39.1868 0.383466
479.227 2.50492 -0.635709
603.551 30.294 -0.427278
176.166 12.5842 0.175018
481.144 48.9782 -0.446639
516.754 57.0951 0.147613
70.7155 0.965404 0.274576
247.589 4.74177 0.188943
674.223 19.8613 0.297782
664.933 23.4345 -0.472558
678.02 21.9597 -0.61255
298.481 8.83154 -0.22827
633.531 33.3172 0.515727
395.467 45.5989 0.326736
434.791 0.862052 0.607016
576.264 68.8958 -0.522737
26.4364 33.5826 -0.520067
325.075 44.2623 0.592402
248.42 2.86581 0.362263
668.971 74.5311 -0.19291
620.326 88.3773 0.221136
282.717 11.089 0.262768
591.315 64.0063 -0.083237
522.684 2.56474 0.315909
512.037 9.02 0.589676
93.9037 18.6775 -0.492569
298.427 1.13067 -0.251066
336.559 2.27702 -0.36178
13.7505 7.52074 -0.503379
4.6532 32.6269 0.233723
158.831 18.7695 -0.361355
66.4807 42.5357 0.209674
65.4257 29.4991 -0.321765
413.346 15.5222 -0.471114
360.724 36.8965 0.475921
650.122 56.6474 0.131476
19.3635 4.12705 0.291329
68.4557 6.99548 0.152418
555.153 55.9512 -0.156763
290.023 0.929033 0.416618
357.672 16.7934 -0.100142
232.034 4.88285 0.373685
581.04 49.8757 -0.174863
436.349 8.8966 0.652043
634.872 33.6922 -0.482118
565.228 51.0785 0.329581
599.787 44.646 0.123034
412.735 32.3217 0.499945
100.291 47.5636 -0.312722
508.516 57.0379 0.0743294
626.008 18.0368 0.459621
234.774 32.7087 -0.254528
30.8241 17.8168 0.186717
330.109 14.1418 0.497551
105.179 42.4956 0.464841
264.39 43.6473 -0.235394
416.737 2.17367 -0.328201
658.888 49.2652 0.372876
597.463 0.792714 0.612967
326.153 3.48416 0.599492
295.386 27.7344 0.159194
447.651 44.2845 0.240199
79.6656 8.18124 0.487742
194.627 46.005 0.381448
651.543 49.5961 -0.425987
475.701 49.0145 -0.0783062
196.978 41.9142 -0.302303
157.98 43.4245 0.221847
675.28 52.9471 0.414764
676.307 16.8565 -0.590756
561.671 4.74598 -0.723343
187.284 26.185 -0.0929985
510.619 37.2252 0.13681
513.858 36.28 0.289277
401.629 5.83912 -0.139167
463.151 0.878968 0.354712
647.244 58.6884 0.49554
83.7281 32.7375 0.225311
584.879 47.0719 -0.520481
270.559 16.3589 -0.346652
9.27462 2.3987 0.322352
123.432 38.9818 -0.19456
65.78 23.7246 0.472596
614.597 52.643 0.337468
664.298 82.1859 0.185817
182.15 29.6926 -0.176242
669.919 17.5582 0.512245
43.7521 38.5019 -0.266947
90.0197 31.6521 0.155374
570.998 29.2942 -0.479462
406.224 18.1539 -0.514251
494.166 19.4867 0.105009
235.306 30.8146 0.197925
570.775 11.7104 0.547413
678.396 13.3152 0.481329
28.7301 33.8296 -0.317271
266.756 7.99144 0.188269
219.368 15.7258 -0.28273
1.05296 37.1039 -0.150555
222.511 14.503 -0.461785
208.905 11.1463 0.121693
211.347 26.6073 0.270719
131.045 29.3272 -0.125276
515.59 21.0195 -0.447573
164.129 14.2998 0.378152
663.795 70.8195 0.24275
171.352 3.86644 0.507462
46.0884 39.3842 -0.442843
656.306 85.0708 -0.426161
277.522 32.8014 -0.395363
600.363 51.8508 0.484721
664.011 50.5864 -0.575658
296.541 9.46656 -0.0925923
624.025 45.3816 -0.342784
323.184 2.49156 -0.446755
407.941 29.2904 0.370438
592.611 29.9494 -0.467358
103.672 12.3439 -0.42425
464.876 4.04297 -0.490719
636.986 29.4632 0.22931
86.5311 7.68448 -0.311714
278.191 15.1177 0.184743
414.429 12.6965 0.346037
671.348 6.31308 0.597986
390.792 2.02041 -0.532942
173.896 40.062 -0.341802
629.13 18.0452 -0.325732
126.69 38.3779 0.209969
259.316 32.4483 -0.422453
393.31 21.6137 0.211977
536.328 17.0324 -0.440547
379.939 9.66123 -0.530634
442.286 29.9274 -0.431921
650.751 71.7446 -0.376456
45.8322 11.8767 0.131286
294.803 41.3305 -0.342086
373.217 27.2251 -0.398488
402.371 21.8665 -0.285889
491.888 71.8102 -0.355422
640.609 54.9085 0.261783
592.93 74.5278 -0.343527
222.797 35.7508 0.374614
13.8141 34.1368 0.172549
586.13 74.8362 -0.144456
487.178 58.5139 0.459356
226.491 41.1207 -0.128963
604.566 66.7626 0.115213
148.2 9.54098 -0.19427
359.599 22.433 0.273297
449.188 45.5127 -0.152012
406.526 21.1316 0.205181
647.592 70.2021 -0.360043
417.712 4.68757 0.644702
47.5279 27.1943 -0.336223
455.6 34.8226 0.342507
425.231 52.9385 -0.341918
669.212 68.3382 -0.270996
627.332 62.1852 0.223433
510.694 22.4224 0.13685
659.825 64.8966 -0.496041
289.722 2.14739 -0.522052
372.495 31.1821 0.576242
29.1312 42.3051 -0.294624
623.036 50.8252 -0.177775
554.529 30.8455 -0.562303
447.69 0.772235 0.465028
123.325 4.77563 -0.36238
416.24 51.9701 0.0977264
11.6387 0.893822 -0.318898
670.033 10.9108 -0.15277
364.859 40.5629 -0.454937
[...]
POINT_DATA 13483
TENSORS Strain_matrix float
-3.37483 1.10675 1.31051 
-0.572562 0.707636 3.10205 
1.92447e-17 -4.10406e-18 1 

-1.05099 1.80919 -5.78411 
0.414707 1.04306 3.62827 
2.8326e-20 -7.86725e-18 1 

-0.160159 -0.128886 0.174811 
0.0935317 -0.0251621 0.407705 
3.78996e-18 1.52434e-17 1 

-1.43438 0.288779 -0.393764 
-0.599606 0.721012 -0.228615 
6.6596e-18 3.52859e-18 1 

-0.914095 -0.126875 0.411274 
0.191605 0.296727 -0.239525 
6.38245e-18 5.63157e-19 1 

-0.10459 -0.0381284 -0.277673 
-0.0102063 -0.0313909 -0.194581 
-8.30197e-18 9.46339e-19 1 

-0.123887 -0.0173923 0.366789 
-0.0154979 -0.0595406 -0.0241249 
-3.45192e-18 -1.03762e-17 1 

-0.404959 0.0928552 0.393283 
0.167144 0.0557453 0.0258012 
1.78207e-17 -2.20553e-19 1 

-0.635203 0.456327 -0.329594 
-0.00540791 0.444211 1.52698 
3.40503e-18 -1.63323e-17 1 

-0.294203 0.475087 0.943127 
-0.824639 0.277146 0.80568 
5.61307e-18 -5.82777e-18 1 

-0.115289 -0.0293131 0.0897266 
0.063179 -0.0641084 -0.108058 
-5.51459e-18 -1.92252e-18 1 

-0.130303 -0.0640511 0.20388 
-0.0757527 -0.101335 0.048436 
-1.09861e-17 -1.62865e-18 1 

-1.31839 -0.118439 0.486233 
0.259883 0.540452 -0.493703 
1.28977e-18 4.75604e-18 1 

-0.294699 -0.99749 -0.872206 
0.711405 0.692964 -0.393043 
-9.66934e-18 4.33561e-18 1 

-0.192523 -0.0629002 0.0695243 
0.112586 0.031151 -0.468763 
1.01441e-17 -1.06789e-17 1 

-0.168498 -0.144582 1.11221 
0.0777365 0.0125482 0.348464 
-9.64966e-18 3.43687e-18 1 

-0.106936 -0.0351268 0.0119522 
0.0178033 -0.10245 -0.0326445 
6.21827e-18 5.63739e-18 1 

-0.181031 -0.00422629 0.12395 
0.00145302 -0.0730866 -0.0916885 
4.63731e-18 9.24181e-18 1 

-0.365542 -0.00782025 0.076161 
0.0212578 0.0542256 -1.28776 
2.46092e-18 -9.02009e-19 1 

-0.307658 0.160157 -0.484361 
-0.285407 0.0600681 1.29354 
2.27791e-18 -2.06243e-18 1 

-0.113635 -0.543122 -0.590382 
0.487085 0.142345 0.248133 
8.34107e-18 1.28987e-17 1 

-1.19051 -0.100847 1.14916 
-0.171564 0.554552 0.891976 
3.27731e-18 -3.89478e-18 1 

-1.7763 -0.88341 -5.59352 
0.123498 0.837953 -3.06644 
6.74808e-18 2.08477e-18 1 

-1.53078 0.8791 17.4897 
-0.0708633 0.709489 -4.41802 
1.51392e-18 6.21494e-20 1 

-0.0894822 -0.352469 0.725151 
0.0281345 0.0812125 -0.251852 
-1.18896e-18 4.40064e-18 1 

-0.126406 -0.000752568 0.272228 
-0.000488615 0.0462111 -0.19706 
-4.20485e-18 1.58491e-18 1 

-0.436952 0.106309 18.6454 
0.213314 0.199823 4.89648 
-1.73033e-18 4.01439e-18 1 

-0.432341 -0.442676 0.136728 
0.37223 0.260885 0.111969 
-5.42363e-18 9.23266e-18 1 

-0.136329 -0.0150114 0.178727 
0.0930109 -0.0373575 -2.95538 
7.00727e-18 -1.39912e-18 1 

-8.76072 3.59438 -10.864 
1.72114 -0.933382 -5.90259 
-1.06796e-17 7.96732e-18 1 

-0.399585 -0.127731 0.538951 
0.30959 0.0479204 0.217735 
3.82509e-18 -4.71761e-18 1 

-0.153937 -0.0566002 -0.199084 
0.0144269 0.0581534 0.280337 
-3.35626e-18 5.44681e-18 1 

0.346262 -0.968721 -1.70832 
0.640549 0.248206 2.21336 
6.01324e-18 1.43093e-17 1 

-0.291167 -0.121794 4.39761 
-0.0595636 -0.0425717 3.63988 
7.76622e-18 -3.1145e-17 1 

-0.0825051 -0.109707 0.0658073 
0.0543637 -0.108283 0.253106 
6.22863e-19 -1.27064e-17 1 

-1.03166 0.843012 0.0906331 
-0.550576 0.591562 2.48812 
-5.17425e-18 5.15297e-18 1 

-0.512807 -0.185449 1.22204 
0.0317471 0.261571 0.447845 
2.99149e-18 -2.71005e-18 1 

-0.412084 0.270106 0.410224 
-0.066443 0.287914 -0.0178562 
1.32969e-17 -2.67861e-17 1 

-0.722445 0.36959 -1.54907 
0.316418 0.309748 -0.00176702 
-2.08633e-19 3.42507e-18 1 

-0.198522 -0.00728431 -2.41057 
-0.0148476 0.0617963 1.34221 
-7.76365e-19 -2.75307e-18 1 

-0.306483 -0.111347 0.145665 
-0.042041 0.00488805 0.176601 
5.66108e-18 -2.72167e-18 1 

-0.204494 -0.0156385 0.157202 
0.0803091 0.00546272 -0.0983976 
5.38495e-18 7.55461e-18 1 

-3.25855 3.92232 6.23602 
-1.00979 1.33225 0.857345 
-2.28983e-18 -7.17073e-18 1 

-0.140439 0.0352865 0.474367 
-0.05095 -0.0627827 1.08278 
5.37652e-18 9.34847e-18 1 

-0.181136 0.142717 0.178519 
-0.0868712 0.00339436 0.154241 
1.95025e-17 2.14297e-17 1 

-0.123901 0.00999034 0.189841 
-0.00831232 -0.0475025 0.00248749 
7.25798e-18 6.47378e-18 1 

-0.610148 -0.522977 -3.82141 
0.271508 0.286835 5.46576 
9.75061e-18 5.30779e-18 1 

-0.051811 -0.0655 -0.0224794 
0.0655968 -0.14573 -0.0230439 
-3.20781e-18 2.34254e-18 1 

0.138893 -0.535611 0.116221 
0.708024 0.00769537 0.488911 
1.85877e-17 -7.92628e-18 1 

-1.61228 -0.726893 6.88313 
-0.240467 0.188246 -2.58286 
1.27579e-17 3.09282e-18 1 

-0.147396 -0.0473374 0.012668 
-0.0384812 0.02849 0.305936 
-4.63502e-18 -9.9653e-18 1 

-0.0453417 -0.420791 0.774303 
0.534919 0.148891 -0.406798 
-1.45588e-18 -6.66969e-18 1 

-0.161849 0.328999 0.463143 
-0.0616444 0.14339 0.30944 
7.12527e-18 1.58705e-17 1 

-0.708381 0.167945 0.0414893 
0.0139575 0.139347 0.427173 
1.98643e-17 -1.16303e-17 1 

-0.160661 0.0443698 0.125591 
0.00252719 -0.103161 -0.0576017 
-1.21905e-18 7.71729e-18 1 

-0.150371 -0.583538 0.658479 
0.724824 0.457725 1.59973 
-9.68023e-19 -5.69425e-19 1 

-1.40527 0.632072 -1.99744 
0.655492 0.538309 0.744801 
1.00792e-17 -1.76141e-18 1 

-0.103754 0.200938 -0.0987983 
-0.00298218 -0.0473001 -0.0238306 
2.32712e-18 -1.41131e-17 1 

-0.0823214 0.0145711 -0.646798 
-0.0737379 -0.11203 -0.823741 
1.57073e-17 -1.33178e-17 1 

-0.175953 -0.120073 0.210239 
0.0509513 0.118634 0.21941 
3.29384e-18 1.46393e-19 1 

0.0202761 -5.03286 -16.5618 
-0.00508357 1.08975 -1.2885 
4.40671e-20 -1.9956e-20 1 

-0.108343 -0.0457536 -1.25874 
0.0674701 0.0684386 -0.232167 
-1.28464e-17 -3.8647e-18 1 

-0.128501 -0.0513326 -0.301152 
-0.00967815 -0.0553916 -0.0831386 
1.98769e-17 -3.56783e-18 1 

-0.611884 -0.651307 -3.86518 
0.506471 0.413198 2.87781 
1.48651e-17 -6.24403e-18 1 

-0.17378 -0.0855423 0.214166 
0.0646645 0.0950002 0.445693 
-8.46963e-18 1.21719e-18 1 

-0.213573 0.0923694 0.0378264 
-0.0672346 0.0115442 0.621181 
-3.35401e-18 -9.1281e-18 1 

-0.976827 0.506986 0.471819 
-1.36269 0.684388 0.427046 
6.26675e-18 -5.00552e-19 1 

-1.00262 3.43967 23.1636 
0.16593 0.20827 4.01237 
7.71078e-19 -3.9461e-18 1 

-0.218428 0.0285295 1.72585 
-0.0601983 -0.0374548 1.13277 
1.69804e-18 -4.84964e-19 1 

-0.669883 0.111346 -0.12995 
0.126201 -0.0335763 1.02541 
1.01472e-17 1.64818e-17 1 

-0.943221 -1.3756 -0.281943 
0.146005 0.482203 0.313301 
3.37394e-19 1.78819e-17 1 

-0.127116 0.0386679 0.0301092 
-0.0527903 -0.0525565 0.249149 
1.52934e-18 3.50385e-18 1 

-0.6399 0.782615 -0.8857 
-0.240001 0.38417 1.3189 
-6.25159e-18 -4.86965e-18 1 

-0.32092 0.0176757 0.371015 
-0.0811327 -0.0209796 -0.0687804 
2.88911e-18 1.12469e-17 1 

-0.165156 0.0683511 -0.351516 
0.0243535 -0.000464332 -0.307323 
4.32743e-18 -4.64562e-18 1 

-0.172631 -0.0139084 0.0345083 
-0.0494509 -0.0800095 0.0671878 
2.24305e-18 -1.18695e-17 1 

-5.65764 4.32817 6.91696 
-1.633 1.47677 1.00591 
7.90553e-18 8.04813e-18 1 

-0.140339 0.00552391 -0.0573892 
0.0889289 -0.0281707 0.0297097 
1.41794e-17 4.15096e-18 1 

-2.20221 -0.787449 -3.2055 
-0.878999 0.279936 -4.02829 
1.08489e-17 1.96115e-18 1 

-1.12062 -1.29982 -0.160877 
0.893397 0.998013 0.648009 
9.94255e-18 5.7245e-18 1 

-0.419431 0.454093 0.233974 
-0.484135 0.222799 0.241378 
1.57611e-17 -1.06105e-17 1 

-0.107973 0.0900666 -0.152013 
-0.0467886 0.0123204 -0.634358 
2.77416e-17 9.52595e-18 1 

-0.0888469 -0.0277268 -0.0786994 
0.0508876 -0.0248668 0.21881 
1.66791e-17 2.44817e-19 1 

-0.343732 0.844005 -0.957031 
-0.497221 0.40843 0.0112697 
2.01567e-18 8.38055e-19 1 

0.157024 -0.753268 0.047612 
0.665016 0.302984 -0.446393 
1.32736e-18 8.56209e-18 1 

-0.308015 0.0936242 -0.0874148 
-0.129754 0.224023 0.0424363 
2.96045e-19 5.9209e-18 1 

-1.44694 0.444854 14.2632 
0.0264035 0.495002 4.84211 
9.46406e-18 -4.73203e-18 1 

-0.0579903 -0.152475 0.11253 
0.207267 -0.0467074 -0.380073 
-1.90162e-17 -9.39623e-18 1 

-0.786804 -0.528613 0.707014 
0.211141 0.328416 0.493742 
1.89031e-17 3.29706e-18 1 

-0.193158 -0.0882915 -5.90168 
0.0154426 0.028761 2.24437 
2.58787e-18 -1.23628e-17 1 

-0.148337 -0.05669 -0.0812169 
-0.0842702 -0.0271643 -0.0664066 
1.08976e-17 -2.78156e-18 1 

-0.637693 -0.0824902 -0.783718 
0.229504 0.2235 0.500175 
-5.6571e-18 3.26496e-18 1 

-0.373386 0.811883 -5.02388 
-0.410712 0.224652 0.530674 
-1.19585e-17 3.26645e-18 1 

-0.124623 -0.00352226 -0.305763 
-0.121988 -0.00552813 -0.233189 
3.5124e-18 8.02201e-18 1 

-0.0816494 0.115358 0.615971 
-0.0813373 0.00761529 -0.0250702 
-7.17126e-18 -1.3458e-17 1 

-0.216652 0.0863116 -0.00275788 
-0.0507802 0.00134549 0.139136 
-1.16649e-17 -1.86591e-17 1 

-0.221144 0.0241341 -0.0543696 
0.0114581 -0.0308261 -0.796522 
-8.74212e-19 -1.81567e-18 1 

-0.195567 0.0560133 -0.776124 
-0.218982 -0.0679027 -0.139724 
2.67015e-18 3.0373e-18 1 

-1.69671 0.986767 -0.394787 
0.437652 0.329536 -0.0119706 
2.45523e-18 -1.77185e-17 1 

-0.0743576 0.0325835 -0.240376 
0.0750581 -0.00590707 1.17239 
1.34333e-17 1.7408e-17 1 

-0.0857738 -0.0421186 2.05099 
0.0410083 0.00965733 1.40727 
2.30064e-18 -2.06201e-18 1 

0.0630865 0.624479 2.77135 
-0.664411 0.290768 -0.371107 
-3.66302e-18 5.08096e-19 1 

-0.201374 -0.03198 0.845602 
0.00692259 0.00808573 1.80921 
3.93729e-19 1.19011e-17 1 

-0.562056 0.173607 0.42965 
0.379009 0.18759 0.426439 
1.03792e-18 -3.96295e-18 1 

-0.246282 -0.0652723 0.227587 
-0.0741182 -0.0855107 0.621879 
-4.48009e-18 -5.97704e-18 1 

-0.533707 -0.246823 -0.118356 
0.351024 0.0840549 0.0462648 
-1.58714e-17 2.76639e-17 1 

-1.38574 0.338564 1.05268 
-1.0694 0.449944 0.471525 
-8.29496e-19 5.28803e-18 1 

-0.13958 -0.0576601 0.658325 
-0.00924557 -0.00305201 0.191461 
4.59637e-18 1.48632e-17 1 

-0.189574 0.0647964 0.0953869 
0.112126 -0.123321 -0.0587809 
5.56732e-18 1.63592e-17 1 

-0.681802 0.142908 -1.63763 
-0.396474 0.080031 -2.34984 
-6.14764e-18 -2.89301e-18 1 

-0.190357 -0.290171 -8.61117 
0.0316955 0.161478 -3.01375 
-8.12658e-18 -1.10859e-19 1 

-0.181195 0.063218 2.84787 
-0.00937979 0.102998 -0.633162 
1.81788e-18 -2.8652e-18 1 

-0.181017 0.120622 -0.0157984 
-0.156064 -0.00364931 -0.255961 
-3.91553e-18 -1.0502e-17 1 

-0.0620647 0.0239504 -0.192824 
-0.133132 -0.0841082 0.0176797 
-3.80907e-18 1.25155e-17 1 

-0.833862 0.584063 -0.227753 
0.285871 0.299802 1.3945 
9.75072e-18 -2.79702e-18 1 

-0.129638 -0.014799 -1.80992 
0.102702 0.0143942 -1.03764 
5.09325e-18 2.18282e-19 1 

-0.277378 -0.236878 -0.234662 
-0.0515714 0.0227847 0.0733841 
-1.29762e-17 -6.54036e-18 1 

-0.188109 0.0133517 -0.106353 
-0.0361887 0.0401237 -0.147543 
-1.38026e-17 2.40268e-17 1 

-0.559359 -2.52271 0.277803 
0.243353 0.382646 -0.542307 
1.13814e-17 8.39096e-18 1 

-0.212956 -0.105482 0.0324132 
0.0725753 0.00365426 -0.165792 
1.06754e-17 1.25491e-17 1 

-0.508349 -0.609603 4.32376 
0.477178 0.370677 -0.185757 
-1.00739e-17 -3.53495e-18 1 

-0.341397 -0.0772799 -0.0857994 
-0.414013 -0.123079 -0.278786 
-7.68549e-18 2.99734e-17 1 

-0.160195 0.0685932 0.31634 
-0.0913147 0.0240839 -0.199483 
4.24085e-18 -1.84385e-18 1 

-0.375281 -0.374092 -1.63516 
0.82556 0.408671 0.487518 
1.01048e-18 -2.38185e-18 1 

-0.368088 0.245062 0.723363 
0.00675953 0.186592 0.636537 
8.67614e-18 -1.41781e-17 1 

-0.140562 -0.0453207 0.763209 
-0.0740966 -0.128226 0.111574 
-9.65961e-18 3.18842e-18 1 

-0.156896 0.0927811 -0.381557 
-0.164709 -0.00202754 0.0896014 
-2.62452e-18 1.07334e-17 1 

-0.381568 0.310547 -0.394003 
-0.0903415 0.174918 0.44124 
2.45379e-17 -7.7249e-18 1 

0.136542 0.62436 0.116626 
-0.659566 0.247928 -0.00110653 
2.86499e-19 7.73547e-18 1 

-0.169631 0.220091 -0.687353 
0.0705343 -0.077639 -0.377945 
-2.66782e-18 8.44809e-19 1 

-2.2482 1.16373 -4.52344 
1.16203 -0.508826 0.485941 
1.10673e-17 -8.91173e-18 1 

-0.0394002 0.172734 0.411513 
-0.0643092 0.0363991 -0.0452958 
-3.47697e-18 -9.54463e-19 1 

-0.494861 0.359607 -2.28214 
0.0202079 0.24304 -2.58724 
8.75445e-18 3.61415e-18 1 

-1.441 1.83191 0.125687 
-1.31802 1.18339 -0.36749 
8.09055e-18 8.7129e-18 1 

-1.28763 0.740028 0.471294 
0.542931 0.384428 0.739044 
0 1.57574e-18 1 

-0.0460584 -0.0850117 -0.131198 
-0.0459904 -0.0168751 -0.20105 
-3.98888e-18 7.65794e-18 1 

-1.10309 -0.0341881 -1.3775 
0.290431 0.45985 0.632373 
4.20949e-18 -1.06218e-17 1 

-0.105848 -0.0752329 0.759885 
0.0971865 0.00157813 -0.833495 
-4.07243e-18 7.65124e-18 1 

-0.426662 0.0199884 -0.472483 
0.225363 0.0766086 0.254133 
-8.10964e-18 -4.75662e-18 1 

-0.105568 -0.0831988 0.246458 
0.14105 -0.0597493 0.0685515 
5.9795e-18 -6.87007e-18 1 

-0.326423 0.0216732 0.799897 
-0.0510493 -0.037617 -0.670021 
-2.29257e-17 -1.60209e-17 1 

-0.101736 0.12917 -0.0622528 
-0.087175 -0.00197843 0.0180027 
6.80375e-18 -7.67341e-19 1 

-0.191744 -0.255886 -0.451648 
0.48807 0.509679 -0.771887 
4.28927e-18 5.36717e-19 1 

-0.099497 -0.0647194 -0.848037 
0.0504564 -0.011429 0.295153 
1.65108e-17 1.74919e-17 1 

-0.0908545 0.0502433 0.0274594 
-0.0718306 -0.0256553 -0.123977 
-6.15728e-18 1.76261e-17 1 

-0.108754 -0.860957 0.63977 
0.429525 0.277064 -0.310868 
1.13188e-17 -7.22722e-18 1 

-0.539013 0.290416 0.890106 
-0.183431 0.0467389 -0.143096 
2.67916e-18 3.11362e-18 1 

-0.149974 0.0277129 0.253409 
-0.101831 -0.0721929 -0.0641083 
-1.1659e-18 5.71738e-18 1 

-0.283607 0.0376119 -1.27948 
0.00906557 0.0150166 0.393779 
-9.94879e-18 -5.25852e-18 1 

-0.0732187 -0.0836391 -0.160244 
0.048527 -0.0263745 -0.000650661 
6.52924e-18 7.72473e-18 1 

-0.16377 0.0654046 0.433008 
-0.023602 -0.0211286 2.69052 
-1.94008e-18 -8.19693e-18 1 

-0.104083 0.225012 -0.160246 
-0.00248529 -0.0561464 -0.523089 
5.44032e-18 -8.25177e-18 1 

-0.197458 -0.0516777 0.896784 
-0.0138985 0.00436768 -0.497605 
1.60915e-18 -1.05865e-17 1 

-0.144506 0.0971233 -1.24274 
-0.0733712 -0.00826642 -0.679085 
6.96241e-18 5.9617e-18 1 

-0.133958 0.0823629 -0.172363 
-0.070637 -0.0871523 1.69457 
-1.10659e-17 -1.13922e-17 1 

-0.767638 -0.638357 -1.0366 
-0.293943 0.509323 -0.716613 
4.3701e-18 -3.54663e-18 1 

-0.999373 0.000946568 -0.477078 
-0.1538 0.394301 -0.740779 
-2.75351e-18 7.01184e-18 1 

-0.099256 0.120085 2.43018 
-0.0640654 0.0150086 -2.21871 
2.93631e-18 4.74856e-18 1 

-4.88314 -0.387638 -18.1788 
1.96608 1.24002 13.6619 
-6.33652e-18 -4.5878e-18 1 

-0.907641 -0.170226 -0.445981 
0.359963 0.0480706 -0.134731 
5.27945e-18 -3.51963e-18 1 

-0.0677559 -0.461774 8.31507 
0.408811 0.0687222 2.51325 
-1.42763e-18 8.46324e-18 1 

-0.722304 -0.467377 -1.19765 
1.07232 0.232008 0.0298732 
-8.13315e-18 1.41857e-18 1 

-0.269726 -1.25355 1.07443 
0.134665 0.465192 -0.925709 
-6.18344e-18 1.301e-17 1 

-0.56624 -1.62562 175.807 
0.133911 0.739879 14.6231 
-2.75556e-19 -9.31511e-18 1 

-0.819541 -0.285773 1.70827 
0.0197146 0.390494 -1.13469 
1.40755e-17 -4.45697e-18 1 

-1.97999 -0.875039 0.289522 
-0.152553 0.448412 0.24308 
7.58938e-18 -9.62343e-18 1 

-0.0393813 0.0178617 0.00544199 
0.00526679 -0.0825156 0.108925 
-1.48504e-19 -7.57368e-19 1 

-0.130554 -0.00359152 0.0761199 
-3.8934e-05 -0.0106955 -0.0436095 
4.46462e-18 -5.694e-18 1 

-0.121485 -0.0396456 0.0683771 
0.0181998 -0.0867311 0.29414 
-3.92226e-18 -5.86348e-18 1 

-0.236887 -0.134429 0.19966 
0.047655 -0.0213849 -0.550364 
-1.2143e-17 2.10858e-17 1 

-0.138956 0.0222894 0.152303 
-0.0201768 -0.03107 0.191155 
-1.3957e-18 -6.29936e-18 1 

-0.114919 0.00490483 -0.0726784 
0.037633 0.0161427 0.0665395 
9.35807e-19 1.29069e-17 1 

-0.282901 -0.0657227 -2.38092 
0.0464542 0.16806 0.0476573 
3.33991e-18 3.79895e-19 1 

-0.326695 -0.31243 -3.7766 
-0.0635539 0.0702669 2.45585 
-1.57306e-17 3.51556e-18 1 

-0.0424058 -0.550271 0.0235051 
0.684062 0.282749 0.252542 
2.42412e-18 1.62901e-17 1 

-0.232415 0.148037 0.846306 
0.00971987 0.0602154 0.161998 
4.46677e-18 -4.04801e-18 1 

0.478726 -0.901033 -0.304405 
0.98294 0.598628 -0.167498 
-1.1847e-17 9.42376e-19 1 

-0.15626 0.0132469 -0.0147778 
-0.00349513 -0.0397761 -0.139245 
9.25259e-19 1.94791e-19 1 

-0.213575 -1.76297 -146.59 
-0.0735946 0.935112 40.5958 
-1.18615e-18 1.21852e-17 1 

-0.332095 -0.100224 -0.124986 
0.106391 -0.0722673 -0.479245 
5.26496e-18 -5.00723e-18 1 

-0.168949 0.0256202 -3.16902 
0.0599755 0.0340592 -1.28232 
-6.7993e-18 -1.09099e-17 1 

-1.05694 0.442743 -0.273033 
-0.157666 0.352554 -0.646213 
-3.66659e-18 1.41664e-18 1 

-1.09539 0.316524 -1.2562 
0.0425378 0.334945 -1.67639 
-1.54492e-17 4.90718e-18 1 

-0.127734 -0.0220478 0.605603 
0.0558829 -0.0414763 -1.16731 
-2.81535e-18 1.68921e-18 1 

-0.458565 -0.360996 0.186865 
-0.0959056 -0.00549698 -0.808242 
-1.33695e-17 -4.76474e-18 1 

-0.213468 -0.0129817 -0.567255 
-0.0468617 -0.0423888 0.300038 
-4.31513e-18 7.49469e-18 1 

-0.364951 -0.120788 0.264576 
0.193275 -0.00116019 0.107549 
2.83968e-18 3.61847e-18 1 

-3.11119 3.2287 -14.4189 
-0.37214 0.704649 -2.15565 
6.49969e-18 -4.74191e-18 1 

-0.161349 -0.0315663 -0.248529 
-0.0738052 -0.00850874 5.10773 
2.35587e-18 -3.5379e-19 1 

-1.49888 0.196428 1.02738 
0.388102 0.548619 -0.454346 
-1.35219e-17 4.76826e-18 1 

-3.31054 -0.0480559 -24.4589 
-0.773878 0.152441 -4.92303 
4.02748e-18 8.36407e-18 1 

-0.186208 6.46138e-05 -0.205989 
0.0529236 -0.00579006 -0.186508 
9.64553e-18 -3.5505e-18 1 

-2.58059 -1.5379 -1.87789 
-0.083948 0.606047 -0.869328 
5.6779e-18 -1.3568e-17 1 

-2.56231 -0.718136 -0.765278 
-0.143667 0.575419 -1.00549 
-1.14694e-17 -1.86798e-19 1 

-2.04418 0.679047 -1.69497 
0.188237 0.288676 -0.681105 
-7.10939e-18 1.59068e-17 1 

-0.0652508 -0.0741301 -0.118078 
0.0683698 0.0125518 -0.122925 
7.56682e-19 -1.00842e-17 1 

-0.392917 0.152434 0.0451583 
-0.373534 -0.0217388 0.0123047 
-1.52401e-17 -3.07822e-17 1 

-0.740209 -0.822502 -0.580994 
-0.00304855 0.170371 -0.458137 
2.03391e-18 -1.00467e-17 1 

-0.480955 0.0296061 0.0630279 
-0.302355 0.131843 0.0639593 
8.97064e-18 -3.19038e-18 1 

-0.245428 -0.480955 0.135601 
0.534958 0.445357 0.545261 
2.66361e-18 -1.30858e-17 1 

-0.234516 -0.216743 0.215742 
-0.00377324 0.0244412 0.304965 
1.94225e-18 1.35958e-17 1 

-0.141708 0.0304442 0.0207146 
-0.0710904 -0.0100466 0.0904458 
-2.5762e-18 1.15929e-18 1 

-0.424314 0.611647 -0.199991 
-0.368262 0.257253 0.228959 
1.77401e-18 1.01372e-18 1 

-0.636206 -0.403158 1.85388 
0.233269 0.616373 1.44612 
-1.62549e-18 -4.90073e-18 1 

-0.362751 0.0179404 -0.164965 
0.0172452 0.2496 -0.34985 
-1.22242e-17 2.07376e-18 1 

-0.564923 0.229682 -0.185788 
0.225511 0.232831 0.453202 
8.12402e-18 -1.64452e-18 1 

-0.105921 -0.150393 0.0218182 
0.13463 0.0469851 0.0471223 
-2.02817e-18 -8.25887e-18 1 

-0.112764 -0.0104474 -0.137628 
0.0248107 0.0145757 0.350507 
2.44317e-17 3.87913e-18 1 

-1.56562 0.352665 -5.149 
0.169696 0.423779 -0.971843 
7.19313e-18 -4.75507e-18 1 

0.115487 -0.477455 0.561528 
0.34933 0.0644258 0.278589 
-5.72307e-18 1.50977e-17 1 

-0.0360865 0.0120606 0.0142662 
-0.091585 -0.0269097 -1.03792 
-4.23123e-19 -8.54181e-18 1 

-0.56597 -0.102161 -0.0263842 
0.140768 0.169239 -2.32764 
1.50206e-18 -5.50757e-18 1 

-0.105374 0.00446341 -0.0176457 
0.128142 -0.076418 0.423258 
-2.46114e-18 -4.92227e-18 1 

-0.235628 -0.00399296 1.28036 
-0.0657908 0.115932 1.23647 
4.99967e-18 4.54024e-18 1 

-0.574561 -0.594821 -2.49358 
0.0478019 0.301367 0.893893 
-1.47501e-18 1.3847e-18 1 

-0.702955 0.291105 -1.50373 
0.00542671 0.38425 -1.00163 
-5.01811e-18 1.09411e-18 1 

-0.167242 0.0975207 0.139602 
0.0122059 -0.00854437 -0.268236 
2.07757e-18 -2.83367e-17 1 

-0.53807 0.0694177 -22.8578 
-0.010933 0.0994833 9.30515 
-9.84005e-18 -5.31824e-18 1 

0.326688 0.783395 -0.0256553 
-0.819514 0.339319 0.0869287 
-2.90697e-18 -1.70998e-17 1 

-0.132657 -0.330811 0.077207 
0.278984 0.0518971 -0.304296 
1.79169e-18 7.16675e-18 1 

-0.595752 -0.0534126 6.42206 
0.155502 0.0846294 -2.3535 
2.08319e-18 -8.15161e-18 1 

-0.516794 0.730487 -0.856307 
0.393674 0.0971301 2.86061 
8.87547e-18 5.53699e-18 1 

-0.122629 0.0088216 -0.0574803 
-0.0174289 -0.043714 0.0264919 
4.45069e-18 -2.40578e-18 1 

-0.0395928 -0.437382 -0.646991 
0.432336 0.0914974 0.915239 
-9.0767e-18 -4.79298e-19 1 

-3.00389 -2.49235 0.751261 
1.29465 1.34264 -0.631159 
1.16414e-17 1.87216e-17 1 
