# vtk DataFile Version 3.0
Output file generated by Yade's KinematicLocalisationAnalyser
ASCII
DATASET UNSTRUCTURED_GRID

POINTS 13483 float
638.407 29.0479 -0.418797
797.802 62.9548 -0.402364
126.195 6.21475 -0.450078
834.711 13.1933 -0.249277
524.452 7.73189 0.301267
329.847 34.7622 -0.454931
164.256 6.79039 -0.422555
598.4 10.4872 0.126801
521.374 24.0229 -0.155741
752.391 15.4207 0.379429
221.062 8.95211 -0.0965733
269.299 6.25136 0.296726
686.133 33.1386 0.149898
664.628 17.5433 0.0774352
143.948 17.2266 -0.465914
232.182 34.5868 0.397185
228.547 12.9723 -0.271402
302.752 9.50622 0.378661
357.113 32.0919 0.439659
551.048 8.60526 0.355635
432.436 35.9435 -0.0998759
621.849 48.4276 0.261129
832.352 46.286 -0.459583
734.447 53.167 0.441348
482.284 16.6993 0.29109
252.53 44.5326 -0.126728
516.194 28.6441 -0.468138
616.383 20.5745 0.224691
46.9311 15.4056 -0.460515
750.872 39.2521 0.363875
506.843 4.85894 0.338608
17.0851 23.1969 0.311684
809.86 59.8985 -0.243031
520.272 2.47326 0.487676
82.5575 44.1447 0.100752
548.058 30.4879 0.331719
557.426 16.5683 -0.416437
360.595 21.8009 -0.200287
561.367 25.7319 -0.309692
368.389 33.4333 -0.385482
252.956 14.4569 -0.312436
457.07 36.1522 -0.0643473
709.843 6.54886 0.199728
202.663 6.29188 0.360211
58.1743 6.9932 0.0844134
71.7915 8.84775 -0.265745
725.562 7.72328 -0.642055
24.8597 11.712 -0.290085
644.496 49.6521 -0.355758
709.108 25.9394 -0.317791
180.966 32.2585 0.282135
797.809 41.4074 0.12373
36.6036 27.9963 -0.113058
561.532 2.97873 0.341628
149.175 7.2116 0.478384
624.44 36.4295 0.389094
530.903 27.0967 0.118889
183.687 0.943034 -0.259936
34.2597 2.36263 -0.324351
366.469 17.8004 0.262336
652.785 48.6478 -0.147161
485.981 33.9512 -0.171122
419.601 1.04208 0.193089
734.746 7.72663 -0.568765
27.9255 42.7315 0.235272
269.393 30.1449 0.290296
752.269 10.9516 0.305016
707.812 50.8403 0.356008
439.078 8.52689 -0.487157
599.089 3.73728 -0.344634
778.634 35.5973 -0.381692
137.407 7.63045 -0.278598
524.449 25.9306 -0.125779
502.475 15.2039 -0.106646
309.205 16.5998 -0.334392
21.9652 13.2628 -0.237999
815.803 45.661 0.304502
349.687 39.1367 -0.280108
707.731 23.4747 0.348655
724.39 14.3518 -0.268396
827.937 12.4382 0.196022
489.082 34.6519 0.160737
97.9226 37.7659 -0.267123
721.673 41.1536 -0.223365
684.027 43.9056 0.054972
838.245 52.0276 -0.114849
822.451 0.771062 0.481031
305.858 28.41 -0.448615
656.094 6.32581 -0.121414
25.4176 5.28801 0.469921
139.664 37.9997 -0.135357
540.231 14.1561 0.203026
812.788 33.1207 0.473091
205.452 28.2628 -0.249821
46.4365 34.8536 -0.261426
519.151 1.1623 0.1381
247.962 8.80664 -0.392713
783.483 52.4881 -0.245007
802.327 30.5815 -0.26745
380.743 20.6223 -0.263995
172.758 26.6994 -0.432091
578.505 40.0533 0.404111
399.809 15.1838 -0.475908
436.27 29.3055 -0.0953902
398.396 4.45238 0.408088
577.553 10.6832 -0.082186
839.976 19.804 -0.149262
84.8899 39.1802 0.386219
353.497 4.78346 -0.176698
591.642 9.621 -0.338512
380.106 44.2948 -0.440122
26.6525 24.3664 0.454948
31.9885 5.74275 -0.338838
601.616 33.8471 0.421081
532.748 23.5328 0.155178
27.6961 36.8242 -0.411668
98.1969 29.9563 -0.226426
342.792 15.8591 -0.313478
633.651 19.1823 -0.116515
501.726 38.5002 0.294126
767.694 7.55226 0.567101
760.116 6.66201 0.32523
409.198 37.1888 -0.094509
670.318 29.6104 0.0942865
251.131 17.0241 -0.516225
348.479 3.68568 0.467049
109.193 31.0668 -0.314585
122.674 23.6399 0.298427
573.519 39.7599 0.0715297
323.049 18.8467 0.484602
748.772 45.3507 0.0987312
712.517 48.5531 0.110336
509.103 20.3233 -0.404423
808.037 13.7426 -0.302225
453.263 24.088 0.24342
293.082 23.9598 -0.301867
710.98 35.8215 0.291549
294.601 29.2567 0.420008
609.718 12.061 0.191401
351.161 35.8748 0.187864
534.089 10.9526 0.524751
388.544 31.0471 0.0839487
455.185 17.2074 -0.13078
337.013 41.2677 0.432589
201.62 29.8142 0.115159
802.198 66.2507 -0.142802
835.822 22.5821 0.269358
6.38816 12.0431 -0.428512
459.994 22.2007 -0.414646
40.0684 22.074 0.100065
399.129 31.8307 -0.484654
418.744 24.4419 -0.251547
78.7932 11.7571 -0.47672
54.7468 33.173 -0.432673
239.266 13.4952 0.417452
656.758 42.9213 0.411166
612.163 21.2183 -0.457525
79.3372 20.8904 -0.484806
737.132 53.1983 0.470399
795.638 2.28717 0.532533
699.085 51.0608 0.458387
731.145 1.68791 0.616409
583.895 27.4505 -0.438764
623.671 48.0577 0.450127
543.7 18.261 -0.371651
840.79 3.1066 -0.264943
237.008 25.0325 -0.13185
135.184 34.8948 -0.197145
261.996 6.64069 0.383412
100.184 4.12497 0.273646
68.0269 10.0045 -0.202542
292.555 36.214 -0.302718
17.7047 24.8148 -0.373151
590.284 21.8262 0.423197
642.428 45.3153 -0.192716
491.715 21.3774 -0.358249
826.556 56.8847 -0.343374
431.951 8.48124 0.0866543
464.362 37.5289 -0.3787
570.003 3.47413 -0.208298
23.7847 23.8452 -0.381781
612.37 4.45996 0.474312
579.895 4.37486 -0.283203
219.028 11.2767 -0.494543
451.805 16.3034 0.180569
330.613 6.2672 0.33207
412.355 19.0072 -0.326301
776.203 53.2384 0.104918
204.428 25.2139 -0.423163
813.991 6.69581 -0.429172
773.102 47.6923 0.307427
407.183 10.2777 -0.163125
751.178 2.87451 0.397443
641.26 27.4099 -0.4266
775.916 21.9449 0.336091
459.23 44.8576 0.260329
527.745 12.3886 0.363612
494.643 44.9807 -0.219667
474.16 8.7217 -0.137475
701.268 47.6105 0.255502
699.503 43.1631 -0.296378
204.013 38.6198 0.335015
825.623 12.7526 0.116485
625.435 47.8419 -0.248696
12.1751 16.8067 0.167597
433.418 25.2361 0.331845
198.924 23.4021 -0.442266
99.7366 38.295 0.200276
811.173 30.0216 -0.428253
696.571 53.4907 -0.222084
339.169 25.35 0.346473
566.91 10.226 0.324169
87.8431 43.4544 0.053033
263.102 25.7647 0.470539
593.31 25.792 0.356499
517.875 20.2328 0.399435
279.076 0.897932 -0.343814
589.027 41.5246 -0.349942
567.19 43.4921 -0.441105
513.488 34.8492 0.379232
531.515 0.963062 -0.574953
739.688 21.9252 0.445765
191.018 12.1007 -0.170639
533.788 35.682 -0.412023
600.431 42.1832 -0.118971
77.2856 0.906693 -0.273524
267.457 4.62894 0.181145
834.987 24.44 -0.193781
827.415 15.646 0.339862
841.222 27.9583 0.452738
322.682 8.52913 -0.235911
779.584 25.144 0.386927
434.365 40.9855 0.314219
478.413 0.812903 -0.398074
689.511 40.9504 0.456039
28.533 30.4098 0.301947
351.915 41.3281 -0.457752
268.406 2.80442 0.304366
813.404 56.7001 -0.180011
752.385 58.4642 -0.227941
305.447 10.8093 0.19191
704.032 35.8636 -0.0894273
593.67 2.60307 0.268523
577.576 6.31561 0.440983
102.958 17.5277 -0.515932
322.618 1.04334 -0.223871
365.544 2.2864 -0.347825
14.6992 7.76962 0.468661
4.61182 30.7462 0.242917
172.501 18.8054 -0.364916
72.8915 41.5637 0.206364
70.9437 28.6333 -0.320194
451.44 14.5925 -0.398774
391.354 34.9979 -0.467322
795.638 42.0125 0.120626
20.7929 3.98014 0.277134
74.9534 6.86787 0.141571
664.753 42.5084 0.134428
313.682 0.92874 0.319752
389.443 16.3249 -0.10358
251.006 4.61815 -0.383074
692.992 24.2524 0.170808
481.642 8.31487 0.406589
781.511 21.8782 0.361745
669.354 32.7996 -0.299497
707.841 21.4623 -0.0838918
448.643 26.7096 0.476233
109.046 44.4459 -0.302849
576.61 43.5179 -0.0658308
773.136 17.3206 0.255315
253.254 30.6965 0.251757
33.9613 16.8249 0.170567
358.549 13.736 0.488274
115.246 40.2241 -0.466827
285.31 41.9967 -0.186906
453.825 1.0748 0.170501
813.929 41.5338 -0.387222
724.522 0.755414 0.59272
354.1 3.15588 0.513296
319.443 26.5017 -0.154994
493.032 42.0112 -0.199145
86.7673 7.86809 -0.48016
211.012 45.2247 0.377594
804.068 36.9522 0.372041
528.135 39.4061 -0.065082
212.989 41.33 0.253556
170.997 42.4127 0.395067
841.951 45.4389 0.377919
838.528 18.6943 0.459193
646.684 3.51719 -0.566335
202.634 24.6956 0.0812116
585.772 29.8799 -0.0964322
587.808 29.4499 0.260177
436.66 5.57573 -0.137029
514.078 0.92518 -0.289859
794.27 43.3545 0.50118
90.8808 30.6684 -0.213967
696.858 20.0102 0.450611
292.188 15.5821 -0.339798
10.5167 2.29936 -0.361409
133.584 36.4232 -0.189684
71.304 23.1467 -0.445079
743.255 44.3857 0.294308
818.216 64.06 0.161892
197.784 28.3147 0.174601
831.113 19.2389 -0.336814
47.657 36.4493 -0.251383
97.0644 28.3423 0.164418
674.011 16.606 0.455534
441.549 17.9867 -0.481482
554.02 16.5624 -0.100698
253.635 28.7562 -0.192467
662.229 4.94865 0.562975
841.601 18.6077 -0.34287
31.7421 31.4465 -0.263821
287.754 7.59658 0.194038
236.757 15.2615 -0.253215
1.10579 35.2653 0.146003
240.291 14.5501 -0.361829
226.005 11.1248 -0.135793
228.7 26.2719 0.285748
141.881 27.66 0.125627
583.808 15.5465 0.301535
178.428 14.0904 0.345117
806.454 58.5054 -0.217116
185.829 3.81536 0.496414
50.4695 37.2433 -0.352297
781.561 63.3937 -0.426113
300.012 31.5192 0.378873
715.213 27.7275 0.464349
820.888 42.7805 -0.520481
320.733 9.14976 0.11076
768.651 37.9121 0.401238
350.852 2.61625 -0.36439
444.836 23.9733 0.351132
712.642 18.3142 0.406259
112.496 11.8566 0.429253
515.746 3.97999 -0.470318
785.337 20.5558 -0.157257
94.2362 7.62123 -0.203224
300.177 14.6523 0.191136
452.483 11.88 -0.22684
839.395 2.0025 -0.555809
424.741 1.9283 -0.507925
188.488 38.9688 0.273113
774.188 10.3571 0.422693
136.978 36.0703 -0.17873
280.52 31.5222 -0.377628
427.866 21.387 0.217089
612.368 13.9581 -0.311648
413.215 9.62541 0.439675
487.781 27.7601 -0.418663
797.699 64.5246 -0.368094
50.7447 11.0814 -0.103001
319.333 37.4296 -0.276999
405.575 26.4563 -0.415263
437.747 20.7366 0.243032
557.59 45.1725 -0.357175
787.083 43.3677 0.20302
705.817 42.6072 -0.396278
241.104 34.3812 0.381842
14.4255 31.1871 -0.154589
698.153 44.7272 -0.118871
544.941 43.3315 -0.434857
244.867 39.7595 0.0959525
723.397 36.5609 0.109151
161.392 9.17238 0.213033
392.02 21.7119 0.309389
495.035 42.8294 -0.100042
442.37 19.4926 0.199692
796.166 59.5736 0.299354
455.274 3.25301 0.45302
53.189 25.1802 -0.303624
502.321 32.5349 0.345535
464.921 42.8796 0.356954
809.101 50.9224 -0.230236
765.126 40.3555 -0.234151
579.295 18.9333 -0.150385
803.668 49.9258 -0.430622
312.743 2.0332 -0.429691
405.595 29.4781 -0.449339
31.1049 38.5643 -0.296047
770.962 38.3961 0.144198
649.74 20.8688 -0.474183
494.931 0.77173 -0.475136
134.742 4.51579 -0.286776
456.725 40.6514 -0.0960207
12.9915 0.931016 0.316248
839 4.20562 -0.293362
[...]
POINT_DATA 13483
TENSORS Strain_matrix float
-0.140125 0.131938 0.939033 
0.316958 -0.0205222 0.437907 
3.82482e-18 -3.86755e-18 1 

-1.74593 0.0280576 -12.0759 
0.425136 1.13282 -6.95845 
-7.16333e-18 1.69265e-19 1 

-0.0853518 -0.0210863 -1.2525 
0.0104505 -0.0524829 1.97355 
3.01394e-18 9.36944e-18 1 

-1.47984 -1.02164 -4.21197 
0.606186 1.06116 2.10324 
2.69095e-17 -1.52264e-17 1 

-0.286723 -0.187629 0.167277 
0.070292 0.0235191 -0.329949 
1.72752e-18 -2.67526e-18 1 

-0.11678 -0.111539 0.872332 
-0.00261951 -0.0311459 -0.380648 
-1.10945e-17 -7.19847e-18 1 

-0.0497349 -0.0332667 0.0273665 
-0.0111929 -0.0919135 0.484299 
5.2961e-18 -5.87201e-19 1 

-0.0708201 -0.0438732 -0.204005 
-0.00683403 -0.0784032 -0.102269 
7.74003e-18 1.2841e-17 1 

-0.0570204 0.019757 0.188957 
-0.0753903 -0.0481204 0.103082 
-9.95956e-18 1.50015e-19 1 

-0.245255 0.079192 0.412348 
-0.0630543 -0.1468 0.585404 
7.59752e-18 2.99727e-18 1 

-0.0241762 -0.057307 -0.00451527 
0.0180786 -0.0678454 0.0757427 
-1.21684e-17 -7.15787e-18 1 

-0.0687197 -0.00426772 -0.0724528 
-0.0636668 -0.0961001 -0.222091 
-5.27003e-18 1.95186e-18 1 

0.0797709 0.378334 -0.773236 
-0.368995 -0.0354194 0.0683825 
-1.51505e-17 2.73206e-18 1 

-0.211234 -0.071481 -0.506743 
0.335093 0.100241 -0.374133 
8.60993e-18 5.47905e-18 1 

-0.0842423 0.017686 -0.27621 
-0.00931453 -0.0531766 1.7713 
1.55055e-18 -9.74166e-19 1 

-0.0557215 -0.0503058 0.378499 
-0.0458571 -0.0348568 0.8244 
-1.29306e-18 4.65844e-18 1 

-0.0572713 -0.0618716 0.317877 
0.0389747 -0.0975738 0.0592771 
5.04486e-18 -4.00668e-18 1 

-0.11539 -0.0246003 -0.00832082 
-0.00162164 -0.060652 0.0487788 
-9.01086e-18 -1.15647e-18 1 

-0.086265 -0.0699376 2.10626 
-0.0590839 -0.0278465 0.728794 
-9.12293e-18 1.62787e-17 1 

-0.0858278 0.0814046 0.39238 
-0.044245 -0.117404 -0.39558 
8.24989e-19 -7.50328e-18 1 

-0.146123 0.174239 -0.55344 
0.0321804 0.044463 -0.344434 
-5.09882e-18 -4.75431e-18 1 

-0.0460595 -0.00650946 -0.122799 
-0.147001 -0.336506 -1.58729 
-2.47246e-18 5.23675e-17 1 

-0.413735 0.108817 3.60831 
-0.260832 0.303022 3.32316 
-7.57179e-18 -4.00012e-18 1 

-0.376537 0.704374 5.86871 
-0.259801 0.433206 -13.4716 
-1.75587e-18 -1.39887e-17 1 

-0.104731 -0.0638487 0.391401 
0.0137821 0.0455247 -0.150301 
2.46424e-18 -5.12739e-18 1 

-0.135069 0.115176 -0.0328956 
-0.128853 0.0385291 0.0172909 
3.23013e-18 1.12088e-17 1 

-0.0648449 0.0350052 1.30247 
-0.0218437 -0.00850187 -2.49196 
1.01681e-17 9.32489e-18 1 

-0.270363 -0.0470616 -0.0741788 
-0.172648 0.0324877 0.0325427 
1.51446e-18 -6.90974e-18 1 

-0.0881881 -0.00617083 0.382654 
0.0387057 -0.0766033 -3.61938 
-1.80091e-18 -6.7534e-18 1 

-0.438556 0.00320637 -0.768089 
-0.00768 0.187702 -0.749546 
-6.11317e-18 7.55156e-18 1 

-0.112959 -0.0057504 -0.342603 
-0.070136 -0.17446 0.318813 
-5.39887e-18 -7.2803e-18 1 

-0.0804427 0.0980841 0.439193 
-0.169203 0.0231836 -0.298459 
2.19949e-17 -3.40898e-18 1 

-0.0879239 -0.187134 0.0965935 
0.0824949 -0.01541 0.585913 
5.39095e-18 -7.19373e-18 1 

-0.127713 0.0780913 -2.00848 
-0.00756693 0.0207895 -1.5049 
7.84777e-18 -2.42403e-17 1 

-0.0638558 0.00924956 -0.0871604 
-0.0747085 -0.0222693 -0.502394 
9.90025e-18 -1.09028e-17 1 

-0.0211379 0.0404775 -0.223262 
-0.0686205 -0.0508399 -0.149113 
-8.10141e-18 -9.72169e-18 1 

-0.0651064 0.0222894 -1.24956 
-0.00202125 -0.0177078 -1.1142 
-2.63691e-18 2.50715e-19 1 

0.0738144 -0.0869263 -0.32028 
0.0045974 -0.240123 -0.378166 
3.9672e-18 -1.04765e-17 1 

-0.117381 0.0181749 0.27199 
0.0963322 -0.0705245 0.0125159 
1.80665e-17 5.86575e-18 1 

-0.018448 0.0189981 0.0496214 
0.14123 -0.0196291 0.920046 
-2.15576e-18 7.9112e-18 1 

-0.0726946 -0.00786842 -0.11695 
-0.12711 -0.0661437 0.0881808 
-6.19063e-18 8.97878e-19 1 

-0.136484 -0.103846 0.308451 
-0.155273 0.00693367 -0.347234 
-1.50656e-18 3.9306e-18 1 

-0.276788 -0.12561 -0.361135 
-0.0633805 -0.0267654 0.315567 
-8.74605e-18 -3.16901e-18 1 

-0.0802729 0.0355413 0.32789 
0.00371845 -0.0878877 -0.415854 
0 -1.07177e-17 1 

-0.0429022 0.0586462 -0.00729957 
-0.0405736 -0.085518 0.0488073 
5.71219e-18 9.08757e-19 1 

-0.0494583 0.0152748 0.143246 
-0.0129182 -0.0641242 -0.143967 
4.79461e-18 -8.29801e-19 1 

-0.429772 -0.165013 1.05819 
0.0317511 0.113423 0.390485 
2.59713e-18 2.00798e-17 1 

-0.083854 -0.0498462 -0.069342 
0.111298 -0.0609811 -0.143839 
8.91036e-19 -3.36366e-18 1 

-0.023692 0.390804 0.175657 
-0.294277 0.052456 -0.0639319 
-1.00996e-17 1.05451e-17 1 

-0.426875 -0.275664 -2.69911 
-0.175365 0.187774 -0.209394 
5.80428e-18 -5.94819e-18 1 

-0.0670571 -0.096885 -0.733273 
0.0566741 0.03067 -0.124827 
-3.22212e-19 -1.8928e-18 1 

-0.205972 0.186273 -0.803456 
-0.165927 0.216455 0.657283 
-5.23777e-18 -3.30807e-18 1 

-0.108893 0.0533623 0.142045 
-0.0297163 -0.00257473 -0.108224 
1.07181e-17 4.71867e-18 1 

-0.133195 0.102855 0.128437 
-0.0251244 -0.0410618 0.144279 
-9.82608e-18 -1.55133e-17 1 

-0.091656 0.00337906 -0.100611 
-0.0307116 -0.121132 0.233366 
-6.15168e-18 -5.85204e-18 1 

-0.221179 0.0671153 -1.63348 
-0.0973731 0.141173 -1.08275 
-1.01877e-18 3.8474e-18 1 

-0.124072 0.0737484 -0.331868 
-0.0397174 0.0412203 0.104842 
-9.01891e-18 -8.66904e-18 1 

-0.0650062 0.0237666 0.105698 
-0.00618682 -0.0893366 0.146305 
-4.10138e-18 -1.45839e-17 1 

-0.0529781 0.00763803 -0.0238973 
-0.0333872 -0.135197 0.0750202 
-5.84583e-18 -3.52605e-18 1 

-0.0573096 0.00443859 -0.27431 
-0.0505352 -0.0719383 0.364101 
-5.3187e-18 -1.02311e-17 1 

-0.716839 -0.67196 0.832795 
0.432996 0.936168 -1.17135 
2.39636e-18 -5.6137e-18 1 

-0.139808 -0.151561 0.334637 
0.015805 0.0619542 -0.692285 
-1.28156e-17 -8.87582e-18 1 

-0.0736759 -0.090899 -0.329767 
-0.00581465 -0.0385876 -0.0836535 
1.44312e-17 1.39012e-18 1 

-0.431457 -0.140336 -0.184006 
0.132392 0.158253 1.26311 
1.18143e-17 -6.30473e-18 1 

-0.0456367 0.0374532 0.0516978 
-0.00906504 0.0004704 0.0836381 
2.1435e-19 6.85921e-18 1 

-0.0773605 0.0175531 0.155544 
-0.0259741 -0.0380137 0.20036 
1.10342e-17 5.36707e-18 1 

-0.282467 0.301449 -0.332296 
-0.113401 -0.0835168 -0.165819 
-2.30607e-18 -3.84346e-19 1 

-0.0106668 0.359385 -0.364282 
-0.467158 -0.105562 -0.211871 
6.26369e-18 1.46956e-17 1 

-0.0924486 0.0115005 -0.626209 
-0.0513533 -0.082649 1.04454 
2.02154e-18 7.95982e-18 1 

-0.183469 0.0396572 -0.0916055 
-0.11648 -0.0660688 -0.154111 
-1.55484e-17 1.4554e-17 1 

-0.282518 0.134682 -0.507977 
-0.0686871 0.280999 0.665019 
8.40106e-18 -7.82168e-18 1 

-0.0550513 0.0437852 0.0659485 
-0.0225171 -0.0632715 -0.0668504 
3.09273e-19 1.38303e-17 1 

-0.0505466 0.012253 -0.140875 
-0.0546753 -0.056951 -0.0377146 
7.86649e-18 4.37027e-18 1 

-0.0449466 0.0657304 -0.490755 
-0.108011 -0.0724082 0.574005 
1.56595e-17 -1.11339e-17 1 

-0.0664467 0.0191154 -0.204439 
-0.0366932 -0.0444727 -0.373811 
1.36466e-17 1.06882e-17 1 

-0.065798 -0.0671243 -0.131578 
-0.0156703 -0.0723266 0.0267814 
-1.37129e-17 -3.88533e-18 1 

-0.433346 -0.357824 -1.45567 
0.185261 0.418311 0.499782 
3.65441e-19 9.95826e-18 1 

-0.0788332 0.0246418 -0.208886 
0.0224274 -0.0186752 0.633012 
-7.73264e-18 5.41285e-19 1 

-0.267248 -0.255464 2.41932 
-0.0848361 0.210155 1.61105 
-8.1745e-18 9.7954e-19 1 

-0.792635 -0.131214 0.283287 
-0.128753 0.212636 -0.203355 
-1.54477e-17 1.01454e-17 1 

-0.207407 -0.395449 -2.71567 
-0.106338 0.0941636 0.0716521 
-2.19647e-18 1.22594e-18 1 

-0.068194 -0.184444 0.25602 
0.135416 0.12274 -0.273667 
-1.33165e-17 -1.85056e-17 1 

-0.00499972 0.108351 0.0319377 
-0.145013 -0.0285257 0.179853 
-4.96421e-18 9.39697e-18 1 

-0.453988 0.149315 -0.568484 
0.13273 0.342332 1.873 
3.55356e-19 -1.14504e-17 1 

-0.115806 0.444476 -0.611209 
-0.218783 0.00688199 -0.0478721 
-4.13908e-18 -3.51638e-18 1 

-0.610677 -0.316845 -1.69942 
0.119428 0.416196 -0.963644 
-1.71713e-18 5.90264e-18 1 

-0.378908 0.901508 -1.83626 
0.0243291 0.193845 0.388244 
-3.01073e-18 6.25502e-17 1 

-0.173833 -0.021804 -0.217399 
-0.00125632 -0.00562693 0.419769 
-1.9278e-17 4.50718e-18 1 

-0.195962 -0.0654414 -0.113259 
0.121391 -0.0184998 -0.116139 
1.83906e-17 5.10228e-18 1 

-0.124743 0.0339305 -0.159003 
-0.00826618 -0.0517718 -0.215562 
-2.93636e-18 -5.37879e-18 1 

-0.070533 -0.0475898 -0.0513413 
-0.0349021 -0.0405774 0.0656663 
8.96379e-18 7.70992e-18 1 

-0.0345697 0.0439365 -0.219712 
0.0704494 -0.0507058 0.140292 
-9.0865e-18 0 1 

-0.806578 -0.52736 -4.1488 
0.147059 0.338879 -1.07007 
-1.03934e-17 3.11353e-18 1 

-0.144824 -0.0403634 -0.390341 
-0.148269 -0.0326686 0.0348185 
8.41451e-18 4.26489e-18 1 

-0.100255 0.0344106 -1.62623 
0.0700298 0.0306612 2.85031 
7.59311e-18 -1.00536e-18 1 

-0.123804 0.195316 -0.227878 
-0.00486465 0.193947 -0.398846 
2.23027e-19 -4.86248e-17 1 

-0.117066 0.0465492 -0.221828 
0.00218615 -0.0327711 0.39061 
3.74234e-18 1.42489e-17 1 

-1.47898 0.774001 -0.462875 
-0.00570807 0.594228 -0.0182828 
-7.35452e-19 -1.09398e-17 1 

-0.289016 -0.115653 0.769839 
0.268227 0.191205 0.318096 
-6.0716e-18 -9.26684e-18 1 

-0.0316253 0.0526631 -0.0500582 
-0.086352 -0.0825604 0.119568 
-7.44378e-19 -5.83096e-18 1 

-0.0556936 -0.0261246 0.389279 
0.0236752 -0.0201618 0.501017 
-4.85579e-18 -1.25224e-18 1 

-0.111022 -0.153721 0.288711 
0.0348922 -0.010372 2.00903 
1.92346e-18 7.51697e-19 1 

-0.140421 0.061458 -2.19637 
0.0971695 -0.0141355 1.22178 
-4.32124e-18 1.18366e-17 1 

-0.0605048 0.0123347 -0.0195232 
-0.0063111 -0.0463555 -0.205888 
7.26415e-18 2.35839e-18 1 

-0.0732884 -0.0290073 0.141743 
-0.00138277 -0.10339 -1.43407 
9.93646e-18 -4.35439e-18 1 

-0.252721 0.279659 0.166097 
-0.186241 0.114589 -0.044514 
-5.04547e-19 1.16803e-17 1 

-0.700492 -0.592569 0.00212524 
0.192259 0.398955 0.30917 
7.87682e-18 -3.60574e-18 1 

4.9604e-05 0.0467451 0.924666 
-0.12797 -0.101635 -1.06795 
-5.18237e-18 6.84259e-18 1 

-0.0969398 0.0215986 0.0873787 
0.019605 -0.102201 -0.0110569 
1.26451e-18 -1.92018e-18 1 

-0.201695 0.0314747 -1.19689 
0.0361376 -0.00700087 -1.97528 
3.12458e-17 4.75671e-18 1 

-0.141675 -0.0725547 1.47789 
0.0711784 0.0284098 4.20488 
-2.69448e-19 2.5867e-17 1 

-0.0460784 0.0331958 1.67248 
0.0177912 -0.087697 -2.72407 
3.99489e-18 -6.44108e-18 1 

-0.0502588 0.0335349 -0.00971322 
-0.0246865 -0.116141 0.0278883 
-6.89813e-19 -1.75589e-18 1 

-0.122007 -0.111096 -1.73441 
-0.0239331 0.0419705 -1.66718 
4.28418e-20 4.28418e-19 1 

-0.265662 0.202178 -0.292323 
-0.102153 0.239056 -0.0413064 
-1.51293e-17 -4.60675e-19 1 

-0.0553866 -0.0114263 -0.219389 
0.0110268 -0.00475984 0.223763 
-2.87331e-18 2.93077e-18 1 

-0.0841327 0.0347733 -0.122428 
-0.175314 -0.0126584 0.135944 
4.74714e-18 3.1247e-18 1 

-0.0711754 -0.00335113 -0.102232 
0.00724185 -0.0408266 -0.112963 
3.50797e-18 -1.75898e-18 1 

-0.39876 -0.230287 0.179809 
0.017743 0.186563 -0.437801 
1.14833e-18 -9.27142e-18 1 

-0.0404999 -0.0014821 0.193925 
0.0224465 -0.00173156 0.0122266 
6.4951e-18 -1.11345e-17 1 

-0.682721 0.274089 1.78257 
-0.140331 -0.049735 1.08622 
9.18523e-18 2.4889e-18 1 

-0.329587 0.258142 0.0404483 
-0.212153 -0.029023 -0.803507 
-2.16888e-17 3.62367e-18 1 

-0.0284782 0.0685757 0.0484077 
-0.0950071 -0.0144241 -0.0123065 
-1.01925e-17 4.96885e-18 1 

-0.0611448 -0.0495447 -0.0844223 
0.0298577 -0.042836 0.1706 
2.37569e-18 6.06804e-18 1 

-0.0630777 -0.0141147 -3.8934 
-0.0193727 -0.0624079 3.90106 
-3.02127e-19 6.26436e-18 1 

-0.0717862 0.0355734 -0.272488 
-0.0253892 -0.124502 -0.0684185 
-6.18128e-19 1.18062e-17 1 

-0.146774 -0.101081 -0.1535 
0.0987874 0.0780438 0.0473401 
-1.57121e-17 1.50409e-18 1 

-0.126115 0.0743935 0.338959 
-0.0675808 -0.0122928 1.20125 
2.7917e-18 7.69255e-18 1 

-0.326751 -0.0908699 0.580633 
-0.393905 0.175589 0.902511 
-6.51177e-19 -3.12565e-18 1 

-0.0644381 -0.00197784 -1.61707 
-0.0199443 -0.0561893 1.67058 
-2.0304e-18 -2.55471e-18 1 

-0.723876 0.710342 -2.26362 
0.167545 0.58942 1.44559 
8.98726e-18 -2.52963e-18 1 

-0.159386 0.251227 0.295024 
0.147363 0.0981928 -0.125402 
2.59571e-18 -1.33603e-18 1 

-0.298417 -0.117626 -1.40962 
0.187906 0.157884 2.21947 
-6.75128e-19 2.17391e-18 1 

-0.394107 -0.0607079 1.21168 
0.18637 0.237012 -1.2341 
1.83236e-18 1.98506e-17 1 

-0.229836 0.0325583 -0.0686286 
-0.228038 0.125353 -0.145065 
-7.22214e-18 8.6139e-18 1 

-0.0857602 -0.0183447 0.0501509 
-0.0375803 0.0229839 -0.169871 
-2.84273e-19 3.18386e-18 1 

-0.238159 0.349417 -0.955893 
-0.00220938 0.109125 -1.31485 
-8.31957e-18 4.80686e-18 1 

-0.091066 0.0198255 0.242343 
0.099694 0.000888106 -1.26498 
8.76572e-18 4.00851e-18 1 

-0.0317609 -0.0683473 -0.119292 
0.0152788 -0.117832 0.000882829 
1.06792e-17 1.53597e-17 1 

-0.0271177 -0.0285318 -0.0968285 
-0.0656063 -0.028108 -0.0976293 
1.26228e-17 -4.16645e-18 1 

-0.150341 0.037696 3.29153 
-0.000242158 -0.0129192 4.35169 
7.13798e-19 6.58124e-18 1 

-0.0367966 -0.180894 0.0460508 
0.181867 -0.0173685 -0.0516026 
4.07366e-18 6.26148e-18 1 

-0.0923547 0.0426944 -0.0559365 
0.0901671 0.0473098 -0.0901862 
-2.20929e-18 -8.19987e-18 1 

0.0119082 -0.0046906 2.21226 
0.0458867 -0.128805 -0.472947 
-6.36182e-18 -3.75926e-18 1 

-0.0505664 0.0269576 -0.0554963 
-0.0474992 -0.0158602 -0.296972 
-8.71643e-19 -1.59801e-18 1 

-0.301247 0.039537 1.9509 
-0.262996 0.50028 0.926513 
-2.00493e-18 -2.11536e-17 1 

-0.835814 -0.0630534 -1.82498 
0.0554335 0.305866 -1.11442 
5.53539e-18 2.8935e-18 1 

-0.0909226 -0.00554225 -0.0668069 
0.0214326 -0.0624213 -0.00369943 
1.41098e-17 -2.32621e-18 1 

-0.0717728 0.0125061 -0.335982 
0.00730664 -0.0461075 -0.331023 
7.1896e-18 1.2394e-17 1 

0.00396585 0.0067867 -0.21224 
-0.0156361 -0.079288 0.182512 
2.4596e-18 5.72493e-18 1 

-0.0634883 -0.0667731 7.46264 
0.0270944 -0.0542812 16.3137 
-6.66764e-19 -1.8579e-17 1 

-0.132533 0.0447782 -0.126105 
0.0311399 -0.00632161 -0.49936 
-2.94513e-18 -6.0305e-18 1 

-0.10044 -0.0446006 0.326116 
0.00798769 -0.037828 0.00165677 
-1.30248e-18 3.86543e-18 1 

-0.109986 0.0359404 -1.88167 
0.0723063 -0.0165703 -0.55358 
-1.37072e-18 8.81179e-18 1 

-0.0590297 0.00912332 0.258194 
-0.00212483 -0.0536187 0.17525 
-1.57254e-18 -3.02859e-18 1 

-0.370488 0.294577 -6.54194 
0.511425 0.126823 -4.66017 
4.50418e-18 -5.05051e-18 1 

-0.246849 0.145029 -2.20206 
0.0687117 0.0788587 -1.79637 
-5.52861e-19 1.13336e-17 1 

-0.0676547 -0.000538666 -0.923396 
-0.018961 -0.0356706 5.15478 
4.70645e-19 -5.81888e-19 1 

-0.410295 0.457468 19.8074 
-0.240034 0.495025 -4.75617 
5.84283e-18 -6.04462e-18 1 

-1.10242 0.0465764 -1.22644 
0.303974 0.460417 -1.44089 
1.81318e-17 2.46836e-17 1 

-0.24193 0.206427 3.27252 
0.0107618 0.112475 -12.099 
-3.42204e-18 -2.88275e-18 1 

-0.339353 -0.192874 0.924569 
0.0547769 -0.0535516 0.413253 
-1.66059e-17 -6.96927e-18 1 

-0.140942 0.0290674 0.686047 
0.134131 0.0796568 1.36762 
-3.0602e-18 7.28429e-18 1 

-0.151271 -0.0391443 -4.32023 
-0.0124175 0.206573 6.01587 
-2.43946e-19 3.21135e-18 1 

-0.124614 -0.0522834 -0.455159 
0.129406 -0.00919314 -0.636166 
5.03656e-18 -4.70079e-19 1 

-0.682086 -1.12865 2.80978 
0.468266 0.312551 -1.226 
-9.47619e-18 6.31746e-18 1 

-0.0897756 -0.0227958 0.192933 
0.0210176 -0.0300485 0.0189539 
-5.75495e-18 2.73257e-18 1 

-0.0629911 -0.0283759 0.0987685 
0.0531937 -0.0255164 0.00457883 
-2.43261e-18 3.44308e-18 1 

-0.0480674 -0.0420985 0.117044 
0.00183184 -0.0898649 -0.467863 
2.47927e-18 -1.00007e-17 1 

-0.0715102 0.0279712 -0.132493 
0.0004934 -0.092643 -0.174228 
3.24479e-18 -6.14287e-18 1 

-0.0537899 0.0161461 0.0791949 
-0.0246547 -0.0712464 -0.0634933 
6.76208e-19 -4.18138e-19 1 

0.0206224 -0.00732183 0.0501767 
0.16739 -0.0650253 0.171262 
-6.34695e-18 -4.85154e-18 1 

-0.171486 0.0736371 0.206074 
-0.1756 0.0548524 -0.353662 
7.76562e-18 -4.69657e-18 1 

-0.187741 0.000871619 -1.31965 
0.00177151 0.0883311 -3.6814 
-7.66033e-18 1.21947e-18 1 

-0.0996905 0.379167 -0.770666 
-0.135308 0.138393 1.00788 
-1.39959e-18 -3.79244e-18 1 

-0.109214 0.0583382 -0.0510131 
-0.0432751 -0.00495186 0.484157 
6.6416e-18 -5.10259e-18 1 

-0.88116 0.566645 1.9115 
-0.163718 0.587416 -0.258802 
-7.3184e-18 -9.65788e-18 1 

-0.077565 0.00448329 0.0445238 
-0.0173494 -0.0687038 -0.141777 
-8.93292e-18 4.11907e-18 1 

-0.0995983 -0.0198049 2.66124 
-0.0105356 0.0278756 0.119452 
2.06324e-18 7.04449e-18 1 

-0.217643 0.00632502 -0.216486 
-0.00203882 -0.052934 -0.207551 
1.22568e-17 1.08707e-18 1 

-0.0482135 0.0376724 -0.0488742 
-0.0921421 -0.0429269 -0.281898 
-1.59702e-19 -7.18082e-18 1 

-0.264467 0.100833 0.259221 
-0.195789 -0.00235227 -0.257904 
-1.32471e-18 2.81501e-18 1 

-0.0823335 -0.0175865 0.0179108 
-0.00867018 -0.063742 0.114289 
3.95007e-19 2.45665e-18 1 

-0.0863366 -0.0474313 -0.156832 
0.0414728 -0.063221 0.57201 
1.08744e-17 -1.14415e-17 1 

-0.193315 -0.18061 -0.334905 
0.0953636 -0.0584883 -0.333012 
5.83976e-18 1.16795e-18 1 

-0.0696268 0.0293926 0.0599457 
-0.103386 -0.07831 0.155352 
-2.82882e-18 3.39458e-18 1 

-0.105831 -0.00570884 0.396897 
-0.0941971 -0.0525665 0.354891 
6.45999e-18 2.14485e-18 1 

-0.303343 0.703216 0.67806 
-0.00703839 -0.138107 -0.1266 
6.14503e-18 2.87541e-18 1 

-0.106566 0.0250515 0.191874 
-0.186453 -0.0118322 -0.309993 
2.08824e-18 -4.55128e-19 1 

-0.440845 0.223443 -2.53536 
-0.144191 0.130066 -1.6856 
1.99881e-18 2.79945e-18 1 

-0.280491 0.274486 -0.73829 
-0.109859 0.18906 -0.000275945 
-1.01071e-18 -4.23845e-18 1 

-0.0572676 -0.142396 -0.241452 
0.0495049 -0.0328146 0.0665743 
9.67012e-18 1.94962e-18 1 

-1.31849 -0.415975 -1.81272 
-0.0358688 0.733285 -0.238333 
-1.01024e-17 -6.55741e-18 1 

-0.377392 0.272822 -0.244952 
-0.167732 0.130446 1.80737 
4.41286e-18 5.12803e-18 1 

-0.447906 0.241178 -1.6656 
-0.487772 0.321532 -0.407031 
-1.73221e-17 -4.77241e-18 1 

-0.0360335 0.278702 -1.72368 
-0.579284 0.265028 0.552795 
7.92844e-19 2.32567e-17 1 

-0.0401239 0.0226065 0.166823 
-0.0698583 -0.123763 0.0149785 
-1.46826e-17 1.63265e-19 1 

-0.00278907 0.0216477 -0.279974 
-0.112664 -0.0577801 -0.135488 
3.72907e-18 2.61578e-18 1 

-0.119061 -0.0166733 -0.0557048 
-0.100977 -0.0340103 0.104517 
5.53251e-18 -1.17319e-18 1 

0.0160212 0.273781 0.363067 
-0.202021 0.108454 1.64926 
-8.87625e-18 1.15704e-17 1 

-0.0944933 -0.129074 -0.537616 
0.131532 0.0270577 1.37825 
-8.22484e-18 -9.00774e-18 1 

-0.0874116 -0.0366201 -0.0872478 
-0.0509929 0.0124014 -0.0868359 
1.49197e-17 -2.53952e-18 1 

-0.690575 -0.135105 -1.54201 
0.0663878 0.125083 -0.774692 
2.19053e-18 -8.26777e-18 1 

-0.280572 -0.0823498 0.534065 
-0.249336 0.0951116 -0.425195 
-3.27047e-18 -8.31371e-18 1 

-0.109353 0.0856183 0.209064 
0.0236776 0.0130633 0.233803 
-4.2562e-18 7.72054e-18 1 

-0.0540586 -0.0165723 -0.0930307 
-0.035758 -0.0266502 -0.0586362 
-1.06722e-17 9.93477e-18 1 

-0.120364 -0.0185646 -0.888945 
0.0698918 -0.0273748 1.86319 
-4.9887e-19 8.82616e-19 1 

-0.118457 0.115123 -0.646785 
-0.0663424 0.0776457 0.622461 
3.72963e-18 1.36578e-18 1 

-0.463571 -0.147639 3.86986 
0.109271 0.241887 1.05603 
2.42207e-18 4.59793e-18 1 

-0.0541243 0.199876 -0.498945 
-0.150348 -0.0365518 0.618496 
3.72042e-18 -6.36072e-18 1 

-0.0417663 0.0354468 0.0412754 
-0.0721072 -0.0341106 -0.0239936 
-1.83378e-17 1.95513e-18 1 

-0.133632 0.00563708 -0.16323 
0.0585472 -0.0140428 -0.124536 
-7.56278e-19 -1.58683e-17 1 

-0.0244959 -0.0516731 -0.0847016 
0.080143 0.210996 0.417619 
-6.10322e-18 1.75484e-18 1 

-0.0579213 0.0218978 0.283513 
-0.0200177 -0.0147823 0.422012 
2.57469e-18 4.16053e-18 1 

-0.142745 0.0969594 -0.217785 
-0.075347 0.0602936 0.00741074 
-5.10626e-19 7.9963e-18 1 

-0.0386898 0.0203934 -0.431662 
-0.0363838 -0.0725852 0.000636551 
5.30026e-18 -8.38459e-18 1 

-0.0868957 -0.082855 0.039835 
-0.00959865 -0.125496 0.226427 
3.71283e-18 -2.17842e-17 1 

0.0206365 -0.307355 1.45702 
0.0970025 0.0520943 -0.241191 
1.00881e-17 -1.84015e-18 1 

-0.339011 -0.1343 -3.77336 
0.156869 0.259257 -2.30747 
2.84908e-18 -6.53e-18 1 

-0.0831058 0.288633 0.361151 
-0.115106 0.132668 -0.188068 
2.0428e-18 -4.93677e-18 1 

-0.112031 0.175543 35.1758 