# vtk DataFile Version 3.0
Output file generated by Yade's KinematicLocalisationAnalyser
ASCII
DATASET UNSTRUCTURED_GRID

POINTS 13483 float
456.184 53.3975 -0.428161
565.967 85.5798 -0.443837
106.779 6.01674 0.565049
588.971 23.8999 -0.235031
402.291 11.0658 0.344461
271.535 44.2074 -0.481816
136.063 6.96895 -0.499907
454.13 10.8001 0.127017
398.472 32.8635 -0.165274
537.368 25.3742 0.532836
185.255 8.96892 0.128835
226.698 6.54583 0.253945
490.223 60.105 0.141362
481.168 37.0268 0.094
120.256 21.944 -0.465342
194.644 40.5466 0.437751
191.893 13.3671 -0.294014
251.488 13.4999 0.450651
289.286 43.9586 0.430503
418.711 10.9302 0.460509
339.274 51.3526 -0.11051
438.353 70.6084 0.26986
591.168 62.0153 -0.451731
515.808 76.3815 0.463897
375.423 28.8377 0.315966
209.875 48.7091 -0.131479
393.417 40.0012 -0.504054
456.498 28.3646 0.288552
40.3523 18.7275 -0.5739
532.572 61.7781 0.329431
390.004 5.63965 0.515353
15.005 25.4553 0.303851
572.232 83.4001 -0.241097
401.475 2.44239 0.44945
71.0609 50.4859 0.11229
409.931 42.2187 0.371338
423.454 21.3298 -0.53157
293.959 29.6591 -0.195265
422.775 33.8477 0.322723
294.049 49.0409 -0.389458
214.002 15.6969 -0.369241
354.353 48.9145 -0.0665886
509.49 9.65811 0.164689
168.052 6.27216 0.343197
49.9209 7.53741 0.113504
59.839 9.33555 0.259965
520.684 10.1348 -0.595218
21.6531 13.0407 -0.306369
453.526 76.4648 0.298236
507.668 41.9428 0.351955
154.294 39.7871 0.287143
560.136 57.9612 0.127006
30.4949 31.6987 -0.109839
424.757 5.32297 0.324674
125.625 10.3205 0.559962
445.553 59.7873 0.414699
401.031 38.1281 -0.147041
153.479 1.01808 -0.33022
28.9647 2.39252 -0.335626
297.46 23.6949 0.264883
460.975 73.7217 -0.148331
371.479 51.349 0.183509
330.448 0.971893 0.200892
527.454 9.47899 -0.333172
21.981 48.7892 0.239521
224.132 37.3618 0.319341
539.803 19.4186 -0.285138
501.744 82.5653 0.351784
347.423 9.75774 -0.62354
455.33 4.06152 -0.670645
553.095 48.1638 -0.421819
117.265 8.12602 -0.455312
398.778 37.9954 -0.129805
386.453 19.4875 -0.0972371
256.748 22.0823 -0.393112
18.7844 14.601 -0.237432
574.784 62.3236 0.315107
283.054 51.1894 -0.284435
511.154 35.9619 -0.334751
520.209 22.1859 0.274818
587.985 15.0126 0.281587
373.655 51.2494 0.163377
85.4656 43.5157 -0.261119
512.8 64.4793 -0.237335
486.803 71.394 0.0965
592.951 70.1976 -0.101916
586.518 0.660711 0.691388
253.877 31.9782 -0.499678
486.367 18.2791 0.14628
22.4533 7.54466 0.694033
118.234 46.2264 0.137112
412.105 19.5615 0.261278
573.114 46.4762 0.524216
173.847 30.7358 -0.22905
38.3491 41.4906 -0.271671
400.841 0.908481 0.426257
209.46 9.12297 -0.439905
549.848 75.6975 0.259222
567.188 41.9367 -0.262327
305.075 35.0551 0.259716
146.778 32.4411 -0.446636
419.601 63.1626 0.413901
319.365 24.1536 -0.490777
342.332 38.5327 0.0928707
318.396 11.7469 0.481933
438.271 12.148 0.131202
594.154 30.1713 -0.184
73.3206 45.7091 0.391569
290.625 5.90971 -0.275803
448.916 9.16559 -0.452812
306.12 61.8583 -0.458396
22.9032 27.7264 0.56069
27.9222 6.49519 0.285622
437.82 43.5461 0.518505
402.137 31.6124 0.176457
21.7089 42.3577 -0.410612
83.6867 35.6653 0.225824
281.892 19.61 -0.282824
463.224 31.8145 0.121112
382.913 59.7142 0.298642
545.55 7.74639 0.541256
540.725 11.463 0.176848
328.119 52.8502 0.094694
481.696 53.2766 -0.0937356
211.657 19.995 -0.494725
287.487 3.82704 0.589163
91.547 35.3994 -0.304225
102.65 26.5824 0.318515
419.566 57.5583 -0.0770875
267.35 21.7856 0.564329
530.532 67.6649 -0.108234
506.343 79.9232 -0.107545
389.128 27.7783 -0.390926
576.102 16.8258 -0.333495
353.439 33.243 0.232792
243.934 33.1298 -0.305773
504.198 57.3099 0.337978
245.638 37.6968 0.431466
461.875 14.1295 0.257558
283.772 49.3409 0.206743
407.066 17.3626 0.487199
311.727 48.5334 -0.0839526
354.844 25.2291 -0.111754
270.154 57.9353 -0.440337
170.191 32.9964 -0.118354
569.254 90.6725 -0.149109
590.71 34.2668 0.279107
6.13308 13.007 -0.402712
358.968 32.6257 -0.446328
34.7761 26.5258 0.0888389
319.422 46.1576 -0.514457
333.661 31.2465 -0.266482
65.933 13.607 -0.44981
46.3177 38.7053 -0.436417
202.324 14.2771 0.517388
466.69 70.1615 0.381615
454.346 31.1946 -0.552747
66.8474 23.8851 -0.487785
520.043 74.8278 0.304559
566.169 2.30703 0.629699
493.233 81.8142 0.469617
525.558 1.83059 0.638751
432.465 39.4286 -0.434024
437.893 72.3609 0.447296
412.341 24.6157 -0.443615
596.494 12.3777 -0.225094
197.751 28.4665 0.1295
113.316 42.6373 0.188866
221.041 7.3612 0.468806
84.2516 5.00789 0.298136
56.5145 11.4938 0.195481
244.857 44.9621 -0.298599
15.8076 26.9871 -0.388985
442.186 25.942 0.441359
448.083 73.1001 -0.190669
379.917 36.6034 -0.423435
583.2 74.7213 -0.360981
340.607 9.76923 -0.11089
358.661 53.7922 -0.394598
431.854 3.31136 -0.255087
20.9829 23.9128 -0.461491
465.763 5.48165 0.56803
439.38 4.18867 0.425026
183.274 11.4952 -0.584481
355.856 17.5135 -0.209651
272.265 7.25096 0.411167
328.403 28.673 -0.400268
545.323 79.9663 0.111001
172.855 27.6786 -0.482881
580.139 9.11377 -0.496037
545.342 71.2984 0.335812
324.472 16.0793 0.200289
538.147 10.0397 0.654589
461.344 49.1148 -0.430643
552.5 27.0319 0.446781
351.566 61.3013 -0.264782
401.694 19.1198 0.517915
375.18 64.1901 -0.239734
370.56 18.9005 -0.153935
498.441 77.5162 0.260187
498.277 71.8908 0.310817
170.814 44.3155 0.329724
587.199 16.9415 0.109396
436.801 73.6361 -0.25094
9.77021 19.4302 0.169589
342.368 30.2245 0.452762
167.441 26.4891 -0.390199
86.3339 45.1776 0.202886
573.184 42.4462 -0.489166
490.243 84.3651 -0.220086
278.289 32.8095 0.388878
428.524 10.9593 0.45006
76.1643 51.9171 0.161362
219.337 29.4327 0.481229
441.062 30.3497 0.451227
393.613 30.4119 0.456034
235.291 0.917841 -0.421213
423.096 62.0759 -0.355424
414.019 67.8291 -0.430716
383.676 63.7654 0.390806
408.108 4.4381 -0.545421
528.392 34.5978 0.446217
158.384 15.9313 -0.186963
402.234 50.9744 -0.421454
427.829 65.4335 -0.114172
65.3371 0.909557 -0.33577
225.285 4.83798 -0.179244
590.716 36.2631 -0.144098
587.742 20.6163 -0.480403
595.899 39.444 0.598095
264.878 9.06901 -0.367733
555.074 34.3896 0.527109
343.507 67.1105 0.328068
372.305 1.52121 0.740953
492.121 68.3536 0.43733
23.8601 35.249 0.304577
283.642 60.5931 -0.481082
226.331 3.20321 0.440307
573.893 74.5873 0.175272
526.837 86.5538 -0.223509
253.18 14.2321 0.151022
502.087 60.3134 -0.0778976
450.713 2.52565 0.30129
437.609 7.36855 0.548553
86.5727 19.698 -0.498985
265.885 0.987977 -0.293278
299.064 3.05945 0.458298
13.0556 7.36744 0.667059
4.60723 34.8934 0.250241
143.906 21.5455 -0.346931
61.8227 48.8351 -0.212105
59.2594 32.6056 -0.31619
357.246 16.2904 -0.40551
314.956 52.3277 -0.462174
557.991 58.6733 -0.135243
18.8452 4.53031 -0.257507
62.9995 7.75081 0.126169
470.863 70.4176 -0.136362
257.686 0.886662 0.428023
310.719 25.1222 -0.0911166
211.633 4.81603 -0.400479
499.131 44.7027 0.204141
375.538 13.4712 0.491884
554.838 29.9623 0.458439
478.623 56.0335 -0.325657
511.701 32.0229 0.0744242
350.688 35.5348 0.480861
94.8022 51.0522 -0.306289
411.784 72.5754 0.0657197
551.093 21.6376 -0.265634
211.041 35.6855 0.248723
29.9142 19.1482 0.19069
293.528 15.63 0.606227
99.6896 46.3518 -0.463777
239.907 52.3639 -0.212236
360.602 1.01288 0.213452
572.691 59.2352 -0.419896
518.882 2.1014 0.732531
291.425 4.30122 0.496767
264.779 32.5351 0.143983
376.152 62.3548 -0.201377
73.0283 8.63795 0.62094
178.592 52.0323 0.379956
569.908 50.6168 0.382624
399.232 61.1563 0.065033
179.148 47.5856 0.263584
145.037 48.6576 -0.393266
597.495 60.386 0.407732
592.998 28.874 0.521691
487.743 8.5786 -0.473093
171.1 27.8533 0.103597
434.005 40.7348 -0.135577
435.742 39.6957 0.308712
344.98 6.67424 -0.141419
396.812 0.947472 -0.347752
557.399 62.1393 0.490585
75.9503 36.2156 -0.226546
505.107 37.2058 0.492764
240.517 19.5249 -0.3727
9.07956 2.31498 -0.40396
114.83 44.4881 -0.182833
59.9203 27.1271 -0.457705
525.885 61.775 0.311902
578.273 89.9536 -0.163265
166.405 31.5344 0.197919
587.271 30.4022 0.339768
40.1166 43.5512 -0.239536
81.9429 33.8254 0.152534
488.033 36.8154 0.46014
350.216 17.6803 -0.609937
419.581 21.7797 -0.121101
211.163 33.7343 -0.196019
485.379 22.4774 0.492743
595.724 28.9001 -0.378565
27.0368 37.0627 -0.267131
239.132 10.5063 0.214715
199.901 15.994 -0.251581
1.09706 39.4945 0.0380047
203.461 14.8362 -0.421314
189.474 11.4595 -0.137822
192.091 27.8426 0.266633
118.766 33.4537 0.118347
442.438 16.2328 0.452081
148.416 15.9296 0.397474
570.718 82.0438 0.14121
154.512 4.23722 0.49746
41.8177 44.4634 -0.349644
551.568 89.3009 -0.43887
250.64 40.7333 0.398606
511.987 41.5785 0.453377
579.634 59.0427 -0.517077
263.114 9.8307 0.148485
545.397 54.8909 0.348882
289.453 2.44822 -0.415725
347.934 29.6415 0.595918
510.794 21.3505 0.509425
95.9937 12.0157 0.499876
398.37 3.93203 -0.548031
557.679 27.2934 0.20253
79.6348 7.5559 -0.222434
248.403 18.6571 0.214722
357.624 13.7194 -0.289786
597.647 11.0433 -0.64994
335.347 1.91007 -0.600594
159.305 46.9833 0.261279
551.937 10.2952 0.301889
116.632 43.2915 -0.185513
232.32 40.3242 -0.370628
340.008 24.0075 0.231902
462.35 15.877 -0.429401
327.019 12.7198 0.541478
376.103 43.8304 -0.441178
566.004 87.027 0.130248
42.8004 12.712 -0.116165
261.733 45.3131 -0.270249
322.714 38.1193 -0.425065
346.237 21.8077 0.291257
409.211 65.9666 -0.385007
553.986 64.0066 -0.200128
501.096 70.8509 -0.347524
200.926 38.5978 0.419454
11.3609 35.2959 0.149372
496.567 74.7513 0.121316
400.277 72.5247 -0.450164
203.576 43.9736 -0.0936016
515.262 55.8923 -0.109873
133.97 10.1284 0.200904
311.663 33.6679 0.297939
377.309 64.3117 0.10192
350.437 21.5541 0.189359
563.468 82.8613 0.299812
361.118 3.45452 0.494781
43.7028 31.2567 -0.28443
385.412 52.0951 0.364666
354.805 63.4871 0.365994
569.513 69.6048 -0.2363
541.617 59.7256 -0.241391
437.168 19.811 -0.197938
565.669 69.7356 -0.42014
257.484 2.12715 -0.473904
323.776 40.7951 -0.541296
24.1155 43.7832 -0.293984
546.342 52.0923 -0.138471
467.376 39.9119 -0.489351
379.909 0.764208 -0.579138
114.594 5.52142 -0.342408
354.307 57.0032 -0.0935076
11.4231 0.892762 0.324665
596.327 9.65553 -0.194518
319.67 58.4789 0.399078
[...]
POINT_DATA 13483
TENSORS Strain_matrix float
-0.579626 -0.505339 -0.177252 
-0.171165 0.429658 1.05927 
-4.43165e-18 4.70166e-18 1 

-1.27972 0.153998 -11.3657 
0.617644 0.981819 -4.46721 
6.29811e-18 4.70789e-18 1 

-0.263895 -0.0672522 -6.41717 
0.0755729 0.0675606 1.75366 
3.65594e-18 -1.05677e-17 1 

-3.69117 -2.35663 -4.72576 
1.65429 1.86042 2.24563 
-3.68561e-18 1.00433e-17 1 

-1.37151 -1.15665 0.632872 
0.723671 0.873496 -0.617865 
-1.1932e-17 -1.86524e-17 1 

-0.603754 -0.449385 7.69347 
0.315049 0.334505 -2.443 
2.91532e-18 -2.35194e-18 1 

-0.244307 0.186862 -2.26441 
-0.0486817 -0.0788796 -1.11859 
1.46744e-17 -2.22603e-17 1 

-0.311135 -0.18966 -0.631066 
0.173722 0.0141019 -0.545492 
3.80299e-18 9.6248e-18 1 

-0.971371 0.75627 2.47786 
-0.499399 0.695547 -0.379431 
6.64975e-18 8.83774e-18 1 

-0.864881 -0.538479 0.365075 
-0.275644 0.0153633 0.904102 
1.91007e-17 -2.34969e-18 1 

-0.134917 -0.103598 0.0110205 
0.0877004 -0.00778843 0.17207 
2.77745e-18 7.08251e-18 1 

-0.348338 -0.104894 0.309013 
0.00977826 0.00144458 0.366429 
9.59997e-19 4.15999e-19 1 

-0.0887687 0.00617838 -0.376939 
-0.553957 -0.0109893 -0.145398 
-1.42542e-17 -4.14861e-19 1 

-1.59956 -0.654975 1.07574 
0.299891 0.684581 -0.239341 
-8.67483e-18 -4.84177e-18 1 

-0.227557 0.0629219 -4.29367 
-0.00201762 0.0522724 5.56787 
1.09409e-19 -6.2819e-18 1 

-0.482666 0.299836 0.839975 
0.0203877 0.262902 -1.55306 
-1.77001e-18 4.95153e-18 1 

-0.0809774 -0.0816699 0.248265 
0.0626972 -0.112957 0.0373272 
-1.1664e-18 -7.51681e-18 1 

-0.454658 0.0869311 -1.70791 
-0.113577 0.171599 -0.0426743 
-7.08871e-18 3.00051e-19 1 

-0.37552 -0.379465 1.80556 
-0.231555 0.0925924 0.296535 
-1.68006e-17 5.50463e-18 1 

-1.11445 -0.726836 -0.580772 
0.36755 0.44382 0.298485 
2.34946e-18 -1.11397e-17 1 

-1.60618 0.402161 -3.17473 
-0.00447756 0.457255 0.608069 
5.55515e-19 1.05109e-17 1 

-0.925998 -1.2506 5.34208 
0.951068 0.975585 0.428386 
-4.3436e-19 2.1718e-18 1 

-0.905137 -0.0324803 2.46096 
-0.386984 0.503828 2.23141 
-6.01899e-18 -1.30447e-18 1 

-1.60634 0.351457 1.61844 
-0.31933 0.870165 17.4745 
-2.70299e-18 -8.26644e-18 1 

-0.172822 0.209024 -2.2278 
0.381211 0.267747 0.164588 
9.17034e-18 9.86808e-18 1 

-0.0840268 -0.317412 0.402178 
0.299821 0.0591646 -0.221935 
-8.36103e-19 -4.92081e-18 1 

-0.878467 0.0318063 2.58622 
-0.158764 0.462005 1.55696 
-3.36418e-18 2.9593e-18 1 

-1.38811 -0.418997 2.32988 
0.0371572 0.618815 1.77069 
1.61794e-17 1.80378e-18 1 

-0.321835 0.0640009 0.969999 
0.0827302 0.155078 -3.21562 
1.29241e-17 -4.00575e-18 1 

-2.04722 -0.960762 -1.71375 
0.243843 0.88293 -1.40019 
-1.2084e-17 6.14201e-18 1 

-0.316964 0.123561 0.231804 
-0.278009 -0.252838 -0.252687 
-2.27317e-17 6.89665e-18 1 

-0.0468582 0.348318 -0.135771 
-0.271898 -0.112738 -0.136557 
-6.40028e-18 -4.3159e-18 1 

-0.776792 0.536704 -1.34894 
-0.471922 0.260698 -0.707108 
-8.54246e-19 -1.20056e-17 1 

-0.612806 -0.387174 -0.471771 
-0.0446659 0.322471 -0.266307 
-2.15019e-17 -5.78551e-18 1 

-0.120137 -0.229041 -0.418362 
0.297712 0.0720994 0.394087 
-4.99616e-18 2.5906e-18 1 

-0.769504 -1.03789 -0.238595 
0.279153 0.322305 0.727334 
-5.81948e-18 -8.112e-18 1 

-0.560779 -0.0954224 -0.322785 
0.0238198 0.250247 2.9286 
6.53039e-19 1.25302e-17 1 

-0.474815 -0.373847 0.236915 
0.431993 0.263467 0.0369864 
-6.70673e-18 1.65352e-17 1 

-0.655959 -0.734634 -0.949109 
0.300836 0.386825 1.265 
4.73637e-18 1.93115e-17 1 

-0.471033 -0.0707853 2.6109 
0.641888 0.33506 -1.98873 
3.19889e-19 2.35918e-18 1 

-0.173033 -0.112185 0.683603 
-0.126316 0.00229974 1.11915 
-1.0274e-17 -2.41804e-20 1 

-0.681248 -0.791005 -0.597521 
0.417153 0.151338 -2.85889 
-1.84022e-17 4.26885e-18 1 

-0.409436 -0.529827 -0.295435 
0.304715 0.175774 -0.080042 
1.0506e-17 1.31657e-17 1 

-0.197906 -0.0565794 -0.192158 
-0.0190624 -0.075906 -0.0956046 
-9.40807e-18 1.66298e-17 1 

-0.321026 0.0030577 0.316064 
0.0633456 0.0737695 0.503386 
-1.30465e-17 -1.06013e-18 1 

-0.132104 -0.105487 0.0269008 
0.0318872 -0.055045 0.00690454 
-3.02198e-18 1.07232e-18 1 

-1.24589 -0.486428 -1.66963 
0.145023 0.363143 2.12773 
-1.64047e-17 3.01464e-18 1 

-0.0127965 0.051888 -0.0778081 
0.155733 -0.177376 0.0775422 
9.89229e-18 7.28241e-18 1 

0.194034 0.738499 -0.405983 
-0.757398 0.165642 0.746295 
1.29655e-17 3.61828e-18 1 

-1.91079 -1.07698 2.22057 
-0.189622 0.549812 -0.671376 
2.73676e-18 -8.5872e-18 1 

-0.321006 -0.0830847 -0.569738 
-0.105649 0.263642 -1.15637 
5.13215e-18 3.18273e-18 1 

-1.15609 -0.0934934 3.84422 
-0.0297121 0.338723 0.8937 
7.35685e-19 8.27646e-18 1 

-0.194242 -0.0197584 0.52428 
-0.0491409 0.129103 -0.0688541 
1.20315e-17 -1.47755e-18 1 

-0.921663 0.360049 1.10482 
-0.235972 0.249492 -0.649055 
-1.39702e-17 3.18189e-17 1 

-0.348959 0.17431 -2.44146 
-0.0165636 -0.0338907 -6.65761 
-3.29988e-18 1.58119e-18 1 

-1.73385 -0.302757 -7.19255 
-0.0912618 0.652292 -4.2799 
-6.22164e-18 -2.14348e-17 1 

-1.06701 -0.496817 0.101475 
-0.0559633 0.414056 0.326264 
-1.37828e-17 1.24453e-17 1 

-0.390164 0.124718 1.69679 
0.205861 0.319381 0.429826 
4.74419e-18 4.07227e-17 1 

-0.110476 0.0724054 -0.509214 
-0.0873141 -0.0747281 -0.607352 
2.03387e-17 -1.03007e-18 1 

-0.383489 -0.547361 0.10269 
0.723413 0.320142 -0.387106 
-7.64446e-18 9.36194e-18 1 

-0.421526 -1.33602 0.0824397 
0.48018 1.07564 -1.50726 
4.06291e-18 -7.15585e-18 1 

-1.03118 0.044928 -0.724592 
-0.428718 0.513928 -0.97942 
-8.16559e-18 -1.49613e-18 1 

-0.121359 -1.42759 -1.15078 
-0.0307732 -0.316952 0.305774 
3.76788e-18 -9.40367e-17 1 

-0.705816 -0.2348 2.73908 
0.522999 0.418295 0.0342535 
-3.551e-18 -1.06329e-18 1 

-0.353208 -0.217964 0.436788 
0.00494081 0.0795938 0.491435 
1.81735e-19 5.56565e-18 1 

-0.441616 -0.191836 -0.199102 
-7.54146e-05 0.255943 0.522952 
9.14162e-19 5.53962e-18 1 

-0.21958 0.322349 -0.281659 
-0.439403 -0.0875478 0.383741 
8.9606e-18 2.75352e-18 1 

0.0410539 0.433066 -0.3329 
-0.479795 -0.0251537 -0.158224 
-1.22675e-17 1.41131e-18 1 

-0.228952 0.173348 -2.65993 
-0.160885 -0.0553878 7.9905 
2.12161e-19 4.85125e-18 1 

-0.434295 0.109957 -1.49516 
-0.00096489 -0.0703823 -3.04656 
-2.78024e-18 3.00266e-18 1 

-2.59679 0.0440432 -1.44984 
-0.185943 0.69258 -0.566464 
-1.06058e-17 -5.88045e-18 1 

-0.524071 -0.27421 0.215986 
-0.0727139 0.0538984 0.0809557 
-6.72102e-18 2.17245e-17 1 

-1.04464 -0.540892 1.70082 
-0.145336 0.356087 -1.1182 
-5.79725e-18 2.86445e-19 1 

-1.59714 -0.431216 -1.80252 
-0.352817 0.418846 -0.542543 
-8.6981e-18 4.1695e-18 1 

-0.322022 0.103911 -0.917977 
-0.160149 0.156747 0.752713 
-1.44107e-17 -7.40439e-18 1 

-0.0552106 0.0246375 0.098424 
-0.0209926 -0.100912 -0.0723758 
2.75828e-18 -2.41349e-18 1 

-0.500417 0.0242376 -2.60014 
0.09876 0.435778 1.24305 
-2.0809e-19 2.73118e-18 1 

-0.582306 -0.0124592 2.276 
0.084716 0.00834947 0.0888952 
1.19524e-17 -1.21938e-17 1 

-2.26316 -0.850542 1.73887 
0.097647 0.99276 0.630289 
-1.26067e-17 -1.43455e-17 1 

-1.2205 -0.16605 -1.82495 
-0.0189142 0.421527 -1.01115 
-1.10726e-17 9.69378e-19 1 

-1.78392 -1.56414 -3.97349 
0.427652 0.753378 0.803242 
4.98705e-18 9.35072e-18 1 

-0.307228 -0.332036 -0.843878 
0.153086 0.280086 -0.956604 
7.05076e-18 -1.39446e-18 1 

-0.0976494 0.240092 0.0538961 
-0.133525 0.031331 0.711297 
4.33448e-18 1.55829e-17 1 

-1.49469 -0.0526224 -3.72969 
0.15201 0.482713 0.59882 
-1.12951e-17 1.21438e-18 1 

-0.23846 -0.327517 -0.943579 
-0.177812 0.0543516 0.621662 
-5.2209e-19 -7.24016e-18 1 

-0.407769 0.0825343 -2.84221 
-0.00259671 0.33034 -0.414271 
-6.81982e-18 -6.42618e-18 1 

-0.80366 -3.89175 7.73955 
0.0290928 0.232888 -1.66514 
-3.80091e-18 -1.45521e-16 1 

-0.372764 -0.015868 1.02138 
-0.020385 0.184368 -10.521 
-2.22732e-18 -1.27381e-17 1 

-1.39915 -1.01363 1.90481 
0.724114 0.879638 -1.33915 
1.19661e-17 2.46226e-17 1 

-0.279929 0.0993854 20.8689 
-0.0065246 0.156429 24.2885 
9.02748e-19 -4.80086e-18 1 

-0.30933 0.5827 0.947825 
-0.410593 0.283012 1.26248 
-1.13501e-19 5.44803e-18 1 

-0.456682 0.194407 -0.583145 
-0.150312 0.267583 -0.441347 
-1.16713e-17 5.15356e-18 1 

-1.36277 -0.811763 2.36554 
0.3779 0.510686 1.06868 
6.86117e-18 8.13817e-18 1 

-0.439076 -0.126293 0.324146 
0.0483821 0.340196 -1.28481 
-1.52013e-17 -1.84299e-17 1 

-0.0940013 0.0604856 -1.18046 
0.0355298 0.0157039 5.32365 
-8.13207e-18 5.05263e-18 1 

-0.485157 3.78451 -5.09739 
-0.0342924 -0.102521 -0.609693 
-1.0814e-17 -8.84123e-18 1 

-0.157494 0.0575835 0.33045 
0.00281354 -0.0449816 0.0367301 
-9.7991e-18 5.99515e-18 1 

-2.44499 0.120555 -0.836181 
-0.00245028 0.48661 0.477644 
-2.27604e-18 -2.06006e-18 1 

-1.66892 -0.772097 2.3582 
-0.203276 0.529159 5.61611 
-7.064e-18 -2.71207e-18 1 

-0.149228 -0.787993 -0.0822559 
0.740625 0.40633 0.0738413 
-8.58674e-19 2.86613e-19 1 

-0.269643 0.170015 1.34171 
-0.0609388 0.0968378 0.16627 
2.10718e-17 -8.82127e-18 1 

-1.90239 -1.4084 11.2178 
0.261018 0.565716 -1.34421 
-7.62541e-18 -4.63504e-18 1 

-0.760663 -0.0318819 -2.6223 
-0.196141 0.229644 2.02024 
-4.54065e-18 3.6887e-18 1 

-0.974432 0.224207 0.2066 
-0.461246 0.612043 0.863462 
-1.3903e-17 1.48867e-17 1 

-0.186229 1.20884 2.5644 
-0.729029 0.67425 -0.813561 
2.94141e-19 -2.05898e-17 1 

-0.41251 -0.535446 -1.4883 
-0.140616 0.139082 -0.102252 
1.74152e-17 -6.89711e-18 1 

-0.819768 -0.480926 0.200285 
0.23616 0.340499 0.561754 
2.15346e-17 -5.86459e-18 1 

-0.277827 0.203886 -1.13199 
-0.031415 0.201316 2.73441 
-3.4734e-18 -6.88393e-18 1 

-0.357577 -0.245601 0.389151 
0.204394 0.0530895 0.239527 
-1.79706e-18 -7.18826e-19 1 

-0.27035 -0.0985602 0.215221 
-0.102022 0.11545 -1.03953 
3.89211e-18 -9.63759e-18 1 

-0.308771 -0.0798719 11.5034 
0.0772862 0.289824 -28.7891 
-3.32786e-17 1.08327e-17 1 

-0.252568 -0.0735413 -0.608021 
0.0768006 0.210765 14.335 
-3.73397e-18 -2.01741e-18 1 

-0.274673 0.411807 -0.0166105 
-0.284244 0.13032 -0.0202065 
-1.12155e-17 -1.77492e-17 1 

-2.16958 -3.14392 12.9212 
0.0554396 0.782289 5.78947 
5.00712e-18 4.86803e-18 1 

-0.898986 0.088868 0.640656 
0.112145 0.522348 -0.753766 
-9.82936e-19 -7.52765e-18 1 

-0.160924 -0.145695 -1.66352 
-0.0246845 0.10518 -1.14622 
-3.14701e-18 -2.89322e-18 1 

-0.23661 -0.0969477 0.526448 
-0.426722 0.0438809 0.161683 
3.5757e-18 1.65032e-18 1 

-0.573534 -0.292963 -0.236633 
0.23611 0.388039 0.80246 
3.97811e-18 5.25466e-18 1 

-2.1452 -1.44535 -4.29098 
-0.50442 0.742421 -1.41523 
3.38026e-18 -2.53519e-18 1 

-1.1784 -1.28951 -6.77039 
0.626336 1.00987 5.40437 
3.27069e-18 6.90478e-18 1 

-0.726725 0.53146 -0.0123849 
-0.719909 -0.0477788 0.0258954 
7.04048e-18 2.53576e-17 1 

-3.13624 1.2539 -1.59873 
-1.8709 1.52314 0.351984 
9.67233e-18 1.71719e-18 1 

-1.31011 -0.257393 -3.67421 
-0.27892 0.572142 1.02085 
-3.56101e-18 7.23072e-18 1 

-0.0781403 -0.901808 -1.10678 
0.43956 0.335603 -1.10317 
-6.71705e-18 -2.80842e-18 1 

-0.39738 -0.370595 0.576724 
0.0934866 0.23882 3.68429 
1.58248e-18 6.30207e-18 1 

-0.301354 -0.0218575 -1.57139 
0.093083 -0.0941877 2.01748 
-2.22573e-18 6.05958e-18 1 

-0.298702 -0.314605 -0.930295 
0.123893 0.172094 -0.343118 
1.30355e-17 -5.009e-18 1 

-0.385957 -0.117612 1.98634 
-0.184993 0.183099 -0.109695 
-2.41487e-18 1.29312e-17 1 

-0.987355 0.677924 -2.46945 
0.260676 0.396724 -0.25433 
-1.33058e-17 -1.84436e-18 1 

-0.307348 0.132891 -3.48105 
-0.0882773 0.154571 5.47349 
7.34915e-18 -2.9957e-18 1 

-2.09196 -0.925899 5.00521 
0.889293 0.762939 1.47536 
3.31454e-18 -2.19344e-18 1 

-0.237737 0.340801 0.549697 
-0.122778 0.196268 -0.865149 
-2.417e-18 1.38114e-18 1 

-1.28927 -0.793647 -0.900954 
0.467552 0.655936 1.44826 
9.94489e-19 -8.45315e-18 1 

-0.913815 0.437045 0.0394975 
-0.101015 0.366102 -0.496879 
1.01455e-17 -8.78271e-18 1 

-0.5131 0.363001 1.1764 
0.137623 0.124298 -0.732277 
-1.3549e-17 -1.05728e-17 1 

-0.3412 0.255581 0.230128 
-0.173364 0.205262 0.394554 
-1.07419e-18 4.99353e-18 1 

-0.858854 0.0791135 1.67058 
-0.625795 0.498743 0.115782 
8.27031e-18 -4.83068e-18 1 

-0.306035 0.0873537 0.00967544 
-0.15687 0.154743 -0.877295 
-4.52267e-18 1.82917e-18 1 

-0.100161 -0.732192 2.25981 
0.317564 0.00345948 0.434049 
6.83309e-18 -1.38042e-18 1 

-0.149967 -0.418388 -0.12418 
0.055116 0.100444 -0.64673 
2.88045e-20 1.34805e-17 1 

-0.776782 -0.0527335 -0.112768 
0.0955405 0.341562 -1.00127 
4.1085e-18 -9.92081e-18 1 

-0.056417 -0.0274025 -0.0555206 
0.0656819 -0.0204191 0.0908367 
-1.23412e-18 2.85538e-19 1 

-0.736992 -0.0540023 -1.08442 
0.608202 0.47377 1.75613 
-1.33076e-17 -1.13454e-18 1 

-0.707941 0.500716 -42.5233 
0.0636626 0.322721 -10.7561 
-3.6642e-18 -4.80968e-18 1 

-0.287797 0.391793 -0.0559068 
-0.0715631 0.149638 -0.302875 
-5.18553e-18 -2.51166e-18 1 

-0.32764 -0.379718 -1.23525 
-0.00349515 0.382695 1.67305 
-5.35268e-18 -4.57795e-18 1 

-0.993642 0.634338 -1.60097 
-0.208551 0.358567 -0.507118 
-8.1246e-18 1.34649e-17 1 

-0.223675 -0.029658 0.755029 
0.0179244 0.00844084 -0.109461 
-1.1245e-17 -1.10824e-17 1 

-0.48405 0.0642604 1.25425 
-0.0167577 0.111598 0.404489 
-4.60156e-18 2.81781e-18 1 

-0.0702428 -0.14345 0.379438 
0.0370149 -0.0398537 0.0162915 
-6.03182e-20 5.64981e-18 1 

-0.464003 0.0177746 -6.69826 
-0.130877 0.195858 8.08901 
1.16195e-17 5.09271e-18 1 

-0.641256 0.382344 2.01573 
-0.371961 0.360074 -1.13575 
3.44789e-18 4.44454e-18 1 

-0.344875 -0.0315179 -2.36147 
0.158319 0.0327 -0.381864 
2.26775e-18 -1.92759e-17 1 

-0.210211 0.000581127 -1.47979 
0.0624018 0.0684342 9.1299 
2.80382e-19 3.89029e-18 1 

-0.11464 0.0610928 -4.37142 
-0.0390598 -0.00226701 2.50337 
-3.67514e-19 -9.10796e-18 1 

-0.849055 -0.308851 -7.17749 
0.441588 0.482474 -3.97637 
1.29061e-17 7.64557e-19 1 

-1.41324 -1.33219 6.15691 
0.368886 0.505723 -12.1591 
-3.78216e-18 4.27018e-18 1 

-0.262955 0.116813 3.39016 
-0.12208 0.114334 6.52244 
-2.35179e-18 -3.84726e-18 1 

-1.50372 0.158013 -6.66521 
-1.43901 0.701113 -1.3773 
2.16142e-18 -2.73554e-18 1 

-1.90916 1.46695 -0.961952 
0.140961 0.543313 -1.10781 
2.21161e-17 4.33886e-18 1 

-0.319473 -0.593464 33.6922 
0.0501317 0.480507 1.88901 
-2.67444e-18 5.3892e-18 1 

-0.833432 0.728219 -11.7071 
0.351928 0.284869 1.23678 
1.50585e-17 1.52455e-17 1 

-1.24618 -0.721053 2.96604 
-0.367346 0.366925 -1.12455 
-3.2086e-18 1.0116e-17 1 

-1.63597 -0.69224 49.9921 
0.472885 0.930136 9.4722 
5.1256e-18 -2.43927e-18 1 

-0.619653 -0.587009 -0.0394414 
0.248122 0.269428 3.35383 
-1.66824e-18 6.87395e-18 1 

-0.951893 -1.78187 1.05308 
1.32449 0.932541 -0.325467 
2.02362e-17 -6.83654e-20 1 

-0.217837 -0.804563 0.321669 
0.471568 0.498844 0.209464 
-1.01935e-17 3.07422e-18 1 

-0.608014 0.766043 0.601422 
0.15578 0.34793 0.680957 
6.38217e-18 5.11372e-18 1 

-0.331916 0.0589706 0.164536 
-0.0121618 0.0797862 0.618606 
-5.52921e-18 1.30718e-17 1 

-0.355471 -0.274302 0.0906036 
0.144538 0.060459 -1.28775 
-1.0334e-17 2.83875e-17 1 

-0.285928 -0.0280831 0.183875 
-0.129911 0.0947655 -0.320135 
-1.1918e-18 3.88438e-18 1 

-0.134458 0.326999 0.475707 
-0.227035 0.0918943 0.18418 
-1.12497e-18 3.70194e-18 1 

-0.234602 0.307517 0.395152 
-0.144002 0.0566851 -1.03152 
-9.82309e-18 -8.57112e-18 1 

-0.654879 -1.0992 1.4026 
0.00778537 0.310077 -1.86109 
5.38575e-18 -1.02357e-18 1 

-1.6012 -0.647391 -4.69192 
0.0447383 0.775971 -0.138545 
2.32232e-18 -6.57721e-18 1 

-0.863922 -0.242658 2.20992 
-0.0736955 0.368741 4.65063 
8.1999e-18 -8.13041e-18 1 

-0.996316 0.108144 2.1595 
-0.13383 0.472707 1.06417 
-8.2842e-18 -1.42015e-17 1 

-0.0904424 0.041854 0.0693094 
-0.0137381 -0.0594237 -0.057701 
-3.12645e-19 6.72224e-18 1 

-0.792037 -0.573349 1.96241 
0.385718 0.505443 -1.39844 
-9.23067e-18 -1.13225e-18 1 

-0.266663 -0.135545 -0.507643 
0.0943626 -0.0705058 -0.116135 
1.10496e-17 -5.59845e-18 1 

-0.308648 0.139834 1.24906 
-0.015766 0.26188 -1.0238 
-2.53394e-18 4.61306e-18 1 

-1.14999 -0.314686 -0.0459229 
0.0290134 0.337582 0.345313 
2.63407e-17 4.63745e-18 1 

-0.654731 -0.0381709 -0.759017 
-0.205932 0.171518 -0.385442 
3.19111e-18 2.16357e-17 1 

-0.163327 -0.0661067 -1.8952 
0.0873993 0.00145032 -1.1367 
1.02766e-17 -2.40574e-18 1 

-0.193374 -0.79616 0.403257 
0.796615 0.715083 -0.129765 
9.47151e-18 1.75104e-18 1 

-0.224085 0.0414443 -0.035596 
-0.130819 -0.0743725 0.236923 
-3.26276e-18 -1.97125e-18 1 

-0.453171 -0.256706 0.602128 
-0.454958 0.22171 0.582488 
8.71483e-18 -1.41361e-18 1 

-0.975128 -0.237828 -2.33365 
0.248935 0.317318 1.82365 
1.08874e-17 7.05821e-18 1 

-0.2771 0.142918 2.02351 
-0.284606 0.174646 -2.93394 
4.05521e-18 -2.18797e-18 1 

-0.562439 0.342721 -0.362811 
-0.267438 0.149154 -0.659557 
1.26116e-19 -2.64843e-18 1 

-1.73645 -1.21011 2.0998 
0.0826959 0.476973 -0.352164 
-1.2248e-18 -9.47176e-18 1 

-1.61004 0.255717 -2.66995 
-0.641231 0.568534 -0.654677 
-7.7477e-19 -2.37993e-17 1 

-2.61727 0.953842 3.37112 
-0.674057 1.2518 1.17677 
1.61794e-18 -8.65008e-18 1 

-1.1213 -0.273199 -5.19451 
-0.450907 0.496531 1.08843 
9.54237e-18 -4.10524e-18 1 

-2.10432 -0.312206 -0.381077 
-0.947296 0.749585 -0.689727 
9.35263e-19 -1.97203e-18 1 

-0.643478 -0.963708 -2.91577 
0.823303 0.655976 -0.611255 
-1.59591e-18 6.79635e-18 1 

-0.148087 -0.847848 4.60007 
0.409715 0.131613 -1.95912 
2.57713e-18 -9.36731e-18 1 

-0.261067 -0.511473 -1.64977 
0.637033 0.658159 -1.4493 
-7.14797e-18 -2.19952e-17 1 

0.0811193 -0.168211 -0.159306 
0.673309 -0.264836 -1.24979 
1.37304e-17 8.01085e-18 1 

-0.420626 -0.264444 0.182187 
-0.279467 0.193077 0.901577 
-2.84723e-18 6.09914e-18 1 

-1.25946 0.244143 2.55237 
-0.460026 0.75822 0.651435 
-8.98053e-19 -7.10958e-18 1 

-0.354429 0.0988223 -0.465717 
0.721861 0.421357 -0.225369 
5.15654e-18 5.41436e-18 1 

-2.01052 -0.407315 -6.37712 
0.567664 0.77181 0.356406 
8.95502e-18 -1.52934e-17 1 

-5.77534 0.517477 4.25064 
0.0218294 1.28141 -1.18296 
-4.69212e-20 -1.90944e-17 1 

-0.250986 -0.0834811 -0.476375 
0.0849633 0.0331775 0.491802 
1.01542e-17 4.27067e-18 1 

-1.08298 -0.25858 -0.345193 
0.0305794 0.40844 1.01638 
6.41876e-19 4.85104e-19 1 

-0.155219 0.0673763 1.30754 
0.0184716 0.0490236 0.900808 
6.9606e-18 2.83744e-19 1 

-0.206219 0.153184 -0.715825 
0.0799638 0.0398833 0.598039 
-5.59197e-18 5.20596e-18 1 

-0.988931 -1.06887 5.73737 
0.330243 0.741708 -3.4469 
-9.16085e-18 2.47794e-18 1 

-0.341464 -0.0440715 -1.52079 
-0.311307 0.156727 0.126084 
1.01529e-17 1.96966e-17 1 

-0.224345 -0.101664 1.9538 
-0.024157 0.257635 2.66966 
-3.95944e-18 6.06401e-18 1 

-0.793673 0.0617698 -1.04633 
-0.547874 0.295708 -1.36212 
-5.1625e-18 1.19079e-17 1 

0.0261047 0.112673 -0.544801 
-0.105324 -0.72015 1.06401 
9.13101e-19 -2.44926e-17 1 

-0.216672 0.0946321 -1.05053 
0.0417716 0.152048 4.08229 
-7.64497e-19 2.22161e-18 1 

-0.794539 -0.881288 9.07701 
-0.107163 0.235433 2.10478 
3.24593e-18 -8.96936e-18 1 

-0.65019 0.387065 -0.930849 
-0.230707 0.543849 -0.137994 
-6.54333e-18 1.17074e-19 1 

-0.379899 2.90167 4.92996 
0.0150061 -0.0142243 0.202154 
5.59076e-18 1.32662e-17 1 

-2.23355 -0.726756 6.61238 
-0.491946 0.71627 1.42454 
-2.81392e-18 -5.43824e-18 1 

-1.1827 -1.71458 -17.2285 
0.31711 0.872113 -0.5505 
-1.5937e-18 6.50604e-18 1 

-1.32505 -1.04268 -0.519652 
0.722488 0.80408 1.9198 
7.6791e-18 -2.14322e-18 1 

-1.1913 -1.33369 0.845907 
0.478469 0.582381 1.57244 
-3.29409e-19 3.13762e-17 1 

-1.1114 0.286066 3.14474 
0.958045 0.371294 1.14317 
-1.86663e-17 -1.80542e-17 1 

-0.110752 -0.156851 1.45932 
0.0829553 0.364862 -0.0257071 
-6.39439e-18 1.42064e-18 1 

-0.889734 0.194729 -2.84633 
-0.132951 0.481304 -0.100926 
-3.54475e-18 3.62441e-18 1 

-2.56293 -2.41054 -6.40508 
0.105682 0.426066 -0.157742 
1.93935e-18 -4.35755e-18 1 

-0.235933 -0.127786 0.0833986 
0.0374177 0.0607845 0.157094 
-9.4024e-18 1.16437e-17 1 

-0.19397 -0.251977 0.640816 
0.04441 -0.0949841 0.406625 
1.2026e-17 8.43154e-18 1 

-0.327871 0.0695436 -0.0526909 
-0.114646 -0.0475765 0.398279 
-4.00596e-18 2.209e-17 1 

-1.83621 -2.11205 -4.91635 
0.836795 1.21665 -0.388623 
4.15633e-18 -1.02443e-17 1 

-0.296692 0.0152415 36.6772 