# vtk DataFile Version 3.0
Output file generated by Yade's KinematicLocalisationAnalyser
ASCII
DATASET UNSTRUCTURED_GRID

POINTS 13483 float
492.082 50.192 -0.474266
605.055 83.1515 -0.459937
112.546 6.17663 0.515255
629.794 23.9997 -0.235337
432.396 9.50136 0.366747
287.519 41.9571 -0.458233
144.344 7.32624 -0.477969
486.307 10.9946 -0.116031
428.403 29.925 0.152512
574.797 24.1705 0.519257
194.227 8.91615 0.138598
236.844 6.66176 0.269251
527.634 56.3041 0.134444
517.192 35.3241 0.0969729
126.997 19.7021 -0.472514
203.709 38.6702 0.402603
201.101 13.1811 -0.292597
264.732 11.8619 0.425882
308.464 40.3145 0.43494
449.926 9.86389 0.421541
364.565 47.6847 0.0985785
473.496 67.7425 0.288522
630.187 60.2139 -0.428499
553.471 73.9059 0.436888
401.795 25.8944 0.323236
221.296 46.6122 -0.13684
422.725 35.8627 -0.476024
490.653 27.128 0.257347
42.995 18.027 -0.613352
571.616 58.6724 0.341438
418.276 5.85885 0.458322
15.2442 24.8124 0.297436
612.962 80.2989 -0.240028
429.989 2.42381 0.496504
74.6984 48.5811 0.103261
442.283 39.11 0.365774
454.351 20.3805 -0.535022
311.453 27.1348 -0.200001
455.483 31.9962 0.317638
314.697 45.2766 -0.389768
222.925 15.0572 -0.309447
380.647 46.0018 -0.0741888
545.486 9.80327 0.205675
177.078 6.22054 0.354983
50.9803 7.35984 -0.0975624
62.7601 8.88341 -0.229725
556.667 10.2291 -0.588765
22.3246 12.2466 -0.288536
489.526 72.8493 0.359783
544.88 39.2926 0.340784
161.237 37.4184 0.279583
599 56.348 0.123188
32.2853 30.1003 -0.119116
457.264 4.69136 0.49887
132.265 8.5904 0.561501
481.225 56.8324 0.362871
432.423 34.0184 0.173797
162.111 1.01856 -0.329747
30.5536 2.41774 -0.315957
315.44 22.3293 0.277735
496.801 70.5261 -0.141271
400.677 47.32 0.176253
354.132 1.02921 0.205148
563.932 9.12824 -0.464251
24.469 46.3797 0.237608
236.052 35.4348 0.29251
576.998 18.0958 -0.248221
539.334 78.8989 0.331054
371.78 9.01852 -0.680901
487.378 4.12948 -0.675028
592.133 45.9556 -0.40158
123.01 8.03031 -0.366332
428.565 35.1063 -0.14773
414.784 18.4706 -0.141315
270.283 20.7128 -0.430895
19.4733 13.8767 -0.242705
614.208 60.6526 0.324926
303.021 48.2266 -0.277623
546.138 33.5914 0.371539
557.235 21.7158 -0.216433
628.735 15.1839 0.250033
402.821 47.2636 0.167604
88.8374 42.1505 -0.260553
550.487 61.6652 -0.226357
523.869 68.232 0.0955261
633.794 67.5706 -0.097929
626.917 0.724949 0.651774
267.458 30.4257 -0.523252
520.96 16.0048 0.167471
23.0809 5.84479 0.525022
123.898 43.6602 -0.138003
442.878 17.6889 0.241806
612.675 45.3176 0.492755
182.275 30.6291 -0.236919
41.4121 38.7882 -0.267276
429.085 0.97295 0.388337
219.196 9.03182 -0.452026
588.3 73.5964 0.255764
606.78 40.5273 -0.255334
325.184 29.9748 0.242134
153.51 30.864 -0.438505
450.79 60.2134 0.425397
340.045 19.9928 -0.552785
365.641 35.3538 -0.0960428
338.339 8.1728 0.485368
470.233 12.4638 0.155792
635.041 30.1959 -0.174823
76.9697 43.8236 0.390516
305.769 6.12032 -0.252851
480.878 9.11872 -0.45033
327.831 55.9906 -0.457652
23.2768 26.0867 0.527002
29.0662 6.00932 0.305727
472.029 41.6628 0.44902
433.152 29.9644 0.167991
23.464 39.5513 -0.411556
87.9435 34.2669 0.217917
296.322 20.1725 -0.310353
498.196 29.8116 0.130914
412.987 54.642 0.308545
583.389 7.54335 0.573337
578.325 10.4468 0.273622
350.295 46.1665 -0.0917196
517.54 51.7617 -0.0975278
221.989 19.0048 -0.522801
302.519 3.83463 0.571949
96.4843 34.1022 -0.301946
108.172 25.3569 0.280228
452.643 55.4982 -0.0699924
281.734 21.5914 0.539408
568.226 64.0899 -0.10217
544.294 76.9182 0.104277
417.067 25.1785 -0.452541
616.149 16.2577 -0.296163
377.499 30.98 0.223949
256.978 30.6913 -0.306054
541.672 54.4243 0.353423
258.556 35.3736 0.395069
494.103 13.6661 0.318629
303.666 46.1957 0.187395
437.544 15.511 0.491708
333.21 42.8036 0.0863612
379.731 23.2135 -0.0966049
291.708 51.5103 -0.434465
178.588 32.8192 -0.123309
608.504 86.4471 -0.142157
631.584 34.2538 0.270967
6.71449 12.8945 -0.416616
383.78 29.2667 -0.431187
36.2443 24.6004 0.073877
340.59 40.2579 -0.474928
356.122 27.7049 -0.277628
69.5587 12.288 -0.455981
49.627 36.5626 -0.437771
211.165 14.0562 0.453044
503.495 66.6583 0.390465
488.798 30.277 -0.613803
71.025 21.7097 -0.490429
557.788 72.1805 -0.0435004
605.112 2.39 0.557616
530.696 78.2115 0.470236
561.383 1.87482 0.614963
466.255 37.4104 -0.426429
472.787 69.4579 0.441432
443.467 22.7094 -0.447601
637.434 12.5354 -0.225863
208.216 28.5678 -0.11551
119.051 39.7436 -0.194597
231.393 7.37488 0.479326
89.092 4.49208 0.293032
59.5459 10.9777 0.22682
257.357 42.2931 -0.301675
16.1627 26.3236 -0.36054
475.294 25.9162 0.460705
483.977 69.5341 0.182125
406.663 33.7802 -0.403561
623.376 72.6696 -0.362693
365.354 8.81743 -0.128524
385.517 50.5363 -0.370205
463.969 3.31023 -0.256962
21.7625 23.1215 -0.452024
497.801 5.43802 0.556781
471.263 4.118 0.429775
192.351 11.3824 -0.573494
379.841 17.0645 0.20413
287.318 7.29328 0.405471
349.042 23.8689 -0.418466
584.072 77.9338 0.103496
181.312 27.6101 -0.475016
620.756 8.38864 -0.461928
583.439 69.5964 0.32353
345.551 11.9665 0.215379
573.865 8.29816 0.696621
497.236 45.9217 -0.418677
590.803 25.9736 0.409175
377.272 56.7691 -0.280545
431.68 17.2767 0.469048
404.337 58.2597 0.222625
397.13 15.7886 0.134932
535.853 73.8804 0.255586
535.423 68.2771 0.318602
178.261 43.9063 0.330331
627.95 17.0912 0.123411
471.703 70.97 -0.252959
10.4018 18.8645 0.193396
364.716 28.4598 0.350547
176.033 26.1667 -0.405828
90.4084 43.3575 0.197272
612.763 41.0785 -0.46158
527.863 80.9474 -0.219325
294.692 31.5711 0.358385
460.779 10.6749 0.496188
79.929 49.177 0.168022
231.5 28.3839 0.470362
474.645 30.449 0.429528
424.152 26.9239 0.411673
245.423 0.888155 -0.429738
458.105 59.1891 -0.353058
446.473 61.898 -0.430133
416.844 57.0424 0.380758
437.302 3.3191 -0.693106
566.136 33.8018 0.44134
166.736 15.2956 -0.175335
434.44 45.2792 -0.454039
461.207 62.5078 -0.10814
68.5652 0.89664 -0.300852
235.716 4.9673 -0.188834
631.595 36.2766 -0.174682
628.351 20.9829 -0.359558
636.718 39.5633 0.619362
279.729 8.85937 -0.349139
593.264 32.4991 0.470411
368.334 61.5329 0.314817
398.196 0.852056 0.526911
529.095 65.2252 0.443521
25.2237 33.2824 0.31255
305.222 57.2562 -0.588154
236.812 3.39479 0.435572
614.061 72.7629 -0.181517
565.319 83.8656 -0.224777
266.949 13.1504 0.172566
539.779 57.6931 -0.079875
482.854 2.5168 0.281517
469.448 7.25321 0.613403
91.4651 19.2134 -0.500316
280.765 0.999577 -0.282845
314.169 3.07482 0.457299
13.2447 7.28181 0.637832
4.62986 33.9837 0.242307
151.531 20.4269 -0.349504
65.3635 46.7226 -0.21034
62.9718 30.9391 -0.304709
380.619 15.6564 -0.522031
336.504 46.4769 -0.459583
596.859 57.0222 -0.129812
18.85 4.19977 -0.335216
66.0289 7.23353 0.133682
507.616 66.5664 -0.135979
272.37 0.87365 0.419648
330.758 20.7607 -0.107317
221.421 4.82554 -0.371592
535.241 42.3985 0.178013
402.517 11.8709 0.434251
593.488 28.0451 0.446513
514.193 54.3125 -0.294876
547.722 30.4557 0.0971769
374.505 33.0586 0.478328
98.6217 49.708 -0.311848
446.407 66.7557 0.0668136
588.65 20.3504 0.200939
222.074 33.5726 0.244627
30.2746 18.7026 0.178116
309.694 16.4631 0.484832
104.498 45.053 -0.179549
252.354 50.0297 -0.205612
385.288 1.06269 -0.222136
611.931 56.8051 -0.385157
554.726 2.12648 0.735256
306.554 4.49078 0.477966
278.539 31.6189 0.149839
405.507 55.9096 -0.201194
76.9572 8.11102 0.480178
185.925 50.3647 0.377515
609.373 49.3658 0.362652
430.079 53.336 0.0649937
187.293 46.3193 0.263348
151.12 46.6349 -0.41002
638.418 59.9232 0.392137
633.559 29.2943 0.503672
521.231 6.35691 -0.564234
179.541 27.7265 0.0988866
467.848 39.6299 -0.111244
469.183 38.069 0.285854
369.742 5.85143 -0.146897
425.145 0.944883 -0.34345
596.197 60.5989 0.499302
79.7402 33.9397 -0.21181
540.019 34.2216 0.43795
253.935 17.2402 -0.370072
9.08308 2.31655 -0.405368
120.468 41.8166 -0.187118
64.0714 25.4891 -0.484047
564.358 60.1725 0.335121
618.059 86.8205 -0.16057
174.697 31.3404 0.167748
626.985 30.1369 0.370522
42.8487 40.6239 -0.240957
86.6024 32.7021 0.162104
523.695 35.1984 0.428487
374.204 18.2086 -0.542864
450.588 21.0781 -0.118918
222.147 31.6173 -0.190301
520.264 20.7229 0.519369
636.682 29.0068 -0.385935
28.5405 34.8365 -0.267638
251.86 8.23466 0.21843
208.883 16.0169 -0.254128
1.10359 38.6088 0.145146
212.209 14.8773 -0.420141
198.672 11.3822 -0.127515
201.01 28.1745 0.268077
124.474 31.5597 0.129883
473.534 16.0321 0.460683
156.538 15.603 0.391006
609.768 79.5308 0.213974
163.118 4.23449 0.496306
45.4979 41.3842 -0.354957
590.192 87.2427 -0.433129
263.771 37.5375 0.367905
547.988 39.2097 0.500211
619.046 56.7748 -0.462412
277.92 9.58726 0.172549
584.472 53.1769 0.36866
304.578 2.53842 -0.373125
370.202 28.8552 0.389221
547.616 21.3468 0.543689
101.142 11.8768 0.510098
426.579 4.03995 -0.578243
596.659 25.8621 0.223187
83.7466 7.72754 -0.264448
261.796 16.7941 0.226761
381.758 13.7017 -0.311988
638.571 11.1605 -0.622043
358.986 1.96196 -0.559535
165.946 44.9111 0.265321
589.844 10.5323 0.27357
122.252 40.6284 -0.17602
244.987 37.5779 -0.369514
362.053 21.9686 0.209827
494.748 16.3569 -0.38035
348.234 9.99965 0.426228
403.094 40.3752 -0.447646
604.969 84.4609 0.359678
44.3669 12.0207 -0.119009
276.813 42.8847 -0.288396
344.451 32.233 -0.438506
369.773 21.6336 0.239593
440.93 60.062 -0.399497
592.732 62.4153 -0.203968
538.715 68.1506 -0.366613
211.896 37.2967 0.393113
11.5277 33.9753 0.153837
533.825 71.1737 0.120443
432.699 65.7707 -0.440978
214.526 42.4139 -0.0910902
552.657 52.8675 -0.110963
141.584 9.95305 0.171767
332.128 29.0016 0.256989
406.456 57.7895 -0.0879758
373.941 21.3048 0.196754
602.509 80.5373 0.293574
386.145 3.58481 0.523158
47.3853 28.6524 -0.288417
415.175 46.9736 0.356834
380.981 57.8576 0.360769
609.634 67.9018 -0.227666
580.301 57.5507 -0.2443
469.741 20.3291 -0.191704
604.331 67.2711 -0.434622
272.207 2.08831 -0.488218
345.121 35.0382 -0.503347
26.6583 41.6566 -0.295211
585.566 50.4437 -0.146062
503.726 37.3699 -0.496576
408.285 0.752878 -0.562302
120.456 4.86195 -0.311471
379.528 51.8203 -0.105868
11.4037 0.90551 0.331799
637.306 9.68206 -0.180958
342.748 51.9801 0.391278
[...]
POINT_DATA 13483
TENSORS Strain_matrix float
-0.567555 -0.529811 -2.27552 
-0.162966 0.370026 1.68852 
-1.53656e-17 1.49525e-17 1 

-0.966649 0.644257 -46.6204 
0.416647 0.860167 -5.21898 
-4.31918e-18 1.92542e-18 1 

-0.24372 -0.0617101 -1.63481 
0.0532575 0.00956317 0.603195 
-2.23722e-18 -3.45988e-18 1 

-3.59234 -2.18848 -4.39802 
1.63402 1.80217 2.22246 
8.61718e-18 9.88582e-18 1 

-1.22868 -0.713458 -0.554025 
0.575943 0.419883 -0.386819 
1.60995e-17 1.4558e-17 1 

-0.0908669 -0.305176 2.22577 
0.289424 0.0287771 -0.417579 
-1.39362e-18 -6.28915e-18 1 

-0.195136 0.105586 -2.76647 
-0.0410738 -0.0255111 3.3532 
9.32631e-18 -1.14534e-18 1 

-0.0896942 -0.384852 -0.261513 
0.234444 -0.0710697 -0.32011 
-6.46846e-18 -8.25182e-18 1 

-0.837972 0.394245 -1.27783 
-0.40477 0.524658 0.0485151 
-1.52331e-17 -1.70498e-17 1 

-0.888981 -0.459976 0.312167 
-0.26361 0.0233412 0.921681 
-3.76942e-18 -1.52416e-17 1 

-0.123961 -0.0989107 0.103053 
0.105148 -0.0306446 -0.0282215 
-4.90908e-18 4.68594e-19 1 

-0.279647 -0.145151 0.144398 
0.00440703 -0.0104659 0.304725 
5.95857e-18 9.50066e-19 1 

-0.0657249 0.0563833 -0.413391 
-0.4772 0.0115536 0.610813 
-5.36022e-18 -4.84972e-18 1 

-1.58703 -0.352894 0.107592 
0.300687 0.652546 -0.0548782 
3.75544e-18 -1.25181e-18 1 

-0.232214 -0.0512106 0.380996 
0.108358 0.0816712 0.485115 
1.16868e-17 -3.93829e-18 1 

-0.225304 0.135405 0.606868 
-0.108355 0.220928 1.68895 
2.22242e-18 -4.75911e-18 1 

-0.0879301 -0.108755 0.31634 
0.0726189 -0.0823559 -0.0596374 
3.64127e-18 2.09112e-18 1 

-0.24349 -0.0890183 -0.295391 
0.15106 -0.0183346 0.152054 
-1.39353e-17 5.92088e-18 1 

0.0738574 -0.377321 4.40154 
0.0236412 0.084877 2.019 
2.3284e-18 -7.56729e-18 1 

-0.479912 -0.133674 -0.720969 
0.448252 0.032915 0.296514 
-8.52633e-18 1.93789e-17 1 

-1.8589 0.309359 -0.668006 
-0.0411798 0.382896 -1.05795 
-4.69761e-18 -9.59771e-18 1 

-0.924759 -0.953282 8.13073 
0.855498 1.0838 0.652589 
-5.56162e-18 -5.64066e-18 1 

-0.484513 0.107088 4.45432 
-0.342791 0.383626 1.99262 
8.13056e-18 7.55286e-19 1 

-1.64295 1.01723 7.7192 
-0.602135 0.84153 -4.39261 
2.02353e-19 -8.09414e-19 1 

-0.230472 -0.263345 -1.42655 
0.470209 0.247952 0.508368 
-2.23641e-18 -1.31799e-17 1 

-0.188535 -0.236781 0.0572625 
0.22506 0.089152 -0.056681 
6.83861e-18 8.30403e-18 1 

-0.659173 -0.0761836 1.76524 
0.0107911 0.397355 -2.19383 
5.24401e-18 -6.70068e-18 1 

-1.32687 -0.481684 0.62671 
-0.104045 0.448253 1.60822 
5.22603e-19 -6.44543e-18 1 

-0.210655 0.0057547 6.29396 
0.00408935 0.0789659 -6.70083 
3.61007e-18 2.22135e-18 1 

-2.23507 -0.9536 0.691101 
0.192176 0.834987 -0.873462 
4.07e-18 6.0236e-18 1 

-0.267219 0.0724279 0.311101 
-0.15651 -0.24873 -0.254873 
7.06026e-19 1.00609e-17 1 

-0.0336608 0.364046 -0.131923 
-0.297873 -0.111706 -0.18549 
1.1694e-17 8.0974e-18 1 

-0.329334 1.23903 -0.357026 
-0.474763 0.152062 -0.947597 
1.58138e-18 7.90692e-19 1 

-0.684164 -0.203314 0.500028 
-0.139895 0.335652 -0.0705433 
-5.93523e-18 -3.75898e-17 1 

-0.0816051 -0.19366 -0.442211 
0.18654 -0.0570789 -0.74061 
-1.24969e-17 -8.52465e-18 1 

-0.196175 -1.47281 -1.05253 
0.190347 0.34567 0.426786 
-1.39702e-18 0 1 

-0.504197 -0.117259 -5.59514 
0.0724402 0.221437 -0.696225 
5.89343e-19 1.17869e-18 1 

-0.0721633 0.00677455 0.341842 
0.0407408 -0.020994 -0.477238 
4.01373e-19 1.44494e-18 1 

-0.691338 -0.515822 -0.239357 
0.329385 0.463102 1.09584 
-2.81959e-18 5.09093e-18 1 

-0.438334 -0.128643 4.05848 
0.819919 0.354217 -2.21049 
-1.9925e-17 -6.27009e-18 1 

-0.006735 -0.31938 -1.19125 
-0.0566013 -0.0743776 -0.314216 
3.395e-18 -1.00789e-17 1 

-0.000808276 -0.970306 -0.383534 
0.571762 0.0220603 -2.56512 
6.21407e-18 7.84935e-18 1 

-0.440351 -0.516957 -0.586637 
0.347451 0.176521 -0.0460637 
-1.37127e-17 7.81717e-19 1 

-0.186716 -0.0427176 -0.183229 
-0.0126119 -0.0830997 -0.0791236 
2.2066e-17 1.4622e-18 1 

-0.225827 0.0514573 0.169831 
-0.00867568 -0.0730615 -0.0300601 
1.85329e-18 8.12211e-19 1 

-0.137006 -0.0496762 -0.467154 
-0.0137369 -0.0168036 -0.301856 
8.87131e-18 2.4146e-17 1 

-1.28976 -0.252687 -1.05654 
0.112603 0.302229 1.2526 
8.61844e-18 7.52596e-18 1 

-0.0666592 -0.00897042 -0.105083 
0.095465 -0.0985261 -0.0252263 
-6.43778e-18 1.54507e-18 1 

0.146338 0.725281 -1.19385 
-0.736813 0.12264 1.08223 
6.38462e-18 5.32052e-18 1 

-2.14911 -0.768471 1.73475 
-0.133275 0.532383 -1.10978 
-1.11431e-17 -3.01497e-18 1 

-0.342125 -0.252153 0.903861 
-0.0745711 0.216171 -0.978516 
9.91504e-18 -4.84625e-18 1 

-1.1368 0.0081588 2.9892 
-0.0593297 0.164458 1.6379 
-5.9586e-18 2.23119e-17 1 

-0.123188 -0.0539682 0.143085 
0.0160976 0.0436117 -0.235757 
-1.16019e-17 -2.04193e-18 1 

-0.666204 0.258418 1.91229 
-0.386955 0.191495 -0.460554 
-1.12834e-17 2.2325e-17 1 

-0.335483 0.0380694 -1.27556 
-0.0199368 0.0197752 1.27759 
-4.85027e-18 -4.17869e-18 1 

-1.57832 -0.308293 3.112 
-0.134601 0.58374 -1.23943 
1.0745e-17 1.02973e-17 1 

-0.422336 0.19904 -0.320879 
0.0360743 0.294693 0.21754 
1.0909e-18 6.10904e-18 1 

-0.381464 0.108588 1.76095 
0.210854 0.334432 0.442544 
-2.52024e-17 5.6918e-18 1 

-0.134183 0.0479767 -0.209674 
-0.0630445 -0.104892 -0.435735 
6.29573e-18 7.42146e-18 1 

-0.113445 -0.150169 0.596748 
0.0928054 -0.0367348 -0.97459 
1.11038e-17 -1.71646e-17 1 

0.138874 -1.76392 4.11042 
0.409739 1.15997 -1.19029 
1.85342e-18 -2.85206e-18 1 

-0.668128 -0.0148744 -2.36631 
-0.155099 0.422741 -1.41079 
-8.93905e-18 9.76946e-20 1 

-0.119979 -0.18728 0.279857 
-0.0437752 -0.0591939 -0.209541 
1.32643e-17 4.21506e-18 1 

-0.75687 -0.0278802 1.96538 
0.40888 0.347842 -0.365135 
6.17365e-18 -1.23855e-17 1 

-0.380225 -0.0883334 0.542592 
-0.0501984 0.100834 0.247523 
-2.67402e-18 1.59239e-18 1 

-0.268999 -0.0427785 0.233908 
0.036815 0.149179 0.470962 
3.84849e-18 -1.41111e-17 1 

-0.217853 0.323109 -0.317766 
-0.381392 -0.0668495 0.318344 
-6.32196e-18 1.28312e-17 1 

0.0278352 0.336479 -0.417121 
-0.404545 -0.0664865 -0.103046 
2.85541e-18 1.90975e-17 1 

-0.396824 -0.134934 25.5564 
-0.00844165 0.278235 -38.9824 
3.63233e-18 -6.29575e-19 1 

-0.441249 0.077053 4.92889 
-0.0351847 -0.049686 0.679271 
-3.97573e-18 2.32428e-17 1 

-2.87077 -0.0264351 0.835622 
-0.333904 0.657746 -0.262423 
5.31209e-18 -3.58739e-18 1 

-0.353463 -0.112183 0.0867672 
0.00954085 0.0597606 0.303806 
-6.2552e-18 1.00207e-17 1 

-0.581666 -0.385599 1.78156 
-0.344078 0.267348 -0.457129 
8.95657e-19 6.13525e-18 1 

-0.803858 -0.975129 -0.415361 
-0.0673396 0.300005 -0.161263 
-9.46331e-19 1.40598e-18 1 

-0.262706 -0.0435049 -0.710556 
-0.000363146 0.0769594 0.622407 
-2.76477e-18 1.00002e-17 1 

-0.0516664 0.00957643 -0.0460843 
-0.0515227 -0.09391 -0.0521491 
-2.1491e-19 -6.44731e-19 1 

-0.474038 -0.00106187 -1.98495 
0.0839293 0.390582 0.88873 
-1.86048e-18 5.25695e-18 1 

-0.71949 0.189878 1.04953 
0.156392 0.155881 0.347155 
-8.11519e-18 -3.7286e-18 1 

-1.37647 -1.44485 1.29143 
0.130614 0.769265 0.831233 
-1.56347e-17 -1.25757e-17 1 

-1.37329 0.38244 -2.8878 
-0.258856 0.566675 -0.440839 
2.54748e-17 -4.89611e-18 1 

-1.81648 -1.75872 -9.24623 
0.402071 0.843162 2.06485 
-1.56981e-18 -4.85214e-18 1 

-0.122988 -0.259064 -0.0224822 
0.292141 0.219795 0.360768 
-8.69451e-18 1.063e-17 1 

-0.152607 0.343705 -0.0449296 
0.0329186 0.0699118 -0.0900089 
-1.12886e-18 -3.09026e-18 1 

-1.51156 0.0174272 -5.03656 
0.154756 0.484798 0.176153 
-4.72384e-18 -1.24212e-17 1 

-0.33643 -0.297338 -1.50914 
-0.135177 0.0680877 1.14708 
-1.34494e-18 7.8961e-18 1 

-0.393072 0.00919954 -3.23859 
-0.0104235 0.21871 -0.343169 
1.0774e-17 4.98538e-18 1 

-0.677764 0.985818 5.82931 
0.0033985 0.142457 2.11084 
-4.67142e-18 -4.8777e-17 1 

-0.351301 0.0763357 -10.3685 
0.0464282 0.17039 -16.9299 
4.42269e-18 3.24374e-18 1 

-1.75598 -1.2247 2.56089 
0.845033 1.05128 -1.44055 
1.04407e-18 -8.19195e-18 1 

-0.174265 0.0296374 0.0147464 
0.0217638 -0.0211285 -3.64031 
-6.28308e-19 -7.73302e-18 1 

-0.388227 0.495865 0.292177 
-0.212162 0.255517 0.040916 
8.16042e-18 1.13339e-18 1 

-0.381465 0.171059 -0.731014 
-0.13365 0.198623 -0.572128 
-3.43615e-18 3.43615e-18 1 

-1.24735 -1.01342 7.20693 
0.374474 0.589925 1.89012 
3.82166e-18 -4.69867e-18 1 

-0.384263 -0.0929179 0.0671631 
0.0197407 0.261366 -0.60263 
1.93147e-18 3.15803e-18 1 

-0.090958 0.0686311 -1.14383 
0.0822396 0.0204808 1.76013 
4.73583e-18 -1.87679e-18 1 

-0.571029 2.86736 -1.35361 
-0.0499119 -0.0571855 -0.557916 
4.72563e-18 -3.79931e-17 1 

-0.216287 0.0580064 -0.00299796 
-0.0101469 -0.00376517 0.0270787 
1.21507e-17 -1.05955e-18 1 

-2.434 0.436489 0.896434 
0.211762 0.561921 -0.453921 
1.10242e-17 6.32864e-18 1 

-1.72785 -0.748805 2.27901 
-0.29235 0.425286 0.00644256 
4.65641e-19 1.88614e-18 1 

0.06386 -0.868979 0.406469 
0.619215 0.348436 0.290828 
-7.16222e-18 -2.63019e-18 1 

-0.167431 0.163741 -0.0270012 
-0.106674 0.035866 -0.249605 
-1.29944e-18 -3.2486e-18 1 

-1.04602 -1.52273 42.013 
0.190244 0.636909 -16.4042 
3.4234e-18 3.62718e-18 1 

-0.518436 -0.0692668 11.8975 
-0.169197 0.180494 4.42394 
2.48232e-18 1.86174e-18 1 

-0.735683 0.0856227 -0.526645 
-0.252982 0.373975 1.17888 
4.47819e-18 -5.36611e-18 1 

-0.425091 0.803725 6.41617 
-0.591886 0.643187 -0.382674 
3.59896e-18 -3.29372e-18 1 

-0.645822 -0.457055 -1.49053 
-0.20872 0.23579 -0.179385 
-5.11496e-18 1.10629e-17 1 

-0.653862 -0.508706 -0.375436 
0.126613 0.292466 0.445273 
-8.66404e-18 -8.02795e-18 1 

-0.231843 0.224355 0.312949 
-0.0927863 0.120622 0.647495 
8.90987e-18 4.56419e-18 1 

-0.32391 -0.246187 0.350661 
0.227 0.050535 0.186284 
-4.86186e-18 -2.70104e-18 1 

-0.272766 0.0548318 0.568262 
-0.00623026 0.0732846 -1.09101 
1.74978e-18 7.98339e-18 1 

-0.198108 0.08621 -3.25752 
0.0458933 0.169805 -13.5127 
6.34986e-18 1.5296e-18 1 

-0.245686 -0.0472774 -3.48626 
0.0867896 0.182283 9.71074 
4.24082e-18 -7.4186e-18 1 

-0.228984 0.24948 0.368661 
-0.206328 0.0502503 0.219283 
1.05484e-17 3.06863e-18 1 

-2.59979 -2.4863 -5.23668 
0.319149 0.745818 0.26142 
8.24054e-18 -8.07573e-18 1 

-0.704044 -0.160207 -0.231366 
0.124557 0.482465 -0.555797 
-3.4818e-18 -3.58128e-18 1 

-0.113603 -0.0586859 -1.24017 
0.0500628 0.0730787 -2.32682 
8.77541e-18 4.84423e-18 1 

-0.131767 -0.132074 0.429199 
-0.408676 -0.00487338 0.401414 
-1.34655e-17 -2.34115e-17 1 

-0.303495 -0.305407 -1.71234 
0.199375 0.240658 1.49926 
1.04286e-18 7.21864e-18 1 

-2.13647 -1.22795 -4.48907 
-0.464136 0.808321 -1.38721 
1.25898e-18 7.0503e-18 1 

-0.972124 -0.709156 -4.14557 
0.534733 0.637397 2.04673 
1.04867e-18 6.86005e-18 1 

-0.775031 0.405834 0.223136 
-0.549126 -0.197393 0.352121 
-1.02519e-17 6.64987e-18 1 

-1.37582 1.97238 -0.0866841 
-1.30385 1.39549 0.888142 
5.72953e-18 -1.43727e-17 1 

-1.37716 0.468486 -1.62607 
-0.179996 0.643522 0.251856 
-1.62803e-17 6.64502e-19 1 

0.00874128 -0.961842 -1.04892 
0.474035 0.360073 -1.01894 
9.99134e-18 3.01889e-18 1 

-0.212138 -0.0811173 0.433032 
0.039991 0.125239 -8.77635 
2.78322e-18 5.77209e-18 1 

-0.281727 0.0544676 -2.33756 
0.0904296 -0.0388576 0.768789 
-2.68436e-18 -4.5257e-18 1 

-0.407081 0.0304733 -0.0144629 
0.143995 0.237245 -0.135506 
-3.52771e-18 7.9059e-18 1 

-0.342167 -0.211719 1.79391 
-0.11156 0.17017 0.126922 
-6.78441e-18 7.1092e-18 1 

-1.04062 -0.129298 -1.40881 
0.315732 0.488285 0.327091 
-2.68382e-18 1.34191e-18 1 

-0.328375 0.0215226 -3.1699 
0.00783742 0.129477 -2.39885 
3.29907e-20 1.41685e-17 1 

-2.34702 -1.40689 1.31663 
0.857438 0.837265 1.24123 
9.33937e-19 -5.4791e-18 1 

-0.27835 0.261525 0.758146 
-0.00365059 0.190398 -1.25021 
2.03126e-18 2.63311e-19 1 

-0.591153 -0.248654 -1.57956 
0.184953 0.376778 1.6022 
-1.19617e-17 -4.26546e-18 1 

-1.13836 0.174241 1.23392 
-0.0983772 0.364614 -0.0612354 
-9.56037e-19 1.17911e-17 1 

-0.516111 0.294631 0.904834 
0.199813 0.166609 -0.806097 
-1.14303e-17 -1.01251e-17 1 

-0.242682 0.273364 -0.388106 
-0.17175 0.285904 0.39481 
5.05943e-18 -8.26437e-18 1 

-0.923951 0.160346 2.36503 
-0.591177 0.488988 -0.952766 
-1.92778e-18 2.77118e-18 1 

-0.239884 0.0307284 1.05814 
-0.0898243 0.125624 -2.14383 
3.5056e-19 5.40447e-19 1 

-0.123071 -0.596609 0.517376 
0.473562 -0.101518 0.0662049 
-1.96822e-18 -1.18093e-18 1 

-0.171711 -0.361975 0.218463 
-0.0511308 0.209201 -1.13538 
-1.04898e-17 6.47521e-20 1 

-0.486554 -0.119379 -3.23611 
0.0529276 0.127823 -0.710381 
4.30541e-18 1.05877e-17 1 

-0.014675 0.0624235 -0.0867014 
-0.022306 -0.0539841 0.0886562 
1.08618e-17 2.54778e-18 1 

-0.544031 -0.16176 0.0822315 
0.743543 0.514713 0.839457 
-2.51989e-17 1.87266e-18 1 

-0.0826009 0.0307566 -0.488811 
0.0946365 0.073882 1.98945 
-6.78666e-18 -7.34377e-18 1 

-0.159546 0.0264852 1.02527 
-0.05583 -0.00892825 -0.405479 
1.77067e-18 -1.39164e-17 1 

-0.232234 -0.616169 -0.404449 
0.0564401 0.26898 2.62757 
3.8121e-18 -5.63625e-18 1 

-0.794196 0.620757 -1.49516 
-0.204912 0.462246 -1.01813 
-3.16155e-19 1.90285e-17 1 

-0.0483305 0.0355168 0.228374 
0.0120274 -0.114646 0.0784019 
-1.68648e-18 -7.55589e-18 1 

-0.221061 -0.0175576 0.972998 
-0.0783124 0.0164652 1.2459 
1.12569e-17 -2.60438e-18 1 

-0.0847291 -0.0504584 0.123563 
-0.00905101 -0.0411029 0.0674061 
-1.53112e-18 -8.72965e-18 1 

-0.478515 -0.052456 8.21451 
-0.170063 0.301779 0.0702395 
6.04307e-18 1.25156e-17 1 

-0.627395 0.361147 1.10134 
-0.381101 0.364454 0.525227 
3.9744e-18 5.05654e-18 1 

-0.22323 0.0622635 -1.15227 
0.0307401 0.00357441 -0.315043 
-1.25267e-17 9.65597e-18 1 

-0.106609 0.0357785 -0.0345225 
0.0609279 0.0224429 0.193192 
-3.24737e-18 -4.78478e-18 1 

-0.0930701 0.0762502 0.0878282 
-0.0774878 -0.0962152 -0.302971 
6.33853e-18 -5.42782e-18 1 

-0.821626 -0.24087 -18.0607 
0.357405 0.460816 0.579618 
-4.88385e-18 -3.05743e-18 1 

-1.08662 -0.961894 2.64267 
0.215701 0.576162 -14.4078 
-9.99479e-18 8.1291e-18 1 

-0.218841 0.0560229 2.10431 
-0.141721 0.130543 -2.4795 
-3.52019e-17 -1.02571e-17 1 

-1.24394 -0.314836 -5.81715 
-1.41566 0.754244 -0.320762 
5.60227e-18 -6.78864e-18 1 

-1.83533 0.602904 -0.262735 
0.334316 0.597716 0.567892 
-7.42855e-18 -9.24441e-18 1 

-0.574518 -0.833429 -76.0548 
0.0578069 0.254188 -23.6983 
4.2561e-19 8.84709e-18 1 

-0.724313 0.304576 -0.178757 
0.365585 0.38731 -0.0967655 
1.24691e-17 -3.00115e-18 1 

-1.75774 -0.590273 2.01683 
-0.258111 0.548046 -1.0063 
-8.65971e-18 4.28822e-18 1 

-1.82143 -0.917691 8.88451 
0.617253 1.01626 3.70095 
1.07638e-17 5.66065e-18 1 

-0.675669 -0.570989 -0.951049 
0.293181 0.296026 2.52987 
4.75576e-18 -2.58025e-18 1 

-0.915834 -1.79168 1.207 
1.31849 0.948477 -0.404295 
3.06286e-17 -9.36654e-19 1 

-0.246013 -0.0711411 1.22807 
0.171069 0.224868 0.0292383 
8.98407e-18 -6.37575e-18 1 

-0.501217 0.559951 1.51024 
0.252442 0.240499 1.22518 
-1.80922e-18 3.01537e-19 1 

-0.327196 0.0396238 0.342212 
0.0412118 0.0671046 -0.209432 
3.68325e-18 1.81898e-18 1 

-0.231762 -0.000476812 -0.190263 
0.0285137 -0.0250749 -0.410437 
-4.31685e-18 8.43116e-18 1 

-0.265123 0.0275623 0.158583 
-0.021792 0.0824634 -0.25913 
-6.69581e-18 9.72329e-18 1 

-0.133648 0.258941 0.527493 
-0.184068 0.0591662 0.159343 
9.59466e-18 -7.77945e-19 1 

-0.195669 0.303762 0.366896 
-0.18903 0.0340457 -0.871858 
3.30104e-18 -1.23789e-18 1 

-0.779387 -1.0268 -0.282166 
-0.0959142 0.265665 -1.34658 
-1.57954e-17 8.81671e-18 1 

-1.11881 -0.709127 -3.79689 
0.121624 0.763511 1.53623 
2.59472e-18 5.6046e-18 1 

-0.582447 -0.303799 0.973376 
-0.0899756 0.334106 4.80253 
-6.01837e-18 -1.91626e-17 1 

-0.843167 0.298635 1.93024 
-0.150823 0.445701 1.09184 
-1.55801e-17 9.551e-19 1 

-0.150486 -0.0101924 0.00480216 
0.0142439 -0.0322354 -0.146017 
-3.0375e-18 3.54072e-18 1 

-0.736652 -0.253528 -0.779316 
0.198412 0.464334 -2.2376 
1.78028e-18 1.8871e-18 1 

-0.292177 -0.162837 -0.165573 
0.11055 -0.0712247 -0.142924 
8.96384e-18 7.10342e-18 1 

-0.243804 0.131976 1.028 
-0.0433732 0.227143 -1.32366 
-1.32144e-18 -1.32144e-17 1 

-1.11006 -0.352374 -0.136092 
0.0354628 0.333886 0.372163 
-7.31853e-18 1.19715e-17 1 

-0.592046 -0.0952854 -0.607035 
-0.148022 0.125644 -0.517185 
1.15843e-17 -1.20246e-17 1 

-0.157031 -0.0681908 -1.9513 
0.0858533 -0.0155777 1.89406 
2.37835e-18 5.415e-18 1 

-0.170214 -0.331611 0.299453 
0.538198 0.340588 -0.177175 
5.66403e-18 3.98252e-19 1 

-0.233832 0.040555 -0.0310544 
-0.123532 -0.0601509 0.244276 
4.05127e-18 -7.08973e-18 1 

-0.320666 -0.0459587 1.27408 
-0.272961 0.0814266 1.74709 
-1.13742e-17 -1.01183e-17 1 

-1.01538 0.000721884 -1.33549 
0.285375 0.217641 2.06625 
3.47876e-18 1.26266e-17 1 

-0.267324 0.0414161 0.62168 
-0.225322 0.13617 -1.29411 
-2.09769e-18 7.37263e-19 1 

-0.497798 0.336822 0.569602 
-0.186414 0.0582753 -0.831052 
-2.71749e-18 -4.07623e-19 1 

-1.72777 -1.14705 1.59016 
-0.0395058 0.477934 0.132253 
1.49115e-17 -1.49115e-17 1 

-1.19252 0.522946 -1.65293 
-0.490303 0.477394 -0.780297 
-1.46032e-17 -1.07354e-18 1 

-1.5865 0.598717 3.34553 
-0.36325 0.714337 -32.5488 
-8.46425e-18 1.43964e-18 1 

-1.03177 -0.30227 -4.61855 
-0.437649 0.390383 1.88004 
7.37941e-18 -8.7525e-18 1 

-2.09735 0.209783 -1.87767 
-0.916575 0.761085 -1.413 
-2.35469e-18 -1.47943e-18 1 

-1.67364 0.239106 -9.98268 
0.493761 0.711494 -1.00719 
-5.76797e-18 -1.12054e-17 1 

-0.223959 -1.02934 1.4995 
-0.207291 -0.319925 1.19504 
2.95304e-18 1.19718e-17 1 

0.137152 -0.787787 1.06837 
0.470808 0.263132 0.175857 
-1.75017e-18 -2.36459e-18 1 

-0.0538144 -0.315093 -0.232737 
0.246682 -0.0975665 -0.294271 
8.9146e-18 9.81784e-18 1 

-0.300564 -0.322176 -0.101024 
-0.214748 0.0377813 1.05263 
-3.26311e-18 8.44207e-18 1 

-1.07679 0.144929 1.21166 
-0.322851 0.749634 0.58034 
1.53128e-18 -2.17847e-20 1 

-0.0406796 0.0243437 -0.0311639 
0.026412 -0.0108789 0.519244 
1.69761e-18 -2.19275e-18 1 

-1.96508 -0.316524 -6.51487 
0.569069 0.75341 0.368214 
-5.66763e-18 1.26556e-17 1 

-5.73352 -0.535744 5.00327 
0.037261 1.19402 -1.18301 
1.08713e-17 -3.6476e-18 1 

-0.140719 -0.0898404 -0.380692 
0.0769831 -0.174572 0.240263 
-8.01587e-18 -3.38744e-18 1 

-0.930368 -0.561151 3.14737 
0.152356 0.482536 0.650251 
-3.00497e-18 9.50143e-18 1 

-0.174685 -0.00312091 -0.0183515 
0.0497953 0.0790708 0.540836 
5.23889e-18 6.61105e-18 1 

-0.176704 0.329771 -0.724403 
0.100156 0.0652759 0.433025 
-9.97363e-18 3.2886e-18 1 

-0.960874 -1.12178 13.125 
0.3335 0.731059 -3.60462 
9.48593e-18 -5.49132e-18 1 

-0.380279 -0.0357915 -1.48381 
-0.356042 0.177803 0.0917758 
6.52456e-19 1.51696e-17 1 

-0.125885 0.0463462 1.90189 
-0.0420852 0.164667 0.654612 
4.18784e-18 1.24588e-18 1 

-0.760367 -0.000785235 -1.13831 
-0.413627 0.222303 -0.733724 
-3.47363e-18 -8.93949e-18 1 

-0.107226 -0.361368 0.601315 
0.0594648 0.325002 0.723122 
-7.0607e-18 1.54555e-17 1 

-0.143118 0.0566335 -2.64788 
0.110081 0.0422946 1.98365 
-1.14656e-18 2.70589e-18 1 

-0.595156 -0.898868 0.276477 
-0.0284563 0.0705162 0.132522 
-6.87635e-18 5.80743e-18 1 

-0.281118 0.0960102 0.878343 
-0.265174 0.217305 -1.1026 
-7.66777e-18 2.95478e-18 1 

-0.316875 0.837597 0.578401 
0.0171744 0.0586614 -0.273976 
7.10714e-19 7.45246e-18 1 

-1.3621 -0.736197 10.6082 
-0.367776 0.597025 8.53688 
-1.92482e-18 -2.16829e-18 1 

-0.874124 -1.59114 9.9782 
0.405725 0.871416 2.46108 
-2.02077e-18 -3.16213e-18 1 

-0.501849 -0.181835 4.05307 
0.22666 0.470843 -1.48942 
-9.06404e-18 1.1227e-17 1 

-0.649753 -0.495936 -1.05732 
0.210571 0.218969 0.987919 
7.53381e-18 4.1436e-19 1 

-1.06478 0.206857 1.66055 
0.863226 0.460624 2.04591 
8.64288e-18 -1.11377e-18 1 

-0.044629 -0.232517 1.36 
0.122914 0.341529 -0.665296 
4.78246e-18 -1.73665e-18 1 

-0.894041 0.293564 -2.93483 
0.0119885 0.440706 -1.95438 
3.97908e-18 1.3411e-17 1 

-1.82521 -0.901814 -5.09674 
0.13507 0.609692 0.560787 
-4.88245e-18 7.69926e-18 1 

-0.172094 -0.190564 -0.0789244 
0.0167792 0.0096522 0.0970012 
7.66734e-18 -4.12478e-17 1 

-0.148147 -0.236325 0.334185 
0.116419 -0.064841 0.316205 
-5.19478e-18 2.70059e-19 1 

-0.153827 -0.202273 0.24565 
-0.0836302 -0.152396 -0.0256792 
2.49827e-18 2.33929e-17 1 
