# vtk DataFile Version 3.0
Output file generated by Yade's KinematicLocalisationAnalyser
ASCII
DATASET UNSTRUCTURED_GRID

POINTS 13483 float
577.312 44.7422 -0.470671
691.53 80.0969 0.453399
118.119 6.08476 -0.439882
714.434 4.24475 0.340692
492.77 8.23021 -0.43242
312.001 39.4653 0.545482
154.232 7.03285 0.444832
547.59 18.3503 0.148394
487.52 27.22 0.139719
655.594 16.4607 0.610305
207.859 8.95019 -0.0958584
254.314 6.39582 -0.250811
606.017 44.7216 0.170786
596.389 15.6673 -0.201614
135.242 17.906 0.558713
218.642 35.3521 0.205585
215.224 12.9842 -0.295228
286.169 9.60306 0.417948
336.167 34.4858 0.452159
516.489 8.35355 0.363116
406.729 38.7083 -0.123312
567.631 62.9268 -0.276403
709.616 52.124 -0.459489
647.9 69.4846 0.463314
453.625 16.7174 0.326156
238.795 44.8082 0.13308
482.304 30.2951 -0.448134
561.885 30.244 -0.261607
44.1925 16.0946 0.46491
651.881 38.8315 -0.344644
477.015 4.66657 0.404191
16.2661 23.9527 -0.297467
700.635 69.4949 0.266838
489.467 2.2537 0.629431
76.8623 45.1149 -0.101201
506.432 33.8338 0.343269
521.963 16.5593 -0.537179
339.345 22.7409 0.176868
517.43 33.8094 -0.317605
346.185 34.7856 0.525093
238.471 14.6731 -0.369341
429.11 38.261 0.0771805
627.071 23.2853 -0.145299
190.024 6.25843 0.34286
54.3482 7.14714 -0.105588
67.3267 8.8226 -0.265016
630.267 10.7898 -0.691306
22.9981 11.4542 0.307864
588.527 72.2238 0.0264217
628.541 43.8013 0.359632
170.221 33.1755 -0.312426
681.813 70.2415 -0.113724
34.4315 28.9206 -0.107667
526.657 2.91011 0.368965
140.343 7.39973 -0.495356
574.605 54.0428 0.376256
489.791 35.3866 -0.1226
172.674 0.950474 -0.269534
32.3798 2.35006 0.334443
344.767 18.0073 0.274128
602.219 75.539 0.132134
458.503 33.0984 0.197032
395.404 1.03065 0.20113
639.192 8.13619 0.362312
26.0662 43.7212 0.237881
254.487 30.8251 -0.314981
656.981 9.4156 0.566595
617.077 72.2781 0.347163
413.628 8.86378 -0.498872
545.602 6.37998 -0.351957
673.636 58.6766 0.35676
129.069 7.74069 -0.269964
489.658 28.5971 -0.138625
472.669 14.6611 -0.142689
292.186 16.4972 -0.38668
20.4482 13.6281 -0.303475
698.608 58.2541 0.371403
328.725 40.2484 -0.321099
627.117 40.3154 0.348888
631.146 18.0138 0.265374
705.263 22.3207 -0.320516
460.678 36.2926 0.188829
91.2629 38.8991 -0.282069
634.612 68.5938 0.242776
599.597 57.0226 -0.116317
713.57 56.2431 0.109022
708.152 0.590447 -0.502555
289.412 30.0472 0.422294
587.473 6.36884 -0.226464
24.025 5.20282 0.562022
132.023 39.628 -0.151213
506.791 15.0514 0.226796
695.011 45.5738 -0.529956
193.525 29.2342 0.259452
44.0856 35.9535 -0.275237
488.301 1.20502 0.122593
233.859 8.75295 -0.421661
665.9 79.383 -0.24179
687.945 52.8938 0.237211
357.787 20.8338 -0.279053
162.141 27.5659 -0.443856
529.696 54.3572 -0.423236
377.46 15.8162 -0.425465
410.23 31.2252 -0.0993585
375.334 4.84658 0.4991
529.556 20.212 0.150264
717.182 13.9046 0.258352
79.1779 39.8665 -0.413822
332.711 4.95602 -0.226715
542.348 19.1912 -0.466793
357.363 45.4795 0.453491
24.6931 25.5277 -0.449013
30.1173 5.69484 0.346677
549.379 45.8941 0.400227
496.81 25.1859 -0.144326
25.5404 37.5213 0.422041
92.2379 31.3645 0.213891
323.361 16.4324 -0.27839
571.142 21.7722 0.184741
472.189 40.9187 -0.170257
671.054 7.40559 -0.569051
663.549 8.21225 -0.304977
384.735 37.1779 0.0958294
597.663 30.8485 0.116187
237.068 17.0401 0.562188
328.186 3.88158 0.464472
102.724 31.812 -0.355472
115.42 24.8598 0.287018
524.76 54.3119 0.0742304
304.424 18.9477 0.475575
644.238 45.7416 0.130618
621.251 74.0708 0.106209
476.688 21.1312 -0.375497
684.433 29.2717 0.320997
425.721 25.6975 0.22056
277.068 24.3616 0.316466
625.97 59.7284 0.271078
278.491 29.1475 0.389875
556.801 21.611 -0.239005
329.554 36.843 0.198287
500.731 12.439 0.535633
364.438 32.5415 0.0889465
428.823 17.0813 -0.0970916
316.677 45.7163 0.457909
189.66 30.8446 0.11655
692.699 75.6035 0.143779
714.18 16.3077 -0.309648
6.00261 12.4054 0.417622
432.656 23.0954 -0.446738
37.7099 23.179 0.0828012
374.978 31.5344 -0.469149
395.381 25.1657 -0.242207
73.9804 11.827 -0.503643
50.8051 36.0698 0.548883
225.385 13.6326 0.41193
580.501 38.2761 -0.494923
557.887 33.9302 -0.446456
73.7979 21.0535 -0.492187
650.498 67.6284 0.42155
695.023 4.08771 -0.534527
613.764 64.5595 0.461322
634.525 1.98599 0.595844
535.185 40.284 0.393721
569.114 63.5526 0.438811
510.777 18.8324 -0.348753
711.788 3.50413 0.408553
223.766 26.206 -0.105578
127.6 36.6157 0.189412
247.246 6.82748 0.406344
93.7691 4.55558 -0.251597
63.6486 10.0898 0.242219
276.519 37.3264 -0.367189
17.1021 26.1599 -0.357312
541.489 30.575 -0.396092
589.944 67.4301 -0.214228
462.989 21.483 -0.364947
717.68 77.2468 0.345332
406.853 8.7431 -0.143466
435.494 37.7855 -0.373759
534.912 3.63798 -0.362533
22.7869 24.5236 0.413431
553.753 8.22239 0.596244
542.56 5.71481 0.298041
206.224 11.365 0.47951
424.96 16.3907 -0.271213
312.063 6.58884 0.341451
388.495 18.918 -0.350074
662.719 67.7276 0.114239
192.295 26.1341 -0.417732
697.882 16.0948 -0.535795
666.265 66.2547 -0.315461
383.669 10.5349 0.188068
655.863 2.39281 -0.512298
574.501 32.7448 -0.512656
676.454 18.1212 -0.44797
431.614 44.9959 -0.283057
495.416 13.2336 0.441366
464.444 46.1667 0.220112
446.09 9.19975 -0.189823
617.433 65.4197 -0.272707
616.63 61.0542 -0.371208
192.228 39.7967 0.353847
703.087 22.6486 -0.155752
571.098 64.8378 -0.24491
11.5607 17.1022 0.29507
408.755 25.9607 0.325197
187.508 23.5543 -0.416317
92.932 39.8526 -0.209819
693.217 43.7379 -0.395716
609.103 69.4457 -0.333103
319.985 26.8739 0.354457
532.169 9.8882 0.330213
81.9547 44.8398 -0.179124
248.405 26.1313 -0.473528
542.484 36.2945 0.373942
486.672 19.3405 -0.445217
263.711 0.881866 -0.341893
539.383 55.7866 0.36371
517.481 54.75 -0.450887
484.275 39.6359 0.399657
499.177 1.93882 -0.665586
643.309 20.3619 0.370884
179.435 12.5805 -0.203229
501.435 51.7374 0.444104
549.946 53.522 0.111237
72.7931 0.954063 0.27171
252.537 4.82834 0.179089
714.178 19.862 0.201749
705.57 24.3145 -0.451163
719.09 19.1929 -0.667341
304.645 8.72514 -0.233767
670.022 34.4118 -0.39243
408.153 44.3337 -0.359054
450.281 0.858499 0.517338
605.283 57.0573 -0.541881
26.259 31.0788 0.303321
330.988 42.8054 0.621114
253.386 2.96601 0.357932
703.43 66.1816 0.228397
653.438 61.2538 0.240024
288.623 10.9368 0.271799
620.69 53.2993 0.0864276
545.146 4.04852 -0.4945
540.402 8.60928 0.537213
96.6333 18.7321 0.494211
304.59 1.11293 -0.234264
343.871 2.26078 -0.365539
13.8153 7.67807 0.457944
3.95767 32.2909 0.252193
161.951 19.3085 0.416056
68.186 43.0343 0.223194
65.4369 30.1933 0.334707
424.788 14.5132 -0.43843
367.777 35.7827 -0.479535
678.853 75.0556 -0.111666
19.36 3.96643 -0.277176
70.4033 6.89188 0.138433
588.282 43.1641 -0.167037
296.049 0.922951 0.387228
365.983 16.1696 -0.134864
236.522 4.73707 -0.342934
608.389 34.234 0.182988
453.101 8.79752 0.448152
680.783 22.2365 -0.417292
597.454 34.9897 -0.367231
626.211 38.4889 0.0785482
420.439 27.7807 0.458576
102.2 45.6714 -0.314139
528.244 58.1234 0.0608524
674.93 12.9444 0.344805
238.537 30.943 0.242166
31.6245 17.7305 0.199923
337.186 14.0064 0.504044
107.918 41.2971 -0.469792
269.41 42.9953 -0.221777
427.479 1.67994 -0.362127
695.848 49.5551 0.417344
628.115 2.24284 0.600477
333.203 3.4347 0.58489
301.653 28.2769 0.152368
463.689 43.0493 0.261001
81.4536 8.29308 -0.468747
198.708 45.8595 -0.384876
688.616 57.527 0.353517
495.977 51.459 0.0797101
200.888 41.6095 -0.278755
161.365 43.3733 0.394589
720.434 48.0011 0.440996
715.931 15.0886 -0.4545
579.883 3.2246 -0.680922
190.998 24.8418 0.0903832
537.053 40.9066 0.110376
539.1 41.3106 0.262962
411.431 5.88038 -0.147345
483.374 0.947857 0.411096
679.901 80.1896 -0.511272
84.5624 31.2218 0.210193
612.636 34.3873 -0.473581
276.149 15.7722 -0.362883
9.27149 2.40433 -0.321186
126.244 38.3665 0.183434
65.3964 23.8193 0.441138
640.824 56.1714 0.317279
708.232 73.6319 -0.21327
186.264 29.3932 0.173988
714.07 22.2365 -0.334024
45.1414 38.1192 0.239376
91.0207 29.6956 0.165997
605.077 15.4492 0.381831
416.177 17.6532 -0.556633
520.219 16.6576 0.134158
238.946 28.9864 -0.178109
594.558 4.45971 -0.486293
719.091 14.3947 0.422876
29.5153 32.2122 -0.264965
271.889 7.71568 0.205213
223.085 15.4026 0.264626
1.08868 37.3285 0.0363139
226.391 14.7074 -0.366887
212.73 11.0964 0.116588
215.319 26.4826 -0.291003
132.966 29.7197 -0.120853
535.143 26.5506 -0.321712
167.351 14.6235 -0.333639
697.943 69.3739 0.244856
174.596 3.86719 0.505971
46.7924 40.8337 -0.354654
656.476 75.2302 -0.435045
283.149 32.8763 -0.405465
634.138 42.2434 0.519459
700.36 51.5959 -0.50859
302.693 9.34263 -0.0971818
666.562 45.9813 -0.387343
330.184 2.4901 -0.444045
418.503 24.2565 0.369037
632.906 36.5306 0.462687
105.602 11.991 0.441259
485.374 3.85868 -0.514759
679.693 26.9801 0.1891
88.283 7.73709 0.243625
283.861 14.7683 0.216076
425.791 11.8548 -0.200261
711.144 5.25104 0.61237
400.365 1.99804 -0.532894
177.454 40.0825 0.341587
677.96 10.868 -0.349168
129.481 37.6135 0.184902
265.74 31.765 -0.373465
402.933 22.2778 0.211061
559.182 24.1268 0.353141
389.418 9.88333 -0.530295
459.838 27.8759 -0.447513
690.842 78.6881 0.428213
47.5369 11.7546 -0.187173
301.51 40.4382 -0.280657
382.001 26.3682 -0.426474
412.286 21.0517 -0.270052
506.036 51.1124 0.366539
673.308 80.6531 0.235212
622.388 62.7533 0.34371
226.726 35.9631 -0.385609
11.8634 33.137 0.151503
614.833 60.4111 0.164603
510.648 57.8168 0.401615
230.943 40.4903 0.112773
631.527 60.6151 -0.102061
151.489 9.39442 0.243721
368.617 21.2868 0.285345
465.349 44.1984 -0.123179
416.243 19.5232 -0.212254
690.369 84.1486 0.290995
428.839 3.92136 0.543952
49.6053 26.3549 -0.305859
473.773 34.8188 0.323838
437.911 42.6165 0.356972
699.238 62.6332 -0.218771
665 39.4339 0.246188
529.92 30.575 -0.127458
690.219 68.6606 -0.433789
295.666 2.19495 -0.476578
380.963 29.0149 0.441513
28.6979 39.3047 0.303558
670.509 51.1023 0.183504
582.442 21.4412 -0.542902
465.251 0.769622 -0.495774
126.286 4.66991 0.342692
429.464 42.6358 -0.114568
11.6456 0.920739 0.315113
710.328 7.94366 -0.129914
372.096 39.6381 -0.402377
584.443 7.8805 0.57329
[...]
POINT_DATA 13483
TENSORS Strain_matrix float
-0.79614 0.417711 -0.142253 
-0.471719 0.494679 4.15486 
-0.044633 0.0310813 0.269576 

-0.375165 0.135044 9.71474 
-0.550906 0.263138 15.8923 
0.00432902 0.0418997 1.16772 

-0.00863897 -0.00399572 0.0364561 
0.00873263 0.00375217 -0.376646 
0.00131806 0.00038802 0.0983012 

-0.152709 -0.346795 0.428029 
0.107823 0.233618 -0.0172906 
-0.0159697 0.0055353 -0.0347855 

-0.0953758 -0.0715546 0.228353 
-0.0885049 0.019322 0.203497 
-0.0110243 -0.0241599 0.218755 

-0.179891 0.0927573 5.96509 
-0.0228883 0.150397 3.93818 
0.00551072 0.0298569 2.34478 

-0.00933625 0.0137281 -0.09813 
0.000722083 0.00252561 -0.116524 
-0.000402356 -0.00115617 0.00910467 

0.0239672 0.0878469 -0.00102179 
-0.138931 0.0431816 0.0432212 
-5.88899e-05 -0.000520411 -0.0373946 

-0.173665 -0.184194 0.879607 
-0.101274 0.212387 -0.198738 
-0.00606062 -0.0172759 0.136589 

-0.209112 -0.135855 0.686472 
0.351424 0.22653 -1.64541 
-0.00117321 -0.00454518 -0.0988166 

-0.0159818 0.00458035 0.0121115 
0.022628 0.00340186 -0.0183966 
-0.0143875 -0.0695789 0.314326 

-0.00677238 0.00217248 0.00301655 
0.00214901 0.00328622 0.00331174 
0.000438324 0.000125346 -0.000619768 

0.0755768 0.224763 0.212928 
-0.0317939 -0.214728 -0.505879 
0.0443135 -0.00636227 0.176038 

-0.0630859 -0.0974432 0.0746698 
0.0799256 0.0128624 -0.11486 
0.0371368 0.038665 0.121633 

-0.0095944 -0.00324899 -0.773305 
-5.28089e-05 0.00626434 0.0651839 
0.00140558 0.000947596 0.020843 

-0.016717 0.00584425 0.0882306 
0.0384023 -0.00441887 0.0594602 
0.00403125 0.000391105 -0.0100836 

-0.0047932 0.00631914 0.0075086 
-0.000874289 0.000620787 -0.00776428 
0.00039508 -0.000279041 0.00177767 

-0.0145703 0.00331476 0.0153427 
-0.0228465 -0.00760872 0.0247807 
0.00115106 0.000421934 0.0384858 

0.00467742 0.0394231 0.0139522 
-0.0346932 -0.00815702 0.0460458 
0.00113635 0.00204141 0.0545422 

-0.000380831 0.0536981 0.0371594 
-0.0767895 -0.0291657 -0.0379208 
0.00527932 0.00384448 0.0549437 

-0.0304747 -0.0379549 -0.00384192 
0.0318698 0.0218435 0.0842397 
0.015366 -0.0529408 0.32513 

0.0198748 -0.146471 -0.138161 
0.172484 0.00680412 -0.0125742 
-0.000774829 -0.00192119 0.0109663 

-0.00779117 0.0172855 0.465327 
-0.00890213 0.0225451 -0.839185 
-0.00550299 -0.00122361 0.016123 

-0.115498 0.106768 -1.78822 
-0.129421 0.0967507 1.24063 
0.00631677 0.0128265 -0.0595375 

-0.0130694 0.0362368 -0.0893225 
-0.00718418 0.00993024 0.00528454 
0.00175154 -0.000229631 0.00367765 

-0.00824922 -0.00795046 -0.00642612 
-0.000404138 -0.00257394 -0.0295489 
0.024565 -0.00200988 0.0565953 

-0.318051 0.130285 -3.39519 
-0.00496718 0.224176 -0.648948 
0.000954807 -0.00726319 0.045679 

-0.337485 -0.645689 0.959379 
-0.364888 0.064931 0.395633 
-0.0112873 -0.00489154 0.348644 

-0.0107871 -0.0016835 0.0762294 
0.00801832 0.00283941 0.266788 
-0.000128036 0.00035776 -0.0474676 

-0.380465 -0.351257 -0.274256 
0.185279 0.29662 0.727306 
0.0338459 0.0307777 -0.0965649 

0.00733889 -0.0231657 0.00360709 
0.0120138 -0.00803748 0.012561 
-0.00384429 8.72086e-05 0.00347392 

-0.00118431 0.0140784 0.00305225 
0.000200158 0.00891205 -0.0590194 
0.00224379 0.00172458 -0.00737754 

0.0102819 0.132896 0.085738 
-0.129623 0.0141283 -0.0899885 
0.000724781 -0.000497387 -0.0261725 

-0.065833 0.00629944 -1.36189 
0.0366838 0.0996953 -1.24994 
0.00264399 -0.013736 0.375698 

0.000762265 0.0133841 -0.0223566 
0.00736638 0.00699725 -0.0430223 
-0.000925413 -0.00172521 0.0100513 

-0.00213807 -0.53763 0.5125 
0.453094 0.156195 0.378776 
0.0113156 -0.00172887 0.48591 

-0.218271 -0.0507553 1.1576 
-0.00179793 0.144553 -1.26474 
-0.0184001 -0.00413177 0.165781 

-0.00169795 -0.0608613 -0.015792 
-0.0365587 -0.00399703 -0.0334091 
-0.00438434 0.00187182 0.0314131 

0.112687 0.185612 -0.935985 
-0.458967 -0.105701 -0.263237 
-0.0649793 -0.00983133 0.275094 

-0.00116968 0.00603386 0.0471129 
-0.0224174 0.012419 1.16206 
-3.24129e-05 0.000209759 0.0284212 

-0.00549015 0.00029613 0.0140849 
-0.00466201 -0.00505044 -0.0943496 
0.000918898 0.00172907 0.045335 

-0.0140226 0.046092 -0.0143452 
-0.0358379 0.00545594 0.00809897 
0.000707457 -0.000215034 0.0210089 

-0.00168548 0.040524 0.0763169 
-0.00507049 -0.0188446 0.0491104 
-0.0242571 0.000834606 0.0642964 

-0.0258926 0.0247122 0.107724 
-0.0384471 0.0131848 0.82067 
0.000223534 0.00434957 0.248505 

-0.0104879 0.000877771 0.00941596 
-0.00341574 0.00289696 -0.00526574 
-0.0013845 8.98154e-05 0.00893397 

-0.00538455 -0.00275664 0.000767037 
0.000171742 0.00140077 0.00164321 
-0.000127122 0.000743913 0.000901896 

-0.0918902 0.0213648 -17.0921 
-0.164728 0.13845 11.3018 
-0.00700958 -0.00626892 0.215919 

-0.00340229 -0.00241138 0.00305293 
0.00347239 0.00115218 -0.00452201 
-0.00100306 0.000271502 0.00296223 

0.101698 -0.0182758 -0.355841 
0.0675436 -0.0357364 -0.253968 
0.0444179 -0.0392049 0.972233 

-0.156712 -0.316035 -1.88692 
-0.0277916 0.0420542 -0.355838 
0.0113443 0.00416141 -0.0438519 

-0.00292787 -0.0147694 0.0141442 
0.0265342 0.00102165 0.0209437 
7.37352e-05 -0.000392776 -0.000505721 

-0.447952 -0.0303725 -0.711808 
-0.271571 0.379209 -0.609506 
0.0558135 0.019229 0.337464 

-0.0116063 -0.0241748 -0.0114384 
0.00733167 0.00456416 0.00605488 
-5.32237e-05 -0.000382938 0.00525741 

0.00235096 0.00304382 0.00174124 
-0.0188626 -0.0165869 0.104437 
0.00540681 0.00264205 0.042437 

-0.0062553 0.00310638 -0.0203529 
-0.00180681 0.000340662 -0.00640401 
0.000216571 0.000276882 0.00948106 

-0.310198 0.11981 -4.26326 
0.0140963 0.0359454 -1.61747 
0.0229194 0.0533034 0.152289 

-0.352295 0.938584 0.678744 
-0.0322275 0.34627 0.688252 
0.0302096 -0.00144619 0.161302 

-0.000114528 -0.0418582 -0.0611891 
0.00184228 -0.0133546 -0.0855592 
-0.0206544 0.120286 0.739038 

-0.00810733 0.0143507 0.027895 
-0.0184074 0.00806929 -0.00843028 
-0.000805828 -0.00705951 0.0241546 

-0.00865174 0.000141283 0.0520249 
0.0052648 0.0180197 0.017846 
-0.0207537 0.030726 -0.165494 

0.0707407 -2.36983 5.61801 
-0.15389 -0.0753254 -0.169026 
-0.0302954 0.0585615 0.690914 

0.00246033 -0.0634007 -0.0710054 
0.0651162 -0.000661728 -0.0176906 
-0.000715762 0.00114543 -0.012882 

-0.0028919 0.00304533 -0.0018148 
-0.00095064 -0.00305653 0.000431739 
0.000144941 0.000218177 0.00680841 

0.00809476 0.0433992 -0.223123 
-0.0463324 0.00516279 0.155944 
-0.0278138 0.0250095 -0.194785 

-0.0329667 0.0019037 -0.0190848 
0.00853471 0.00932215 0.0226894 
-0.00524092 -0.00341489 -0.00735147 

-0.00017925 -0.00209129 0.00395235 
0.00151432 -0.000513024 -0.00281825 
0.000204408 -0.000194424 0.00289008 

-0.142188 0.0538918 0.557713 
0.206182 0.0699542 -0.571991 
-0.0237804 -0.0163791 0.25678 

-0.249555 0.285233 7.54185 
0.172974 0.111387 1.52518 
-0.0373063 -0.0503688 0.64273 

-0.0208709 0.00935085 0.00843968 
-0.00479024 0.0105982 0.31778 
0.00693748 0.0195539 -0.105156 

-0.354641 -1.23265 0.191854 
0.191396 0.367712 0.418079 
-0.00536626 -0.0345605 0.87383 

-0.0508594 -0.186901 0.161394 
-0.111059 0.0265127 -0.113352 
-0.000995027 0.00418244 0.0135863 

-0.0118602 0.0145048 0.00527006 
-0.00968966 0.00974625 -0.00949822 
0.000356264 -0.00107579 0.00577991 

-0.389154 -0.66688 2.72332 
0.0452105 0.380405 -0.952866 
0.0231079 9.66211e-05 0.022445 

-0.0207693 -0.0819511 -0.0146716 
0.0260028 -0.00125954 0.0169788 
-0.000184719 0.00539691 0.0421741 

-0.0108974 -0.0155792 0.0844709 
0.0301484 -0.00766254 0.0447191 
0.00404015 -0.00517792 0.067657 

-0.00824412 -0.00270519 -0.00127928 
0.00372203 0.000289846 0.00247889 
0.000505242 -0.000100995 0.01001 

-0.0255389 -0.138836 -0.0034749 
-0.0105901 0.00121762 -0.315008 
-0.0178183 0.00985252 0.0896049 

-0.0120914 0.0567805 0.0504123 
-0.0718257 -0.00635663 0.0747438 
-0.000721212 0.0310426 0.134038 

0.0397115 -0.0477141 -0.0727169 
-0.0780302 -0.00687954 -0.0148253 
-0.0123789 -0.00781744 -0.102898 

-0.0266672 0.113477 0.0435668 
-0.0853112 -0.00152084 -0.0636175 
-0.00302399 0.00100957 0.124573 

0.0184379 -0.135984 0.221547 
0.0753614 0.0197802 -0.497383 
0.00399783 -0.00565032 0.0564249 

-0.0043629 -0.0754001 0.00970175 
0.0603069 0.00312045 -0.00622462 
0.000738262 0.00156482 0.0128025 

-0.00517855 -0.00565156 -0.01714 
0.00655853 0.00173638 -0.0947088 
0.000505381 -0.00106259 -0.00463658 

-0.0635817 0.196165 -0.348672 
0.0399256 0.13048 -0.333362 
0.00707376 -0.00293816 0.0231485 

0.0242519 -0.212652 0.00626272 
0.244307 0.0145749 -0.0777913 
-0.00984486 0.00670368 -0.00261559 

-0.0089178 -0.0116775 0.0861603 
0.0485071 0.00406851 -0.0584918 
-0.00118824 0.000591676 -0.0166648 

-0.137628 -13.3169 1.02116 
-0.0193492 0.346801 0.0529109 
-0.00180403 -0.10215 0.00413367 

0.025182 -0.0519837 0.0163096 
0.0398297 -0.0100345 -0.0134288 
0.0020414 0.00122619 -0.0220232 

-0.00270029 0.00490836 -0.0326114 
-0.0529568 -0.0744741 -0.0953701 
0.00707906 -0.00716744 0.069438 

-0.00924899 0.00955173 0.416713 
0.00269627 -0.021248 0.665462 
-0.000432782 -0.00369528 0.843174 

-0.00485736 -0.00830257 0.00508963 
0.00524759 0.000478178 -0.000522539 
0.00284222 0.000774767 -0.00273125 

0.0128526 0.0122593 -0.0183007 
-0.0382755 -0.0108527 0.0638663 
-0.000746993 0.00602746 0.026113 

-0.1873 0.0306374 -0.345723 
0.130078 0.112104 0.347318 
-0.00548115 -0.00154691 0.179066 

0.000365036 0.0357495 0.173026 
-0.0605343 0.0242687 -0.226098 
-0.00264758 0.00169923 0.00258278 

6.79887e-05 -0.00615381 0.00725227 
0.00321817 -0.003177 0.0416174 
-0.00818724 -0.00181079 -0.0226296 

-0.0593469 0.20985 -0.132288 
-0.0113529 0.0859806 -0.186104 
0.00614128 -0.0191163 0.10335 

-0.00896334 -0.0109489 0.0169337 
0.0163956 0.00420607 -0.233643 
-0.000536444 -0.00132035 0.102821 

-0.0256237 -0.0986163 -0.00602841 
0.070551 0.0210925 0.00897219 
0.00846557 0.027526 0.0778574 

-0.22789 -0.103937 -0.0881212 
0.0932834 0.0880468 0.575146 
0.0152887 0.0186099 0.129965 

0.00118983 -0.0486975 -0.00416285 
0.0368933 0.00636939 0.0969306 
-0.00202912 -0.000455306 0.016783 

-0.000196929 -0.0131567 0.00678629 
0.0151298 0.00154535 0.0608917 
-0.000172931 -0.000109536 -0.00795452 

0.049925 -0.080055 0.0135937 
0.0207313 -0.0399022 0.506551 
-0.0442435 0.0527417 -0.0133142 

-0.0140578 0.00182953 0.152099 
-0.00900506 0.000877751 0.310444 
-0.000213758 0.00111786 -0.00570123 

-0.0681921 0.0882288 -0.351213 
0.0534951 0.0555106 -0.170937 
-0.000617784 -0.00355228 -0.0208258 

-0.078562 0.0377453 -0.301872 
-0.0187973 0.0451119 -0.412222 
0.00959668 0.0308642 0.262719 

-1.19811 -1.13993 -2.10624 
1.05022 0.737376 1.78538 
0.0354852 0.00406587 0.526144 

-0.101011 0.034541 -0.0982296 
-0.130866 0.041974 0.064282 
-0.0165147 0.00344053 -0.0496147 

-0.00160029 -0.0116782 -0.354291 
0.00559263 0.00157787 -0.315125 
-6.65527e-05 0.000948493 0.0382911 

-0.0213118 -0.00256143 -0.00215112 
0.0171244 -0.00973877 0.00263206 
0.0016517 0.00022478 0.0519695 

0.00612563 -0.0823868 -0.215975 
0.0468626 -0.0166377 0.18884 
-0.00923768 0.013642 0.142364 

-0.0124206 0.0134492 0.153912 
-0.000608963 0.00673839 0.196907 
1.86471e-05 -0.00285252 0.00850535 

0.000106732 -0.0194103 -0.00220536 
0.0101625 0.00307474 -0.00222142 
0.000245657 0.000288764 0.00439013 

0.00362112 0.017834 0.00860092 
-0.0123402 0.00403801 -0.00872356 
-0.00157507 -0.00195304 -0.00601989 

-0.029489 0.0595624 -0.296225 
0.0973416 0.0180545 -0.268138 
0.00635512 -0.00377388 -0.126384 

0.00931264 -0.807799 1.14046 
-0.0674936 0.0048908 0.153114 
0.0114374 0.0244085 0.147826 

-0.00295229 0.00104988 0.075662 
0.00298118 -0.00235605 0.630929 
0.000727129 0.000460187 -0.0343373 

-0.00422519 -0.00316908 -0.00625421 
0.0245185 0.00776758 0.0320182 
-0.000202949 9.88631e-05 0.0023643 

-0.0420538 0.0281454 -0.167612 
0.0264691 0.0329575 -0.0919117 
0.0004195 0.00285811 0.0361491 

-0.977285 -0.0504601 -0.722095 
0.0560621 0.486963 0.771882 
0.0769014 -0.0844105 0.231579 

0.00445187 -0.131866 0.0729443 
0.128381 0.0100456 -0.0700506 
0.0035589 0.00170177 0.0328751 

-0.100456 -0.0215324 -0.248881 
0.0865926 -0.0159285 0.199012 
-0.00436033 0.00290032 -0.0241271 

-0.19636 0.0566666 0.259678 
-0.401445 0.111405 -0.048611 
0.00663861 0.044591 0.0772529 

-0.000426351 0.00258922 0.00300398 
-0.00630406 -0.00246727 -0.00758027 
-0.000176959 -0.000277803 0.00271244 

0.0622875 -0.312478 -0.116688 
0.271077 0.053975 -0.0933616 
0.0112734 0.0521017 -0.22034 

-0.00882882 0.000369064 -3.51051 
-0.00317407 0.0171805 6.55359 
-0.000972634 0.00293633 0.983498 

-0.0160149 -0.00502379 0.0137164 
-0.00939465 -0.00938869 -0.0355208 
-0.000188287 -0.00193461 0.0465487 

-0.00266877 -0.012972 -0.00157838 
0.0107925 0.00485935 0.015429 
0.00206782 0.00120199 0.00486523 

-0.00872325 -0.0142818 0.0041745 
0.00562619 0.0107917 -0.000373236 
0.00957686 -0.00746812 0.0212037 

0.0319548 -0.0998108 -0.113135 
0.077713 -0.00503596 0.0518574 
-0.000234595 -0.00024733 -0.0479519 

-0.0536099 -0.0140694 -0.0087964 
0.0862078 0.0741145 -0.179291 
0.00691912 0.0020422 0.0180304 

-0.403792 -0.619171 1.73399 
-0.0105593 0.26345 -0.0253041 
-0.00409625 0.00279626 -0.0544173 

0.0085474 -0.0245417 0.0563359 
0.061782 -0.00119088 -0.0340477 
0.0947134 0.125035 1.34198 

-0.0872886 -0.015683 -0.522707 
-0.00111125 0.00089614 -0.687779 
-0.00115952 0.000234469 -0.0407339 

0.0405751 0.0321501 -0.0503019 
-0.0704009 -0.00289888 0.0166149 
0.00474039 -0.00447665 -0.0541993 

-0.0352758 0.0246284 -0.174187 
-0.077406 0.0560394 0.212352 
0.00150025 0.000512744 0.00186779 

0.00860224 0.0578219 -0.537019 
-0.0912843 -0.0288002 -0.199004 
-0.000654592 0.0019818 0.00847005 

-0.162021 0.276889 0.423421 
0.110505 0.171822 -0.0173624 
-0.0698054 0.0702795 0.432497 

0.0207051 -0.0592764 -0.768597 
-0.0238425 -0.00344816 0.508346 
-0.00141292 -0.000112231 -0.0210357 

-0.318403 0.496107 1.1383 
-0.426043 0.36133 0.823061 
0.00420827 0.0689698 0.159318 

0.000188328 0.052296 0.00372649 
-0.0673394 -0.00413776 0.0523295 
0.00429412 -0.0113298 0.0212293 

-0.0133531 0.0189872 -0.152132 
-0.0252494 -0.001924 -0.44355 
-0.00398992 -0.00395396 -0.231173 

-0.000559715 0.00382809 0.011753 
0.00803722 -0.00213108 0.000761156 
-9.22028e-05 0.000245629 -0.00165456 

-0.00697501 0.0141959 0.00957482 
-0.0127359 0.00628278 -0.00502975 
-0.000758495 -0.00193479 0.00280065 

-0.0537677 0.086577 1.02905 
-0.139944 0.0473366 0.685411 
-0.0204515 -0.0390416 0.346849 

-0.0243068 -0.0468891 -0.264878 
0.0184144 0.0579523 0.0798568 
0.00137332 -0.00200046 0.0300738 

-0.00372976 0.142717 -0.0332456 
-0.150323 0.0318672 0.0973685 
0.00142321 -0.000498138 -0.0436223 

0.00022057 -0.0755885 0.329861 
0.0760842 0.0156633 -0.181431 
0.0350029 -0.0564584 0.0892007 

-0.0041493 0.002047 -0.0376633 
-0.00535816 -0.00543134 0.0307642 
-0.000920281 -0.000207475 0.0398174 

-0.00735252 0.00764656 0.0506615 
-0.021986 -0.00239565 0.0416822 
-0.000210437 -0.00031986 0.0263213 

-7.42795e-05 -0.0139889 0.00572345 
0.010186 0.00242342 -0.0113464 
-0.000175561 0.000450087 -0.00161156 

-0.00208132 -0.00282599 -0.338028 
0.000833638 0.00039903 0.214881 
-0.000112891 8.76148e-05 0.00634668 

-0.0198831 -0.0284053 -0.0690998 
0.0285308 0.0334259 -0.309821 
-7.47035e-06 0.00288973 -0.0268247 

-0.00935172 -0.00305507 0.0628654 
0.0013955 -5.99985e-05 0.236493 
0.000319086 -0.000334058 0.0425642 

0.042511 -0.622357 -155.46 
0.00459058 -0.00549305 -12.5018 
5.59187e-05 -0.000544377 0.080955 

-0.0100944 -0.00138313 0.021696 
0.000331407 0.00423227 -0.00927484 
0.000178929 0.000101438 0.00408451 

-0.297257 -0.0876375 -2.28021 
-0.172873 0.154715 0.246852 
0.0388395 0.0131255 0.148353 

-0.26883 -0.115739 1.95492 
-0.103571 0.0726461 0.364763 
-0.0206281 -0.00561966 -0.0221858 

-0.00903758 -0.0118354 -0.285374 
6.57552e-05 0.00421437 -0.199621 
0.000491882 -6.93527e-05 0.144869 

-0.0961718 0.0249062 -2.25832 
-0.108909 0.110505 -3.74036 
0.00812742 0.0047268 -0.304427 

0.0222057 0.0368296 -0.255803 
-0.0704074 -0.00822327 0.0937666 
0.0274402 -0.00819354 0.0445359 

0.0595165 0.120226 23.2018 
0.315486 0.201004 6.31681 
0.00656603 0.0100299 -0.178132 

-0.066473 0.134414 -0.771786 
0.0257922 -0.190134 0.800931 
0.00653821 0.0293765 -0.000111939 

0.000762605 0.116184 -0.810213 
-0.0421694 0.00538408 0.0348012 
-0.00506419 0.00527119 -0.0882169 

-0.00532597 -0.0392733 -3.31493 
0.11648 0.0657289 -1.41145 
-0.00140388 0.00221084 0.075312 

0.131268 -0.0919266 1.88885 
0.0112015 0.0705826 -1.39219 
-0.000692906 -0.000120358 0.0203108 

-0.13215 0.14547 0.0439386 
-0.179682 0.145059 0.000346063 
-0.000153824 -0.0147781 0.0346425 

-0.00346018 0.02367 0.0247084 
-0.0186061 0.0100259 -0.0243604 
-0.000628606 0.000573177 -0.00877061 

-0.00635441 -0.00471563 0.0100586 
0.0075689 0.000406695 0.000364709 
-0.000204204 7.48178e-05 0.00718301 

-0.00575502 0.00798182 0.000752905 
0.00118269 0.00304766 0.0542248 
0.000144048 0.000207469 0.00262329 

-0.00501008 -0.00202477 0.0266152 
-0.000408628 0.000943829 0.00502031 
-0.000267327 4.91646e-05 0.00660375 

-0.00682235 -0.00112445 0.0144499 
0.00287323 0.00133207 -0.0118389 
-0.000446641 0.000613393 0.0119376 

-0.0289982 -0.0201892 0.135502 
0.00552611 0.0309815 0.0858396 
0.00328245 0.00119097 0.022255 

-0.0180303 -0.0594392 0.156214 
0.0334547 0.0105244 -0.0388589 
0.000570578 0.000671997 -0.0140643 

0.0263564 -0.00657975 0.0290079 
-0.00663979 -0.00350615 0.0806371 
0.001901 -0.00546169 -0.0586409 

-0.023212 -0.0752954 0.0904884 
0.121609 0.0202316 0.0794498 
-0.00458449 0.00270496 0.133658 

-0.0733708 0.0803934 0.0633912 
0.0308018 0.0843952 0.0585815 
0.00128608 0.0254034 0.790555 

-0.0184546 -0.0136474 0.161462 
-0.0395248 0.0219583 0.128594 
-0.00868321 -0.00776584 0.104894 

-0.0102138 -0.0100826 0.000606741 
0.0111639 0.00541923 -0.00650915 
-0.000136472 0.000385991 0.00576627 

-0.00919524 0.0386437 -0.164381 
-0.0507792 -0.00323323 0.0251553 
0.000730788 -0.000727953 0.0154213 

-0.209046 0.0118345 0.454623 
0.170746 0.0200847 0.103422 
-0.0362943 0.0405677 0.538186 

-0.0083239 -0.0214471 -0.142459 
-0.0111942 0.00549864 0.173731 
0.000219474 -0.000453165 0.0078394 

-0.230863 -0.0617108 0.951875 
0.0667937 0.233396 -1.24917 
0.0220987 -0.0645893 0.188554 

-2.98667 -0.555611 -0.658588 
0.645493 0.531029 0.485477 
-0.0431793 -0.0624724 0.250842 

-0.0140289 0.0179073 -0.100078 
0.00789785 0.0063644 0.0131291 
-0.0112303 0.00167614 0.131481 

-0.0219918 0.0446122 0.0159223 
-0.0499809 0.0218509 -0.0428387 
0.00501902 -0.00381115 0.0073651 

-0.0352492 -0.0105209 -0.262435 
0.026886 0.0154718 0.00893821 
0.0229845 -0.0162372 0.0148385 

-0.0296644 0.00410987 -0.0715235 
-0.0254606 0.0233549 0.0200858 
0.000994024 0.00282851 0.0177179 

-0.0135598 -0.0602895 0.141135 
0.062098 0.0556725 -0.191039 
-0.033511 -0.0135388 0.0156577 

-0.0689375 -0.061505 -0.223917 
0.00826911 0.0651992 -0.0616956 
-0.000103696 -1.61417e-05 0.0241703 

-0.0097628 -0.171444 -0.101024 
0.166429 0.0482687 0.314353 
0.0287113 0.0469627 0.344899 

0.00759521 -0.132886 -0.0222202 
0.119345 0.0237297 -0.00886066 
0.000229965 -0.00232134 -0.0091288 

-0.0421077 0.0261432 -0.0409569 
-0.000313604 0.0214881 -0.00196432 
0.000822277 0.000125302 0.0302231 

-0.000422974 -0.184508 0.215579 
0.130577 0.0712835 -0.148004 
-0.0171543 -0.022636 0.000731568 

-0.494186 0.129982 -5.35952 
-0.692938 0.415171 -1.47399 
0.0102402 -0.0202736 -0.0671548 

0.00845983 0.0878314 -0.0528083 
-0.000987808 -0.051022 0.106404 
-0.00374326 0.00820505 0.0341525 

-0.00963093 0.0368145 0.107018 
-0.0473832 0.00114626 0.131614 
-0.000472535 0.00102467 0.0150788 

-0.0114577 0.0290798 -0.021209 
-0.0344516 -0.00706536 -0.0119388 
-0.00194925 -0.000919552 0.0582082 

-0.103011 -0.0672883 0.0166383 
0.11562 0.0360965 0.0815779 
-0.09241 0.00571462 0.350459 

-0.0290346 0.0471653 0.0779319 
-0.0189908 0.0059493 -0.0737434 
0.000143359 -0.0101813 0.0714508 

0.0192604 -0.285685 0.598839 
0.279904 0.0881054 0.196976 
0.00107956 -0.0125724 0.138121 

-0.102643 -0.0802367 0.378445 
0.146172 0.0535623 -0.11251 
-0.010885 -0.0161485 0.302237 
