# vtk DataFile Version 3.0
Output file generated by Yade's KinematicLocalisationAnalyser
ASCII
DATASET UNSTRUCTURED_GRID

POINTS 13483 float
661.291 27.7482 -0.443365
867.317 45.3423 -0.553543
129.406 6.20155 -0.380092
914.895 4.26503 0.376889
538.228 7.53877 -0.303963
337.854 34.3821 -0.461428
168.501 6.78553 0.408949
617.402 9.98631 0.137838
535.091 22.4788 0.142813
802.098 12.4044 0.349246
226.284 8.76612 -0.122226
275.916 6.28203 -0.267554
716.097 27.5548 0.15435
691.989 13.8734 -0.0805039
147.736 16.9062 0.436145
237.975 34.0368 0.397483
233.89 12.8649 -0.264701
310.016 9.4332 0.383886
366.003 32.1879 0.425265
566.456 8.49908 0.347255
441.707 36.0391 -0.101968
642.774 43.4888 -0.274611
910.692 31.985 -0.438022
773.098 41.5719 0.435902
494.065 15.9152 0.294217
258.616 43.4673 -0.122333
529.843 26.8429 -0.495539
636.469 18.8996 0.212737
48.4063 15.2311 0.467791
797.712 29.9583 -0.314499
519.682 4.88371 0.313406
17.9693 22.644 -0.288229
882.091 42.768 0.253016
533.724 2.47418 0.479951
84.1689 43.4751 0.101126
563.6 30.1787 0.31889
573.255 16.4481 -0.413526
369.136 21.5983 -0.191562
576.673 25.089 -0.32132
376.774 32.689 0.422127
258.996 14.3267 -0.341693
467.3 34.7825 -0.0621446
746.545 6.84052 0.111259
207.523 6.13545 0.377497
59.7555 6.84022 -0.126215
73.7171 8.72507 -0.266468
765.473 8.5502 -0.515403
25.3737 11.4795 0.291834
665.927 43.2725 0.356379
748.816 22.2604 0.345188
185.515 32.0225 -0.296195
861.958 32.7131 -0.128153
38.0766 27.667 -0.120754
577.452 2.94412 0.319541
153.211 7.41315 -0.465184
645.59 32.9139 0.388653
544.58 25.7309 -0.118503
188.082 0.931524 -0.256761
35.3214 2.43256 0.27979
374.763 17.5239 0.28283
678.141 43.8936 -0.132764
498.212 32.7939 0.189258
429.614 1.03163 0.187257
778.064 7.58217 0.351179
28.4162 42.0067 0.235809
275.763 30.0613 -0.299715
802.238 7.6084 0.232305
739.598 42.8081 0.360103
449.473 8.54473 -0.470924
618.272 3.48372 -0.343069
837.182 28.3816 0.386228
141.046 7.50406 -0.27905
538.19 24.7737 -0.130303
515.079 14.6756 -0.132162
316.762 16.4911 -0.257607
22.413 13.3845 -0.248877
889.287 33.2284 -0.316504
357.737 37.9192 -0.28359
746.071 19.2519 0.313986
765.057 12.2324 -0.241865
898.263 10.8493 -0.204868
501.861 33.9979 -0.164331
99.6878 37.5008 -0.273633
759.208 33.6561 0.220423
712.052 37.0791 0.102468
918.57 35.3951 0.151342
891.032 0.768962 -0.508978
313.259 28.8868 0.417372
680.048 6.31178 -0.101306
26.2422 5.17024 0.454246
143.286 37.3322 0.141339
554.772 14.0435 0.198846
879.082 23.9092 -0.452712
210.924 28.0869 0.259074
47.9809 33.8449 -0.268933
532.579 1.15952 0.109115
253.985 8.80202 -0.353016
841.865 38.8717 -0.253639
865.692 24.5355 0.225268
389.48 20.3062 -0.257237
177.107 26.5135 -0.438419
597.003 37.2751 -0.408981
410.156 15.1054 -0.406463
446.32 29.0416 -0.104365
408.114 4.44171 0.406669
594.847 10.7627 -0.0910671
919.555 11.2323 0.224145
86.8503 38.5579 -0.392404
361.746 4.75832 -0.174503
610.47 9.31199 -0.3254
388.27 43.2709 0.439911
28.1843 24.0127 -0.472467
32.9816 5.66227 0.329008
619.261 31.5918 0.398777
547.869 23.4127 0.141247
28.5603 36.1473 0.408916
100.626 29.9755 0.213156
350.913 15.6041 -0.312558
656.357 18.5685 0.118622
514.813 37.2326 0.30535
822 7.4216 -0.381395
812.546 6.12852 -0.199983
417.963 36.3254 -0.0922584
698.944 24.3886 -0.0987257
257.6 16.8347 0.498347
356.651 3.67016 0.463249
112.041 30.8302 -0.320685
126.042 23.5367 0.2689
592.054 37.8128 0.0763947
330.671 18.4809 0.470372
791.669 33.3214 -0.10232
744.062 42.4456 0.110619
521.38 20.1506 -0.384118
870.049 9.1407 0.356169
464.514 22.9475 0.229008
299.677 23.7783 -0.29817
747.599 30.2889 0.283474
301.641 28.3598 0.38102
629.904 11.3838 -0.186852
359.019 34.6583 0.192595
548.622 11.3089 0.436339
396.918 30.8736 0.0897371
467.003 16.3146 -0.101996
344.295 41.0942 0.341783
206.721 29.3933 0.117734
871.549 43.1223 -0.145782
915.282 11.6553 -0.326096
6.50986 11.8237 0.416217
471.135 22.0171 -0.392852
41.8227 22.1035 0.0956888
407.585 30.5751 -0.465055
428.455 24.3348 -0.261635
81.1831 11.8191 -0.467365
56.4169 32.7228 0.419061
244.99 13.2893 0.395886
679.626 37.4018 -0.408471
632.733 19.9702 -0.475426
81.3501 20.6526 -0.469117
776.277 44.7661 -0.404907
855.436 2.55209 0.415664
731.652 38.8275 0.474739
772.987 2.29155 0.394241
601.473 25.8174 0.38279
644.388 43.6802 0.438293
558.789 17.495 -0.417102
912.121 2.98216 0.357117
242.75 24.3205 -0.111335
138.645 34.3965 0.191794
268.393 6.51265 0.364205
102.823 4.143 -0.244217
69.8419 9.88174 0.199769
299.482 35.2282 -0.30535
18.2338 24.4915 -0.362176
607.967 18.8377 -0.381607
665.569 38.3242 0.218647
503.87 20.7794 -0.356664
902.812 38.7477 -0.347228
442.24 8.4546 0.0842836
474.383 35.316 -0.191678
586.503 3.42297 -0.179224
24.9789 23.4224 0.374509
632.789 4.24976 -0.37012
597.06 4.32983 -0.283914
224.371 11.2433 0.473266
462.703 16.1321 -0.190047
338.373 6.27314 0.31833
421.776 18.6485 -0.338655
827.708 41.2346 -0.118074
209.239 25.0683 -0.434503
882.828 6.44726 -0.349943
826.804 37.42 -0.333044
417.082 10.0535 -0.182608
799.283 2.30975 -0.394165
665.455 24.6816 -0.399852
830.488 17.6419 -0.401016
469.176 41.6703 -0.267247
542.363 12.2384 0.33843
507.623 43.3639 0.219798
485.616 8.54745 0.136201
735.245 37.8304 -0.297673
732.756 34.2425 0.332413
208.85 38.3165 0.343478
896.092 10.9147 -0.147137
647.043 44.2785 0.241628
12.3723 16.6873 0.193173
443.532 25.0025 0.333251
204.144 22.6248 -0.397481
101.377 38.4561 -0.200659
877.012 21.1862 -0.422083
728.005 42.3498 -0.231923
347.08 24.972 0.350996
583.125 10.1042 0.318804
89.6963 43.3048 0.161307
269.535 25.5026 -0.46169
611.027 22.9396 0.356353
531.508 18.2443 0.397318
285.95 0.890916 -0.342385
606.975 39.0094 0.361152
585.009 40.0906 -0.439663
526.696 32.2499 0.380862
545.611 0.769387 -0.483093
784.437 18.027 0.33667
195.853 11.8051 -0.171713
547.392 35.4964 0.43331
620.264 38.5859 0.114445
79.4198 0.945622 0.273065
274.03 4.68848 0.169352
914.402 13.4152 0.246198
898.769 12.7538 -0.409413
921.927 15.7329 -0.533648
330.408 8.42653 -0.227836
837.661 21.7337 -0.397408
443.945 40.5012 -0.315606
489.979 0.812353 -0.398872
719.388 34.4336 -0.497441
29.5863 29.7296 0.301272
359.968 40.3888 0.487602
274.93 2.8317 0.308855
885.139 39.6592 0.189751
796.543 45.275 -0.230506
312.912 10.7787 0.185727
740.428 28.0315 -0.0846406
612.119 2.65201 0.257178
594.73 6.37808 0.412444
105.645 17.8146 0.461623
330.237 1.0321 -0.220567
374.289 2.25945 -0.365442
15.2202 7.61351 0.293479
4.77705 30.3423 0.240987
176.972 18.8782 0.368047
74.5301 40.8605 -0.210373
72.8593 28.1831 0.324185
462.284 14.3157 -0.405572
400.169 34.4453 -0.465572
859.789 34.4864 0.121991
21.3269 3.95537 -0.281268
76.9947 6.78895 0.1287
690.924 36.8076 -0.151754
321.263 0.932322 0.318338
397.902 15.6723 -0.111684
256.954 4.61558 -0.380759
724.253 20.5527 0.181759
493.372 8.25813 0.399633
840.805 19.55 -0.334697
698.239 27.9396 -0.30272
744.966 17.4487 0.0873449
458.631 26.0145 0.497242
111.311 43.8173 -0.308659
595.952 41.1259 -0.0677323
827.709 13.1332 -0.164635
259.363 29.6925 0.242792
35.1623 16.7812 0.16039
366.845 13.592 0.480007
117.682 39.562 0.46131
291.796 41.5499 -0.187237
464.547 1.06786 0.172558
886.239 28.214 0.39182
765.119 0.764003 -0.519416
362.368 3.07335 0.470932
327.11 26.1069 0.134658
506.3 40.2939 0.205437
89.077 7.8867 -0.320286
216.155 44.0534 -0.377745
868.66 26.8899 0.368304
542.337 37.9881 0.0726228
218.432 40.5608 -0.248704
175.586 41.6775 -0.277344
921.362 31.4126 0.436492
917.858 11.219 -0.501637
669.033 3.60961 -0.510894
207.785 24.0672 0.100051
603.686 27.0707 0.101008
605.746 26.675 0.261722
447.025 5.56584 -0.134581
527.24 0.936225 -0.277549
857.55 36.7202 -0.482504
92.9148 30.2054 0.216302
730.323 17.8925 -0.438774
299.434 15.3639 -0.330905
10.7781 2.33458 -0.336096
137.181 36.0889 0.187962
73.2433 22.7368 0.458192
784.104 35.2252 -0.308075
891.469 44.2661 -0.176963
202.988 27.7725 0.17704
909.894 11.3655 -0.294657
49.2135 35.844 -0.245636
99.3612 28.417 0.15916
702.657 12.7975 0.41547
451.763 18.0261 -0.472812
569.847 16.3541 0.117086
260.07 27.7915 0.189803
687.724 4.47813 -0.410443
922.483 10.8129 0.345075
32.8891 30.8553 -0.261219
294.795 7.68742 0.185178
242.548 14.95 0.238739
1.10951 34.8473 0.147594
245.994 14.3694 -0.363163
231.33 10.9061 0.128687
234.27 25.9545 -0.271761
145.604 27.331 -0.13634
601.899 14.7004 -0.328442
182.994 14.1013 0.333867
879.232 41.1181 -0.233104
190.326 3.80652 0.46286
51.8986 37.2836 -0.348682
834.583 47.2474 0.426572
306.803 31.2715 -0.390105
755.352 22.3923 0.428037
895.39 28.8944 -0.462182
328.401 9.04353 -0.113476
824.022 29.0626 0.332901
359.065 2.62847 -0.35575
454.755 23.531 0.37302
751.842 15.5618 -0.245593
115.65 11.7579 0.408926
528.993 3.97011 -0.455147
844.916 17.29 -0.214348
96.6542 7.61886 0.185549
307.525 14.5005 0.20007
463.101 11.5336 -0.193001
910.39 2.60776 0.391296
434.925 1.85691 -0.468692
193.377 38.1187 0.287361
830.508 10.565 -0.274507
140.528 35.4439 0.179121
287.391 30.9916 -0.38122
437.847 21.3105 0.208446
632.498 13.1347 -0.324619
423.37 9.79262 -0.437399
499.927 27.1785 -0.399157
868.181 44.6612 0.421351
52.1239 10.7524 -0.113949
326.861 37.6386 -0.25497
414.972 25.9907 -0.37829
447.767 20.7693 0.243199
572.883 43.9292 0.356527
850.108 35.94 0.212162
739.201 33.6417 0.362162
246.438 33.7994 -0.376871
15.26 30.6262 0.152687
730.98 35.0622 -0.136181
558.736 40.623 0.186561
250.639 38.5807 0.0974687
763.713 30.9985 -0.11024
165.626 9.10089 0.196176
400.773 20.6012 0.272519
508.178 41.2507 0.0977896
452.905 19.3088 0.202594
864.118 46.9856 0.29146
466.018 3.34734 0.41149
54.5883 24.8484 -0.289188
515.225 30.9393 0.345617
475.821 40.5712 0.376124
882.391 34.6074 -0.225901
821.053 27.8397 -0.240308
595.134 18.063 -0.166591
873.018 35.683 -0.0012189
320.329 2.04851 -0.427805
413.66 28.4059 0.453085
31.8582 37.8999 0.2949
828.137 30.1884 -0.132203
674.58 19.3272 -0.462936
507.376 0.781772 -0.477524
138.363 4.43573 -0.283942
467.276 39.1182 -0.111928
13.3385 0.917875 0.308936
909.339 5.31752 0.187909
404.654 38.4182 -0.335858
675.527 7.26936 0.366098
[...]
POINT_DATA 13483
TENSORS Strain_matrix float
-0.100763 -0.152049 -0.749014 
0.0631188 0.0774153 0.681847 
-0.00171474 0.00278703 0.0941242 

-0.0701759 -0.4789 27.2391 
0.0234174 0.161811 -10.0624 
-0.00289717 -0.00288409 1.1509 

-0.0377382 6.89899e-05 0.0381515 
-0.00936114 0.0197989 -0.0381234 
-0.00120527 0.000872048 -0.0377627 

-0.140351 -0.0406271 0.322941 
-0.0213143 0.0737366 0.648253 
-0.00429821 0.0132984 0.202736 

-0.0535878 -0.0131394 0.0425228 
-0.0330788 0.0214681 0.042501 
0.0397711 -0.0307652 0.126451 

-0.0288636 -0.0106804 0.182002 
-0.0145276 0.0168396 -1.44024 
-0.00101992 -0.0156572 -0.0498039 

-0.0385994 0.00174656 -0.00620312 
-0.00833484 0.00795899 -0.00433021 
0.00111115 4.24258e-05 0.0314637 

-0.0230005 0.00957799 -0.00403829 
0.0109583 0.00588566 0.0237742 
-5.09737e-06 -0.000825674 0.0302882 

-0.0258766 -0.00965532 -0.0020767 
-0.00945953 0.0124713 0.0173594 
-0.000427605 -0.000225616 0.00116471 

-0.0502064 0.0265224 -0.0420099 
0.0157549 -0.0018707 0.0535041 
0.000737832 -0.00233701 0.0579825 

-0.0280079 0.00511972 -0.00849395 
0.00257051 0.0108883 0.0356293 
-0.000319761 -0.000572795 -0.00950383 

-0.0253594 -0.00137656 0.0360733 
0.00107581 0.00582504 0.0214587 
-4.40768e-05 6.81894e-05 0.00159961 

-0.0958678 -0.0101577 0.0376447 
-0.058129 0.0946355 0.161646 
0.0246681 0.0279671 -0.0568976 

-0.0218368 -0.0148142 -0.0121656 
0.01073 0.00900764 0.00696751 
0.00135241 0.000362944 0.00984113 

-0.0251594 0.00818475 -0.101398 
-0.0065667 0.00525524 0.461911 
0.00304371 0.00131565 -0.167724 

-0.0271017 -0.00381064 0.15696 
0.0256536 0.0359648 0.494805 
-0.00792074 0.00361653 0.161867 

-0.0489268 0.00134566 -0.0644673 
-0.00955138 0.0148792 0.0383698 
-0.0014409 0.00570886 0.0613184 

-0.0432704 -0.014327 0.0154597 
-0.000947978 0.020562 -0.022302 
0.0438544 0.00370156 0.00228685 

-0.0533035 -0.0165761 0.115131 
0.0179372 -0.000848136 -0.0124023 
0.00356796 -0.00109326 0.0346619 

-0.0281685 0.00562841 0.0302721 
0.0056635 -0.00402785 0.0289977 
-0.00483277 -0.00893009 0.0100693 

-0.0453439 0.00464007 0.0568216 
0.00390887 0.0312512 -0.015508 
0.000276511 -0.000528841 0.0236524 

-0.0227372 -0.0847515 0.306445 
0.013149 -0.0145687 -0.0232724 
0.00621794 0.00349517 0.0907685 

-0.238105 0.213413 -1.41419 
-0.221263 0.219255 1.60371 
0.000535766 0.00162048 0.0103045 

-0.0368379 0.0452544 0.210779 
-0.0739168 -0.00709238 -0.367375 
-0.000182984 -0.00722831 0.06634 

-0.0115214 -0.00602946 -0.0596402 
0.00150961 0.00902824 -0.062776 
-0.00815404 -0.0053873 0.100712 

-0.0656465 0.0359187 0.0011538 
-0.0238981 0.0406163 -0.00780276 
-0.0337687 0.0405256 0.244091 

-0.0263417 -0.00495069 1.26522 
0.00639463 0.0183451 0.106433 
-0.00015688 -0.000633225 0.380961 

-0.0655761 -0.0190862 0.0175596 
-0.0345815 0.0506602 -0.0634442 
-0.0217536 -0.0116645 0.138573 

-0.0258336 -0.0183595 -0.162193 
0.0109257 0.00646375 0.0061977 
-0.000441056 -0.000818118 0.0694089 

-0.00399722 0.000438838 0.00750618 
-0.0309197 -0.0028613 -0.135276 
-0.0100166 -0.0273531 0.0774665 

-0.0190038 0.0100189 0.0111007 
0.00538554 0.0101805 -0.0483423 
-0.000397363 0.000807668 0.0112825 

-0.0526711 -0.0133898 -0.0470868 
-0.0290522 0.0190663 0.0382918 
-0.00271405 0.000172202 -0.00206669 

-0.02283 -0.0930512 -0.125601 
0.105522 0.0151315 -0.0785739 
0.0153885 -0.00605781 0.0189838 

-0.0578248 0.0275814 -0.47438 
0.00155739 0.0346386 -0.510716 
0.000273933 -0.00405045 0.12594 

-0.00984045 -0.00281801 0.016018 
-0.0125943 -0.0272017 0.227674 
0.023861 -0.0398243 0.0794842 

-0.0313226 -0.00752214 -0.697121 
-0.0397775 0.00999566 -1.31383 
-0.000569272 0.00295183 0.141924 

-0.024572 -0.00736452 -0.43345 
0.0172852 0.00645378 -0.0197819 
0.0016643 0.000196251 -0.0127396 

-0.0527056 0.0317816 -0.0116195 
-0.0532281 0.0243475 0.0169562 
0.00105136 0.000334099 0.0103158 

-0.03413 0.0121873 0.0155046 
0.016063 0.0131435 0.140799 
0.000831233 0.00131844 0.0159406 

-0.0488367 -0.0381237 0.533345 
0.0135147 0.0561543 1.8097 
0.000663561 0.00369048 0.260095 

-0.0466036 0.00535292 -0.0116164 
-0.000313791 0.0219148 -0.0454046 
0.00230945 -0.00392086 0.101185 

-0.022961 -0.0123571 -0.0672181 
-0.000515004 0.0138593 -0.184345 
0.00136215 -0.00112342 -0.0137709 

-0.0713723 0.0324688 0.10973 
-0.0341038 0.0395625 0.0346559 
0.000828971 0.0260877 0.083766 

-0.0190874 -5.70286e-05 0.0268946 
-0.00187576 0.0104738 -0.0197169 
0.00465243 -0.0016316 0.0322927 

-0.0339685 0.00731763 -0.0229447 
-0.015339 0.0102668 0.00893012 
-0.00154771 -3.79442e-05 0.00736642 

-0.0335189 0.0139952 0.00672895 
-0.0294523 0.0263561 -0.0899006 
0.000280634 -0.00134574 0.006818 

-0.0582377 -0.00341154 -0.58831 
0.0204796 0.00206909 1.92364 
0.00147452 0.0172493 0.294552 

-0.0229594 -0.00501077 0.0128578 
0.000129599 0.017675 0.00573302 
-0.00260074 -0.000609152 0.00380725 

-0.0698715 0.0622863 -0.0698648 
0.0109909 0.0363291 -0.0383767 
-0.0589624 -0.0316321 0.288819 

-0.0504791 0.0156559 0.0320355 
-0.0375128 0.0445919 -0.0422803 
0.00291731 -0.00212278 0.033852 

-0.0155769 -0.109117 0.07845 
-0.00404746 0.000779288 -0.0947881 
-0.00138474 0.00286683 -0.00445206 

-0.0132965 0.0254123 0.614227 
0.0574015 0.0181274 0.21815 
-0.000695377 -0.00143198 0.0442492 

-0.0369745 0.00838182 -0.0641219 
0.0104631 0.0140388 0.00573957 
-0.00105116 -0.00132399 -0.00915301 

-0.0372355 0.0047633 0.0531305 
-0.00988628 0.00749685 0.0742821 
-0.000415531 0.00030059 0.0377566 

-0.0489212 0.00353084 0.00185127 
-0.00354487 0.0153712 -0.011564 
0.00568327 0.0274655 -0.0677293 

-0.0513003 -0.0156628 -2.74509 
0.00625948 0.0308531 0.58959 
-0.0304025 0.03664 -0.160009 

-0.0117442 -0.000547028 -0.027405 
0.0119063 0.0197906 0.0453626 
0.00132039 0.000911332 0.0105872 

-0.0450504 0.105791 0.124887 
0.0029721 0.016526 -0.00130797 
0.0107411 9.28135e-05 0.172883 

-0.0148304 -0.00225998 0.0477057 
-0.00733899 0.0037972 -0.00865024 
0.00012604 9.36979e-05 0.021747 

-0.0308047 0.0206186 -0.0891337 
-0.0255741 0.0173914 0.283064 
0.000976841 0.00211302 0.0391959 

-0.023787 0.104241 0.0326584 
0.00474182 0.0317379 0.0204883 
0.0088353 -0.000781407 0.125562 

-0.0214674 0.00173077 0.199092 
0.0143906 0.0150153 0.0183513 
-0.000710309 -0.00209617 -0.012292 

-0.0283738 -0.0270208 -0.0929773 
-0.000706279 -0.00785272 -0.037915 
0.00113054 0.0336913 0.0690167 

-0.0434245 0.000362209 -0.245321 
0.0103663 0.0106395 0.0292195 
-0.0017864 -0.00100036 0.0495265 

-0.0334535 -0.0195696 -0.015672 
0.00579498 0.0448607 0.162184 
0.0397944 0.00439398 0.568703 

-0.0379407 -0.00555522 0.0671117 
-0.0119322 0.0349267 0.102792 
-0.0248953 0.00135631 0.104526 

-0.049517 0.0513326 -0.0111724 
-0.0347688 0.0186567 0.0237854 
-0.00534005 0.00214677 0.040475 

-0.0638043 -0.090057 -0.468946 
0.0892427 0.0454462 0.187382 
0.00626717 -0.0076751 -0.161089 

-0.0337635 -0.00502776 -0.0208467 
-0.00464944 0.0139961 0.0272092 
0.000106399 -4.52287e-05 0.044973 

-0.0440538 0.0117869 0.0138069 
-0.0114198 0.0099991 0.019385 
-0.000470869 -0.00171665 0.0519528 

-0.0975467 0.182845 0.568286 
-0.029906 0.115609 0.480735 
-0.000313685 7.88073e-05 0.0175644 

-0.0198123 -0.00425782 0.0277427 
0.00392435 0.0104131 -0.00245213 
-5.52512e-05 -0.000681055 0.0102305 

-0.0149665 -0.0304755 -0.154311 
-0.0160285 0.0241276 0.0115422 
0.000887113 -0.000498997 -0.0175307 

-0.0231731 -0.0163748 0.0514198 
0.000496073 0.00912217 -0.0563971 
-0.000934281 0.000294132 0.0408877 

-0.0257519 0.0232459 0.0722321 
-0.0123646 0.0140157 -0.176878 
-0.000451685 0.00213057 0.039178 

-0.0334485 0.00404403 0.0136928 
0.00856714 0.0186792 -0.0105549 
0.00380642 0.000310277 -0.00292781 

-0.185432 -0.0499439 -0.485883 
-0.0469054 0.145226 -0.486469 
-0.010709 0.0249925 0.190255 

-0.0413457 0.0139582 -0.0647279 
-0.0305902 0.0235509 -0.197877 
0.0178097 -0.00628672 0.188738 

-0.0366408 -0.00121822 0.0137423 
-0.0218865 0.0255913 0.0336377 
-0.000730247 -0.00277913 0.0374008 

-0.0425583 -0.0302646 0.0170925 
0.0361061 0.00748375 -0.00530028 
0.00200195 0.000377024 0.053975 

-0.0637545 0.042324 -0.0446713 
-0.0641076 -0.00175469 0.0181817 
-0.00478468 -0.00220759 0.132732 

-0.0145789 -0.00635587 -0.0634582 
-0.0026115 0.00279356 0.0352046 
0.00182575 0.00130448 0.0199038 

-0.0121596 -0.0202797 -0.0341012 
0.014901 -0.00540283 -0.0999173 
0.0357125 -0.0376864 -0.30332 

-0.04248 -0.0955106 0.0113 
-0.00581911 0.042135 -0.11064 
0.0122297 -0.00506507 0.109721 

-0.035987 0.00133046 0.0102529 
0.0452301 0.00224977 -0.0643457 
-0.0403719 0.0299331 0.156819 

-0.217845 0.276183 0.242202 
-0.204302 0.186571 -0.266972 
0.000159101 -0.0257728 0.379534 

-0.132077 0.524074 -0.540198 
-0.00324798 0.75317 0.709504 
0.00288191 -0.0435167 0.0716288 

-0.040272 -0.0153587 -0.0638779 
-0.00788508 0.0509891 -0.15739 
-0.00287213 0.00438178 0.17212 

-0.0235903 -0.0144269 -0.00572525 
-0.0226313 0.00321894 -0.0278568 
-0.0031313 0.000861613 0.0261146 

-0.0363914 0.0101832 -0.196213 
0.00300979 0.0117279 -0.0238078 
-0.000687281 0.00990811 -0.202348 

-0.00658584 0.0279492 -0.0378837 
-0.0163254 0.00241637 -0.00342644 
-0.0083445 -0.0157458 0.0634388 

-0.0330852 0.0143841 0.00819744 
-0.00699353 0.00856596 0.00980717 
-0.000249554 -0.00038557 0.0353689 

-0.0495155 0.046292 0.152489 
0.064647 0.0503128 -0.973385 
-0.00606756 0.000858298 0.185927 

-0.0436783 -0.0235653 0.0721852 
-0.00316647 0.00613934 -0.0256996 
0.0013966 -0.00112423 0.02079 

-0.0225839 0.0039979 -0.0717838 
0.00811648 0.023263 -0.358014 
-0.0029979 0.00301928 0.125608 

-0.0433453 0.0420025 -0.0666761 
0.00416709 0.0319399 -0.0112024 
-4.54524e-05 -0.0155706 0.0595066 

-0.0322734 0.0189344 -0.0563919 
-0.00670649 0.0146861 -0.0108367 
-0.00206321 -0.00041601 0.00286985 

-0.23459 0.217723 0.013185 
0.145335 0.13078 0.209725 
-0.0437358 0.00770948 0.499736 

-0.0565641 0.0409094 0.0895766 
-0.0808249 0.104096 0.0711846 
0.00269657 -0.00519688 0.0492525 

-0.0224896 -0.0149672 -0.103643 
0.0088461 0.00638393 0.0348668 
0.000305679 -0.000381001 0.0145946 

-0.0332212 0.0143727 0.682135 
-0.018283 0.0109353 0.0860087 
-0.00143424 -0.000336686 0.029521 

-0.0381082 0.0017261 0.162865 
0.00531531 0.0165432 0.32486 
-0.0044089 0.000256239 0.118367 

-0.0493574 -0.0273437 0.0486512 
0.0322179 0.0378413 0.282456 
0.00768868 0.019988 0.230541 

-0.0475853 0.0330646 0.0603471 
0.0206486 0.0359043 -0.0728894 
-0.00395975 -0.0172759 -0.0133302 

-0.0285224 -0.00749027 0.500719 
0.00477884 0.0138519 0.282194 
0.00499211 0.00269377 -0.191399 

-0.0407832 -0.00656144 -0.00299885 
0.00137164 0.0200264 0.00361274 
-0.00257138 0.00113542 0.00444171 

-0.131681 0.0513434 0.0597369 
-0.0101474 0.0172394 0.0261105 
-0.00147276 -0.00888899 0.180043 

-0.0237396 -0.0061651 -0.422303 
-0.0256453 -0.00439714 0.250524 
0.00904526 0.00748164 0.21155 

-0.0464273 0.0191715 0.0795095 
0.00668672 0.008791 -0.0330927 
0.0023176 0.00200745 0.0445314 

-0.0337067 0.00186019 0.0475029 
-0.00293365 0.00964736 0.00107778 
-0.00262817 -1.18045e-05 0.0184432 

-0.03431 0.0439058 -0.263853 
0.0144975 -0.00727827 -0.0646581 
0.0021404 -0.0022238 -0.05389 

-0.0147552 0.00500466 -0.261623 
-0.00559817 0.00530521 0.557719 
-0.00170754 -0.000139444 -0.0102341 

-0.0222263 0.0105664 -0.00437481 
-0.00425441 -0.000468824 -0.00738268 
-0.000368908 0.000869275 0.0435603 

-0.0273209 -0.0437298 -0.095651 
0.0794355 0.0318457 0.314121 
-0.0268616 0.0642156 0.0588824 

-0.0178771 0.068326 -0.108371 
-0.0522557 0.028478 -0.181388 
0.000484257 0.00129425 0.0168814 

-0.0315577 -0.0100177 -0.493314 
0.0185861 0.0166365 0.56175 
0.00167607 0.0120228 -0.214058 

-0.0896431 0.0145214 -0.400069 
0.097426 0.0700313 0.174112 
-0.00382375 0.00115325 -0.013944 

-0.0199437 -0.000922879 0.0183819 
0.00212974 0.00702524 -0.000156481 
-0.00491 0.00774993 0.0246832 

-0.0238039 0.0311377 0.0768828 
0.00437338 0.02665 0.177125 
0.00297023 -0.00158363 0.0287339 

-0.0161632 5.33586e-05 -0.241782 
0.00790004 0.0101626 0.194896 
0.0264718 0.00336259 -0.0605138 

-0.0658551 0.0210343 -0.0432446 
0.0397505 -0.004936 -0.0343623 
-1.71471e-05 -0.000553125 0.103782 

-0.061332 0.0365857 -0.0058646 
-0.0451029 0.029364 0.215367 
-0.00534569 0.00607214 0.221618 

-0.0271933 -0.00363791 0.144814 
0.000904702 0.00438415 -0.0078753 
-0.0376273 0.016876 0.0581815 

-0.0207381 -0.0321073 -0.0167973 
0.0284314 0.0241228 -0.0122828 
-0.00181232 0.000626786 0.020327 

-0.0305058 0.00634313 4.78537 
0.00011733 0.0144196 1.28805 
-0.000491803 0.00150029 -0.377481 

-0.0335569 0.0161464 0.111105 
-0.00661661 0.0125302 0.432969 
-0.000594483 -0.000256528 0.032075 

-0.0364812 -0.0303723 -0.126369 
0.00466293 -0.0106626 -0.00869752 
0.0194475 -0.0108506 0.0782802 

-0.04705 0.0297047 -0.372856 
-0.0247612 0.0728075 0.171888 
0.000496035 -0.000842428 0.0221748 

-0.0201453 0.00109229 0.00307119 
0.0146167 0.00849105 0.00767101 
0.0250353 -0.0202647 0.199825 

-0.031625 -0.0070933 -0.396129 
0.00861384 0.00942334 -0.200515 
-0.00427241 -0.00245597 -0.304291 

-0.0177728 0.0121173 -0.048231 
-0.0171438 0.0116109 0.049903 
0.00148416 -0.00347169 0.0181833 

-0.0739969 -0.0166236 0.0450547 
0.049139 0.0662674 0.0132615 
-0.0295631 0.0368443 0.413102 

-0.0158876 -0.00155087 -0.116187 
0.02378 0.0215566 0.245363 
4.91998e-05 0.000356748 -0.0145344 

-0.149963 0.168885 0.291248 
0.0566251 0.0112644 -0.0399363 
-0.0395381 0.0329227 0.301763 

-0.0528007 0.030289 0.0849643 
-0.0660916 0.0549341 -0.0650797 
0.000116863 6.92006e-05 -0.00535863 

-0.0429784 0.0163237 0.0151854 
0.0509841 0.0457199 -0.0563582 
-0.00147932 -0.00268791 0.00669471 

-0.0845072 0.00938705 -0.134632 
0.104377 0.08651 -0.354875 
0.00087487 0.00126603 -0.0116148 

-0.0230568 0.0144687 0.11273 
-0.0171592 0.0144906 -0.0030298 
-0.000983528 0.0016264 0.0829354 

-0.0367919 -0.0169467 -0.0221845 
0.00235933 0.0204046 0.0209797 
0.000345429 0.00161541 0.036266 

-0.0191216 -0.048949 0.105886 
0.0394856 -0.0207993 0.173942 
0.0213384 -0.0231721 -0.100524 

-0.0493871 0.00914007 0.06353 
0.00897337 0.0180499 0.0871569 
0.00418116 -0.0180004 0.0537678 

-0.0107315 -0.0179046 0.00647398 
0.0193722 0.0101987 0.0166818 
0.00606262 0.00172743 0.01696 

-0.0256687 -0.0119606 0.0275267 
0.0150251 0.0109026 0.0319633 
0.0438999 0.00842538 0.0189516 

-0.0718844 -0.0311964 -0.0906175 
0.00746043 0.0207274 0.179941 
0.0205784 0.0310318 0.673811 

-0.00803239 -0.0261045 -0.0069846 
0.00870456 0.0103427 -0.000966852 
0.000203723 0.000226231 0.00727835 

-0.178394 -0.261674 -0.108793 
0.0091172 0.223465 -0.282982 
0.027737 -0.0174031 0.824542 

-0.0897379 -0.0270492 0.193917 
0.0477909 -0.0349023 0.0272019 
0.0019818 0.0123083 0.166918 

-0.0302172 0.0105613 -0.472266 
-0.019068 0.0079743 0.525386 
-0.000438531 -0.000826154 0.13193 

-0.015031 0.0122686 0.00946388 
-0.00501138 0.0177031 0.00199631 
4.91274e-05 0.00102152 0.0120055 

-0.0778392 0.0292247 0.18814 
0.0237273 0.0714257 0.0661636 
-0.00235221 -0.00169497 -0.0188568 

-0.0377721 -0.0103263 -0.565408 
-0.0165387 0.0361967 -0.830368 
0.0061188 0.00220326 -0.101736 

-0.0520631 -0.0458529 -0.116973 
0.000792929 0.0309718 0.0599613 
0.0288071 -0.000706913 0.016853 

-0.0473335 -0.027256 -0.143202 
0.00961205 0.0239846 -0.0284586 
-0.00762561 0.00199042 -0.0553206 

-0.0627397 0.0387101 0.0137603 
-0.0387825 0.0292686 -0.798635 
-0.00761554 0.00923928 0.0962891 

-0.0247201 0.00114739 0.0201008 
0.0163677 -0.00140075 -0.0149288 
-0.000178964 -0.00100045 0.033841 

-0.029728 -0.0129285 0.0936187 
-0.00607111 0.00610151 0.0407202 
0.00427665 0.00428421 -0.0803514 

-0.0421747 -0.0614194 -0.58139 
0.0109026 0.0551864 -0.715412 
0.0395181 0.04008 -1.68753 

-0.0360465 0.00706327 -0.411659 
-0.00594342 0.0183713 -0.117629 
0.00554477 0.0022068 0.0282428 

-0.0616781 0.00991334 0.0120924 
-0.0364414 0.07354 -0.80106 
-0.00476265 0.0123259 0.0857909 

-0.0612132 0.029301 -0.106238 
0.00475404 0.0232403 -0.0750981 
-0.00161723 0.00260404 0.0216822 

-0.0439283 -0.00885954 -0.67253 
-0.00496899 0.0493874 4.71038 
0.000729087 -0.00392395 -0.24744 

-0.0306237 -0.0121047 0.0474876 
-0.0102942 0.0104473 0.108974 
-0.0163198 0.0114619 -0.0154829 

-0.0376132 -0.0436947 0.232318 
-0.0295357 0.067547 0.261946 
0.00123082 -0.0015546 0.0121202 

-0.042488 -0.0292844 -2.74009 
0.00253603 0.0115398 0.629916 
0.00673286 -0.0210054 -1.08859 

-0.0859029 0.0483016 -0.415299 
-0.0276157 0.0563266 -0.442335 
-0.00738059 0.0164968 0.0939545 

-0.171789 0.0336712 0.048917 
-0.0391455 0.0125195 0.0861433 
0.00654364 0.00191377 0.168656 

-0.0617472 -0.0050188 -0.315006 
-0.0364748 0.0237493 0.132516 
-0.00053382 0.00045434 0.017795 

-0.0356014 -0.0162943 -0.00762869 
-0.0181899 0.013233 0.00242503 
0.0386396 0.000978192 0.0170841 

-0.0298765 0.0151176 0.0568303 
-0.00397756 0.0110678 -0.0249249 
0.000715706 0.000977159 0.0172951 

-0.0343232 0.0131857 0.0587812 
-0.00294779 0.0263703 -0.112943 
-0.00895851 -0.00674986 -0.00286333 

-0.0178154 0.00179191 0.00267153 
-0.0103373 0.00564691 -0.0848524 
-0.000237644 -0.0015338 -0.00114841 

-0.0133856 -0.00529989 -0.0845935 
0.0123256 0.0262468 -0.0741961 
0.0132309 0.0049537 0.120609 

-0.0242505 0.0338646 -0.1218 
-0.0203793 0.00792993 0.112344 
0.00190023 -0.00260465 -0.00452699 

-0.036956 -0.0149029 -0.127833 
0.00986598 0.0213274 0.21445 
0.000709897 0.00063588 0.0442849 

-0.0426216 0.032251 -0.0435814 
-0.0261984 0.00629036 0.0137297 
-0.00237226 0.00456647 0.0802636 

-0.0192316 0.00435179 0.0226223 
-0.0117714 0.0105738 -0.0186133 
-0.00190195 0.0010425 0.0330801 

-0.0357055 -0.0105902 -0.0334052 
0.0268357 0.00447898 -0.0569705 
0.0109161 0.00188703 0.0127126 

-0.0327065 -0.0148105 0.031238 
-0.0186537 0.00932026 -0.0204213 
0.00680634 0.00303231 0.0336512 

-0.0218186 0.00755581 -0.139411 
-0.0243809 0.014427 -0.0329989 
-0.00628877 -0.000601341 0.0469642 

-0.0456574 0.021044 -0.0415632 
-0.00687969 0.0131723 -0.0160237 
-0.00746244 -0.0059935 0.00348549 

-0.00809632 -0.00246772 0.173603 
0.00196568 -0.00211817 0.0555825 
5.23625e-05 0.000605725 0.00260504 

-0.0293355 0.0176957 0.100691 
-0.038489 -0.00424488 -0.0385804 
-0.00185257 0.00207066 0.0510354 

-0.0187957 -0.0082269 0.032313 
0.00026339 0.00532359 -0.0189169 
-0.00095498 -0.000823432 0.0111569 

-0.0349784 0.00450609 -0.372017 
0.00146939 0.0103408 1.40791 
0.00135625 0.00152531 -0.103284 

-0.0595898 -0.0267173 0.070596 
0.0332911 0.0358033 -0.0334002 
0.00544172 0.00388165 0.100502 

-0.0310849 -0.00394941 0.0459083 
0.00446484 0.00882403 0.0119663 
0.00212976 -0.00145705 -7.1034e-05 

-0.0142921 0.000232515 -0.0869414 
0.00121873 0.00963107 -0.209089 
0.00156831 -9.04861e-05 -0.0212606 

-0.0319975 -0.0345798 -0.0193619 
0.0352697 0.0107021 -0.00263111 
-0.00306664 0.0236795 0.10296 

-0.0401163 -0.0182615 0.0569913 
-0.0145355 0.00999036 0.0629023 
-0.00181672 -0.00128023 0.0226298 

-0.0978155 0.0216522 0.142386 
0.0296793 -0.00142961 -0.272116 
0.0034395 -0.00127609 0.170922 

-0.0191767 -0.0521367 -0.0688662 
0.0409542 0.00134175 -0.0770762 
-0.00467948 -0.00146192 0.0394223 

-0.049046 -0.0418437 0.025145 
0.0441391 0.0220956 -0.0127744 
-0.000685305 0.000893339 -0.000547214 

-0.131365 -0.0727808 0.177895 
0.06963 0.0599491 -0.26966 
-0.00650065 0.0106998 0.147254 

-0.0764677 -0.0828804 0.205749 
-0.00132887 0.0860869 0.489195 
0.00185099 0.00100601 0.0870469 

-0.0443006 0.0158401 -0.163018 
-0.0221844 -0.0181448 0.249469 
0.00347376 -0.000862662 0.0842092 

-0.0255128 0.00117423 -0.0376696 
0.00667284 0.0083727 -0.0701395 
0.0184144 -0.0172721 0.0238081 

-0.0324984 0.0393511 0.0227434 
-0.0210947 0.0345599 0.0822658 
-0.024536 -0.0367435 0.0495951 

-0.0199936 -0.00054906 0.0605237 
0.00695342 0.00982341 0.139041 
0.0120804 -0.0176462 -0.0821701 

-0.03199 -0.00720832 -0.0425671 
-0.00721508 0.0140533 0.0400479 
1.78481e-05 0.0011169 0.0190366 

-0.0330143 0.00900631 0.0147543 
0.0117428 0.00819166 -0.337272 
-0.0343197 -0.0134559 0.703391 

-0.0213679 -0.00813512 0.0268927 
-0.0076291 0.000535243 0.0571401 