# vtk DataFile Version 3.0
Output file generated by Yade's KinematicLocalisationAnalyser
ASCII
DATASET UNSTRUCTURED_GRID

POINTS 13483 float
646.047 29.1617 -0.424308
840.514 50.6404 -0.515453
126.397 6.21695 -0.402509
875.019 4.00021 0.493945
526.571 7.60663 -0.30255
330.753 34.9194 -0.484008
164.714 6.83376 0.420215
604.06 10.0674 0.139458
523.575 22.9748 0.139038
778.279 13.4903 0.49854
221.271 8.82431 -0.124158
269.983 6.29695 -0.264772
697.889 28.1741 -0.147643
675.525 13.9776 -0.0831924
144.346 17.0453 0.440369
232.68 34.3826 0.399653
228.781 12.9457 -0.268756
303.476 9.53681 0.383263
358.339 32.7309 0.446439
554.17 8.53918 0.349656
432.434 36.3493 -0.10998
627.634 44.3369 -0.276135
871.326 37.1002 -0.451755
751.837 43.9382 0.436087
483.387 16.0176 0.298138
253.123 43.7639 0.12508
518.504 27.4148 -0.48799
622.427 19.4961 0.20943
47.3196 15.3514 0.464094
774.818 32.1021 -0.320662
508.546 4.93961 0.312365
17.4712 22.8947 -0.287721
854.536 49.3338 0.241088
522.262 2.46327 0.491386
82.2086 43.9783 0.100106
551.056 30.5056 0.318725
560.815 16.567 -0.406752
361.748 22.232 0.192326
563.944 25.3346 -0.326186
368.893 33.2715 0.454789
253.408 14.3843 -0.34896
457.517 36.0617 0.0655624
727.153 7.01418 0.109466
202.838 6.179 0.373819
58.4716 6.88654 -0.12636
72.1709 8.78979 -0.264319
745.74 9.16085 -0.481103
24.7395 11.5466 0.283851
650.509 44.6319 0.36027
729.206 22.6823 0.358093
181.539 32.3077 -0.297657
836.095 37.5307 -0.122485
37.0838 27.9372 -0.11811
564.933 2.96105 0.320643
149.719 7.46381 -0.478968
631.1 33.3797 0.393813
532.255 26.7335 0.129417
183.958 0.939771 -0.258718
34.5348 2.42172 0.288519
367 17.6466 0.271959
662.448 44.6757 -0.132776
487.359 32.7468 0.192065
420.696 1.03264 0.193228
756.815 7.76355 0.376149
27.8415 42.5555 0.235916
269.856 30.3455 -0.308054
778.78 7.81934 0.248655
720.007 43.8938 0.370778
440.078 8.56002 -0.484894
605.009 3.51291 -0.341515
811.527 29.9449 0.417579
137.801 7.56472 -0.278217
526.624 25.0439 -0.130018
504.08 14.7416 -0.145242
310.022 16.6846 -0.231739
21.8709 13.5159 -0.262307
861.564 38.5272 -0.315532
350.295 38.1966 -0.292037
726.665 19.67 0.329043
745.4 13.0418 -0.232756
861.412 11.993 -0.206135
490.938 34.2149 -0.164233
97.4859 37.977 -0.276959
738.555 35.8764 0.228302
694.995 39.4645 -0.110216
878.013 40.9128 0.121538
855.346 0.757383 -0.486161
306.567 29.1438 0.422705
663.54 6.49149 -0.125398
25.6252 5.18505 0.462744
140.297 37.7184 0.142806
542.682 14.2326 0.212551
847.914 29.465 -0.520632
206.118 28.4759 0.242593
46.8747 34.0651 -0.280791
521.122 1.15831 0.124114
248.448 8.82011 -0.364898
816.261 42.7116 -0.283102
836.834 29.0495 0.229046
381.302 20.5324 -0.256217
173.263 26.746 -0.436023
583.765 37.9231 -0.425097
401.48 15.2496 -0.423421
436.917 29.3473 -0.105209
399.458 4.453 0.408052
582.018 10.839 -0.0891612
879.306 11.3213 0.197669
84.8251 38.9861 -0.400496
354.154 4.83487 -0.176929
597.228 9.32344 -0.343117
380.133 43.9189 0.442411
27.2058 24.1311 -0.45715
32.1995 5.68935 0.328536
605.295 32.4935 0.427515
535.659 23.4588 -0.140854
27.8905 36.6249 0.41072
98.413 30.4132 0.209194
343.538 15.8063 -0.302696
641.918 18.9621 -0.127926
503.648 37.4906 0.307247
796.428 7.3953 -0.392527
788.265 6.90318 -0.16412
409.234 36.4935 0.0980874
682.715 25.7071 -0.0945006
252.002 16.8526 0.522599
349.142 3.71486 0.459371
109.567 31.2349 -0.34107
123.173 23.8625 0.257652
578.862 38.304 0.080936
323.667 18.5713 0.482417
769.702 35.2635 0.110223
724.097 43.5897 0.121456
510.143 20.4331 -0.373367
838.834 12.8397 0.364959
454.443 23.5857 0.234877
293.382 23.922 -0.298478
727.121 31.6001 0.297435
295.065 28.7048 0.383606
615.981 11.9062 -0.207387
351.468 34.9152 0.19949
536.714 11.3793 0.460019
388.434 31.5049 0.0886885
456.87 16.581 -0.103532
337.121 41.5691 0.416599
202.121 29.7054 0.118236
844.491 48.7608 0.157914
876.063 12.6364 -0.410489
6.35784 11.8728 0.417579
460.966 22.1092 -0.408406
40.8271 22.3517 0.0911835
399.207 30.9648 -0.457074
419.704 24.5705 -0.26706
79.2067 11.732 -0.483711
55.001 33.4008 0.454172
239.626 13.4321 0.415517
663.68 38.049 -0.429136
618.679 20.5877 -0.492934
79.5347 20.8294 -0.478924
755.134 46.9488 -0.404555
827.266 3.9439 0.389723
712.389 39.8018 0.522263
751.81 2.3263 0.394978
588.247 25.7558 0.392032
629.237 44.406 0.439984
546.508 17.6533 -0.405144
872.437 2.79367 0.306137
237.269 24.7284 -0.120745
135.692 34.8549 0.189544
262.598 6.57408 0.37608
100.498 4.24731 -0.253383
68.3402 9.96943 0.21646
292.964 35.7026 -0.319818
17.8736 24.7358 -0.35299
594.743 18.9817 -0.404064
649.984 39.7244 0.240354
493.05 20.9277 -0.363229
874.055 50.8978 0.359541
432.968 8.51917 -0.0990392
464.126 36.5032 -0.244383
573.788 3.43751 -0.181735
24.3313 23.7 0.377323
618.989 4.53373 -0.333311
584.207 4.34248 -0.285875
219.387 11.3183 0.481024
452.763 16.184 -0.195068
331.201 6.28537 0.328196
412.956 18.6892 -0.349485
803.091 42.9062 -0.121468
204.584 25.2924 -0.428869
846.998 6.76411 -0.307256
802.16 39.0125 -0.337574
408.302 10.1568 -0.174833
776.208 2.29886 -0.435446
649.963 25.8288 -0.418804
804.314 17.8275 -0.366992
459.204 43.0981 -0.263319
530.628 12.3312 0.345873
496.628 43.6535 0.218706
475.181 8.59176 0.125337
715.882 38.6532 -0.262812
713.642 35.1538 0.309076
204.457 38.6808 0.336859
859.239 11.9178 -0.20121
631.603 44.8857 -0.2407
12.0986 16.7206 0.226392
434.174 25.1746 0.333487
199.604 22.7989 -0.41036
99.1697 38.9299 -0.202646
844.954 26.3392 -0.426387
709.675 44.7427 -0.236184
339.784 25.2731 0.351424
570.492 10.1672 0.319333
87.6978 43.8286 -0.163287
263.722 25.648 -0.461289
597.911 23.5261 0.355913
520.21 18.4265 0.373633
279.817 0.890697 -0.343363
593.385 39.8816 0.37132
571.941 40.3677 -0.467365
515.316 32.7626 0.396719
533.883 0.777625 -0.493723
762.377 19.1567 0.378127
191.438 11.9804 -0.178693
535.188 36.3035 0.441245
606.441 39.591 -0.134684
77.8239 0.943795 0.273623
268.145 4.7135 0.172024
875.242 15.8794 0.263618
861.789 13.878 -0.42954
882.306 15.8048 -0.514377
323.36 8.47893 -0.227241
810.535 21.6621 -0.424083
434.43 41.0886 -0.327516
479.493 0.814415 -0.398251
700.652 36.9185 -0.635558
28.9144 30.2057 0.297805
352.403 40.8231 0.553131
269.031 2.85123 0.318471
858.191 47.0663 0.197093
774.253 47.9024 -0.244662
306.222 10.8977 0.206956
721.365 28.9023 -0.0853922
599.029 2.64695 0.27045
581.903 6.40853 0.415122
103.27 18.2056 0.480249
323.172 1.03456 -0.222135
366.248 2.26975 -0.361276
14.8646 7.60717 0.368764
4.69822 30.6574 0.244985
172.884 18.7186 0.409468
72.7584 41.2236 -0.207538
71.1027 28.4453 0.326895
452.48 14.3314 -0.433122
391.708 34.968 -0.467457
833.854 39.1546 0.136767
20.7986 4.01035 -0.272048
75.3912 6.83486 0.125113
674.644 37.3927 -0.175166
314.191 0.946012 0.309867
389.537 15.7477 -0.129402
251.34 4.64432 -0.38174
706.134 21.2761 0.215694
482.832 8.29417 0.405734
813.627 19.7428 -0.354796
681.972 28.8999 -0.294214
725.526 17.9391 0.078077
449.269 26.645 0.488865
108.977 44.3375 -0.313707
582.504 41.8007 -0.0668532
801.945 12.9807 0.285771
253.689 29.9316 0.24435
34.2317 16.9402 0.16396
359.171 13.693 0.492305
115.1 40.036 0.464213
285.515 42.0334 -0.188665
454.754 1.09038 -0.212676
854.812 32.7235 0.403996
744.336 0.714801 -0.534529
354.739 3.20402 0.512612
320.29 26.5035 0.137458
495.235 40.6073 0.213167
87.1109 8.03896 -0.412756
211.267 44.7214 -0.377633
840.151 32.9684 0.357178
530.338 38.8817 0.0778437
213.601 41.0117 -0.256183
171.938 42.1397 0.269409
879.66 35.7361 0.401869
877.772 11.9858 -0.539116
653.885 3.44238 -0.466703
203.142 24.2545 0.0971883
590.391 27.8197 0.097641
592.456 27.4154 0.265577
437.676 5.58878 -0.136608
515.91 0.93139 -0.278634
831.632 41.4089 -0.476014
90.7633 30.577 0.211446
711.613 17.9027 -0.521052
292.941 15.4134 -0.341059
10.4402 2.32156 -0.3444
134.263 36.6055 0.192513
71.4633 22.8989 0.471223
762.331 36.8994 -0.325942
861.78 54.853 -0.186455
198.357 28.171 0.178409
871.297 13.1887 -0.385057
48.167 36.1284 -0.238662
97.1981 28.7368 0.162088
685.828 12.6901 0.386384
442.679 17.655 -0.52531
557.453 16.4854 0.119649
254.339 28.0006 0.184915
671.015 4.52365 -0.391403
881.876 11.0693 0.461545
32.0275 31.2589 -0.261924
288.495 7.67966 0.187099
237.232 15.1031 0.246913
1.0935 35.1695 0.147972
240.633 14.4959 -0.369257
226.25 10.9682 0.127846
228.911 26.0021 -0.280387
142.436 27.5478 -0.138347
588.927 14.8976 -0.336969
178.844 14.1664 0.330929
852.104 47.2165 -0.225606
186.092 3.84614 0.487034
50.6237 37.8723 -0.363211
808.606 50.0502 0.427287
300.171 31.6202 -0.394705
735.696 22.9932 0.438394
861.402 35.0544 -0.529944
321.37 9.10827 -0.111421
799.603 30.5792 0.333485
351.502 2.61966 -0.363672
445.406 23.66 0.349901
732.182 16.0206 0.388261
112.977 11.941 0.416523
517.645 3.90576 -0.474557
817.709 17.7474 -0.190757
94.5498 7.69534 0.196725
300.961 14.6138 0.199866
453.344 11.5883 -0.202407
871.009 3.65401 0.602805
425.821 1.93313 -0.512071
189.106 38.8246 0.297483
804.654 10.6017 -0.354651
137.547 35.9162 0.185061
281.233 31.1671 -0.377044
428.665 21.305 0.21596
618.425 13.7328 -0.330568
414.389 9.77888 -0.469207
489.082 27.2799 -0.404343
841.271 49.8111 0.474806
50.9784 10.8296 -0.11867
319.876 38.1477 -0.266837
406.248 26.0128 -0.387743
438.729 20.7924 -0.23979
559.96 44.1703 0.356478
824.436 40.377 0.239472
719.955 34.4698 0.359832
241.029 34.2174 -0.381449
14.8837 31.2032 0.158747
711.847 35.805 -0.180574
546.292 41.0844 0.190995
245.198 38.9189 0.102033
742.661 33.048 -0.113968
161.883 9.17827 0.20355
392.443 20.6031 0.29925
497.123 41.5267 0.100837
443.107 19.2948 0.199884
837.249 51.9986 0.294769
456.284 3.41215 0.42862
53.3286 25.1704 -0.313036
504.072 31.22 0.349975
465.906 41.6759 0.372829
856.822 41.8071 0.223753
796.608 29.2062 -0.220644
582.324 18.1811 -0.178801
846.747 41.6705 -0.324701
313.483 2.19101 -0.439172
405.002 28.4666 0.448235
31.1622 38.3787 0.295914
803.541 32.301 -0.133654
658.685 19.8557 -0.478601
496.45 0.769601 -0.483489
135.152 4.45654 -0.282501
457.276 40.3409 -0.112957
12.952 0.916709 0.311288
870.826 5.6295 0.194825
396.197 38.8633 -0.39056
[...]
POINT_DATA 13483
TENSORS Strain_matrix float
-0.0622714 0.0312821 0.017371 
-0.0814581 0.0509491 -0.364637 
0.000871389 -0.00228185 0.0276685 

-0.0736892 -0.0556749 10.7106 
0.0565588 0.24375 -17.5195 
-0.00565261 -0.0130675 0.735965 

-0.0202894 0.00280524 0.154452 
-0.00500344 0.00695168 -0.0603863 
-0.000516584 0.000391901 -0.0098106 

-0.290146 -0.0742477 0.550374 
0.0291369 0.0477646 -0.202129 
-0.0175921 0.00656498 0.237316 

-0.0168747 -0.000236579 0.0142985 
-0.0110336 0.00380822 0.00455251 
0.00145251 -0.00191693 0.0230382 

-0.0109646 -0.00411247 0.048253 
-0.00985067 0.000974601 -0.219118 
0.00580359 -0.00487935 0.0167125 

-0.0265212 -0.00620744 -5.29584e-05 
-0.000244217 0.00920644 -0.0142839 
0.00106518 0.000272363 0.0112745 

-0.0112792 -0.0102956 0.00140971 
0.0235301 0.00686642 0.00627614 
-0.00129241 -0.000168021 0.00216483 

-0.0385197 -0.00726998 0.0727955 
-0.0378446 0.0258206 0.112043 
0.000657644 0.000200806 -0.0121405 

-0.0697169 -0.0222571 0.178937 
0.0425914 0.00487433 -0.401849 
0.00156738 -0.0318329 -0.191555 

-0.0186807 -0.00218038 -0.017526 
0.00577726 0.00650649 0.0299634 
-0.000395699 -0.000481446 -0.00558502 

-0.016253 -0.00637389 0.0289338 
-0.00246903 0.00181873 0.0180878 
3.49668e-05 -7.87499e-05 0.00480107 

-0.073575 0.281622 -0.0367303 
-0.105946 0.109724 0.203723 
0.00996768 -0.0101513 0.0307199 

-0.0113128 0.0221447 -0.0390115 
-0.0173462 -0.00138877 0.0088463 
0.00280981 0.000993279 0.0243661 

-0.0245041 0.0042181 0.122797 
-0.0154898 0.00248737 -0.0535765 
0.00641054 0.00672773 0.0025282 

-0.0180441 -0.0085927 0.194353 
0.00970415 0.00130056 0.145357 
0.00511184 0.00294698 0.0934436 

-0.0141077 -0.00244789 0.0040726 
0.00254591 0.00484813 -0.00573911 
-0.000129721 0.000331359 0.011962 

-0.0295725 -0.00993417 0.0125424 
0.00357541 0.010625 -0.0378589 
-0.00126752 0.000450425 0.0454731 

-0.0423275 -0.017837 0.0490917 
-0.00353949 -0.00772631 -0.047045 
0.00225933 0.000154964 0.045825 

-0.021069 -1.42033e-05 0.0601709 
-0.00633507 0.00234579 0.0954176 
-0.00289081 -0.00590136 -0.0100791 

-0.0437228 -0.00563068 -0.00651899 
0.0095831 0.0206018 -0.0516905 
0.00338701 -0.000332817 0.0208395 

-0.0590097 -0.0285982 0.0548446 
-0.11753 0.101946 0.00630103 
-0.0395175 -0.0113025 0.509119 

-0.410368 0.135162 -1.4217 
-0.145965 0.293644 -0.223356 
0.00297673 -0.0020634 0.0748532 

-0.0184137 0.0408487 0.165715 
-0.0151252 0.00291132 -0.121206 
-0.00032196 -0.00223863 0.0613567 

-0.0181506 -0.0109908 -0.00644711 
-0.00155007 0.00412085 0.0323643 
0.0047272 0.00455538 0.0829985 

-0.0628132 0.0333539 -0.0371194 
0.0280966 0.0517565 0.021424 
-0.000692596 0.0445719 0.0236729 

-0.0264904 -0.0146075 1.19183 
0.0102257 0.0169449 2.11792 
0.000408806 -0.0025772 -0.295282 

-0.0288505 -0.0237439 -0.060983 
-0.0685741 0.023335 -0.139557 
0.00174223 0.000406024 0.00374783 

-0.0103723 0.00135425 0.0285334 
-0.00671689 0.00577752 -0.165386 
-0.000191921 -0.000821466 0.0316411 

-0.00500192 0.0373036 -0.024398 
0.0696137 0.0148295 -0.0515037 
-0.0225098 -0.00315548 0.180378 

-0.0158586 0.0103251 0.0157548 
0.00870627 0.00603868 -0.0216134 
0.000987894 8.2093e-05 0.00517212 

-0.011605 0.0514097 -0.159342 
-0.0475193 0.0124823 0.00233589 
0.00249337 0.00197261 0.0238679 

-0.00820605 -0.336927 0.0222204 
0.13426 0.0763787 1.66853 
0.0320217 0.0298777 0.497088 

-0.0291492 0.000159965 0.176493 
0.00489697 0.0212011 0.904163 
-0.000736745 -0.000551186 0.29277 

-0.00954766 -0.0142994 0.0408517 
0.0355077 -0.00559744 0.069578 
-0.00927034 -0.0153401 0.0631601 

-0.0302513 -0.0122656 -0.204117 
-0.0233233 0.0048597 -0.152546 
-0.00125368 -5.5285e-05 -0.0266982 

-0.0165126 -0.00328061 0.0608684 
0.00187077 0.0086733 0.0324543 
0.000439223 0.000402327 0.00640974 

0.00822039 0.0907276 0.161809 
-0.00863522 0.00308142 0.344821 
-0.00132851 0.00311727 0.0140191 

-0.0100439 -0.0316716 -0.0555299 
0.0141321 0.0114545 0.105883 
-0.000461716 -0.000305039 0.0176262 

-0.0283489 -0.0266948 -0.0202733 
0.00110806 0.0212731 0.466615 
0.00265486 0.0019236 0.0172116 

-0.0219964 -0.00445547 0.0209398 
0.0101754 0.00861965 0.0137613 
0.000879351 0.000284399 0.0138211 

-0.0397563 -0.0647129 0.113144 
0.0932931 0.0156189 -0.0346886 
0.0203948 -0.0185884 0.705308 

-0.043971 0.0251286 0.0825515 
0.0217157 0.00791852 0.0616536 
-0.0242944 -0.00781111 0.160439 

-0.0142866 0.00391143 0.0550471 
-0.00578866 0.00832946 0.0256817 
0.00505156 -0.00149246 0.0540878 

-0.0191278 0.00716397 -0.0075597 
-0.00455486 0.00808429 -0.00651085 
-0.00104939 -0.000424728 0.00855947 

-0.014682 -0.00800496 0.00277805 
-0.00111953 0.00933088 -0.0214998 
0.000492531 0.000119387 -0.0025254 

-0.103398 0.215462 -0.334523 
-0.0598434 0.0864107 0.11725 
-0.000139798 -0.00706214 0.165581 

-0.0152334 -0.00863996 0.00686735 
-0.0045874 0.00974215 0.00973536 
-0.0018627 -0.000827037 0.00877037 

-0.00622829 0.0361187 -0.0365083 
-0.0388491 0.00249643 -0.0183168 
0.00117724 -7.49659e-05 0.0103921 

-0.0630049 0.0167948 -0.121172 
-0.00200227 0.00792813 0.0696265 
0.000804559 -0.00189918 0.0228426 

-0.048331 -0.0074455 -0.0465438 
0.0750667 0.0275464 -0.00267489 
-0.0526662 -0.0863715 0.577652 

-0.0241904 0.462724 0.980004 
0.124387 1.49043e-05 0.0576856 
0.0019502 -0.0495053 0.161576 

-0.0273572 0.00328934 -0.0765482 
-0.00433876 0.0200668 0.0211868 
-0.000878956 -0.000322705 -0.000923971 

-0.0166178 0.0176556 0.00681977 
-0.0167363 0.00656202 0.0727479 
-0.00173647 0.000587946 0.0265716 

-0.0253624 0.00367079 -0.0864287 
-0.00761751 0.00657248 -0.126739 
0.000603962 0.00909155 -0.050806 

-0.0402708 -0.0161147 -1.68068 
0.00118939 0.0115786 0.224073 
-0.00111121 -0.00273916 -0.139229 

-0.125892 -0.0754671 0.220672 
0.087292 0.171586 -0.295048 
-0.00209185 0.000360073 0.0256006 

-0.0218424 0.024378 0.0809333 
0.00425901 0.0129972 -0.00583104 
0.00011979 0.0123572 -0.017029 

-0.0103709 -0.00123712 0.0433458 
-0.00411983 0.00416145 -0.0197376 
0.000348566 0.000392084 0.0114132 

-0.0314329 -0.0319709 -0.286905 
-0.000863531 0.0348788 0.0462982 
0.00945601 -0.0115203 0.0831049 

-0.0347043 0.0323377 0.0446313 
-0.0241476 0.0735869 -0.0732431 
-0.00314726 0.00151354 0.0897899 

-0.00632013 0.0123192 0.0479572 
0.00305946 0.0017154 0.146183 
-0.010885 0.00847031 -0.0337722 

-0.0194207 -0.0298501 -0.0851824 
-0.00296626 0.00241067 -0.0153135 
0.00267651 0.0218999 0.0996853 

-0.0417762 0.00460423 -0.254947 
0.0162029 0.019293 0.555492 
-0.0106846 0.0260405 -0.133416 

-0.0242058 -0.00178467 -0.0343321 
-0.00988569 0.020243 0.105263 
0.0118226 -0.010588 0.121179 

-0.023801 0.0103015 0.0719688 
-0.00518236 0.0165435 0.0731596 
0.00136427 0.00035858 0.0156489 

-0.103069 -0.119521 0.185271 
0.0776473 0.0728541 0.273107 
-0.0869508 0.0554374 0.520767 

-0.0467763 -0.0467716 -0.351731 
0.0331806 0.0344133 0.360981 
-0.00599293 -0.00683567 -0.0254354 

-0.0192402 0.00534391 -0.846114 
-0.00436996 -0.00235934 0.632044 
-0.000214322 0.000412594 0.21858 

-0.0107264 -0.0129274 -0.00793672 
0.000442026 0.00875872 -0.0253946 
0.000683836 -0.000887211 0.00655309 

-0.163237 0.316085 0.595027 
0.201722 0.146646 0.375827 
-0.00833809 -0.00905793 -0.0467713 

-0.0172732 -0.0078868 0.00581792 
0.00427139 0.00859234 0.0102064 
-0.000769069 -0.000171687 0.00932928 

-0.00232926 0.0891733 0.021771 
-0.0735029 0.0011149 -0.0556851 
-0.00204616 0.000239093 -0.00806747 

-0.0176013 -0.00961275 0.0437031 
0.000704021 0.00119418 -0.0881375 
-3.30697e-05 0.000259988 0.0221658 

-0.0136926 0.00638221 -0.00378868 
0.0016156 0.00698651 0.0995019 
0.000635561 0.000548988 0.0168121 

-0.0297364 0.00167601 0.0181066 
-0.00579136 0.0126796 -0.0242001 
0.00232844 -0.000565314 0.000579321 

-0.899858 0.63965 0.555895 
0.38912 0.470159 0.0755913 
-0.00629903 0.0106533 0.0543896 

-0.023058 0.0243868 -0.107658 
-0.0142217 0.0123388 -0.0502591 
-0.00345339 -0.0169918 -0.0264894 

-0.0212775 -0.0180352 0.041675 
-0.0129347 -0.00102283 -0.0486266 
-0.00264038 -0.00841447 0.0261183 

-0.00543282 -0.0296187 0.0317833 
0.0542857 0.0414078 0.413758 
-0.00687334 0.021412 0.140523 

0.00837774 -0.0142838 0.0735054 
0.0932671 -0.0395974 0.0705585 
-0.005641 0.00254974 0.103216 

-0.0110813 0.0129824 0.0165882 
-0.00100255 0.00339909 -0.0162203 
-0.0239464 -0.0121411 0.0759587 

-0.00616719 -0.00740309 0.132546 
0.00650919 0.00171177 -0.0849606 
-0.000265977 0.000587845 0.0230929 

-0.0276302 0.149987 -0.206574 
-0.0231877 0.000495629 0.03102 
-0.000746884 0.00234383 0.021939 

-0.142592 -0.156433 0.029706 
0.0944312 0.0178533 0.373387 
0.0209569 -0.0332434 0.425419 

-0.0608263 0.375237 -0.102695 
-0.296177 0.247415 -0.243988 
0.0679171 -0.00257837 0.0633768 

-0.113417 0.690514 2.23684 
0.0117332 0.0594453 -0.974948 
-0.00453475 -0.529123 0.375389 

-0.0105661 0.00381945 -0.00289439 
0.00123291 0.00630593 -0.0100327 
0.000141809 -7.49864e-05 0.00809823 

-0.0523796 0.0403235 -0.070198 
-0.0152026 0.0525538 -0.0670931 
-0.0321594 0.0554273 0.205212 

-0.024334 0.00348958 -0.221644 
0.00366107 0.00633129 -0.00292134 
-0.000548209 -0.000406095 -0.0368196 

-0.00710143 0.0158759 -0.0131371 
-0.0139361 0.00584765 -0.00776389 
0.0164991 0.0401864 0.0891664 

-0.0333889 -0.012109 0.0034806 
0.0194684 0.00772945 0.009581 
0.001568 -0.000471436 0.0269131 

-0.193899 0.454678 -0.272448 
-0.00894781 0.116317 1.09058 
0.00111762 0.00179167 0.216396 

-0.0196919 0.0206783 -0.0639077 
0.00762108 0.0295475 -0.158531 
0.0317087 0.0368699 0.111972 

-0.00317279 0.00472772 -0.109739 
-0.00593906 0.0129764 -0.289185 
-0.000101856 0.00115796 0.0117636 

-0.0254848 0.00170235 -0.00551199 
0.00370338 -0.00145243 0.0147623 
0.000522174 0.000587111 0.0187564 

-0.0171481 0.00702373 -0.0228436 
-0.00434622 0.00330064 -0.0100762 
-0.00144571 1.29253e-05 0.011208 

-0.115519 -0.0694805 -0.139443 
0.0560489 0.0476501 0.0529164 
0.00223723 0.00146586 0.0510155 

-0.211606 0.274361 -0.523421 
0.202331 0.00688274 -0.816093 
0.00284683 0.00453619 -0.0524233 

-0.00415098 0.00292728 -0.0472882 
0.000967218 0.0015249 0.0155485 
-0.00106131 -0.000880406 -0.00426394 

-0.0175405 0.0141902 0.856768 
-0.00284095 0.0104869 -0.491274 
0.000464721 0.00131066 0.0518029 

-0.0449946 -0.0332564 -0.177143 
0.0144412 0.014819 -0.10609 
0.0171695 -0.00191828 0.0303334 

-0.0238661 -5.43134e-05 -0.0619993 
-0.0193596 0.0185407 -0.045105 
-0.000383331 0.00012448 -0.0193495 

-0.01382 -0.00342984 -0.0604247 
0.0062695 0.0240207 -0.131005 
-0.00154396 0.000602965 0.00217023 

-0.0160124 -0.00262033 -0.017401 
0.00326232 0.00965067 0.0892364 
0.000230707 0.000505892 -0.0130576 

-0.0191171 0.000144317 -0.000509126 
-0.00205607 0.00885474 0.00221491 
-0.000463467 0.000225221 0.00327421 

-0.120929 -0.0613854 0.0706045 
-0.0554808 0.10109 -0.0414928 
0.0107472 0.0282806 0.1057 

-0.0191008 0.00126424 -0.257861 
0.004006 0.0125002 0.0688439 
0.00629977 -0.010616 -0.0587606 

-0.024136 0.0301976 0.0683895 
0.00996353 -0.00552141 -0.0502891 
0.000917421 0.00121617 0.0276025 

-0.0218351 -0.0113305 -0.253846 
0.0020936 -0.000138428 -0.0524482 
-0.000658149 0.00096777 0.0317849 

-0.0114282 0.0231754 -0.0506037 
-0.00408577 -0.00906785 -0.213355 
0.000131366 -0.00123256 0.0139515 

-0.0346957 -0.013739 -0.442997 
-0.0279021 0.0357209 -0.123247 
-0.00107956 0.000802816 0.00511027 

-0.0170794 0.00490303 -0.0108816 
0.00035449 0.00241966 -0.0127956 
0.00199619 0.000488056 0.0155049 

-0.0563222 -0.0609971 -0.878496 
-0.0137816 0.020864 -0.425448 
-0.0194469 0.000955198 -0.0636876 

-0.0760581 -0.110433 0.372413 
0.0202491 0.0515716 -0.169027 
-0.00180582 0.000304273 0.0212007 

-0.0198843 0.00750429 -0.146439 
-0.00349824 0.00583868 -0.079122 
-0.000344164 -0.0134096 1.91625 

-0.00637886 0.0134044 -0.0758557 
-0.0164501 0.0265621 -0.0222258 
-0.000243842 0.00103994 -0.00376385 

-0.011573 0.00868296 -0.024816 
0.00579906 0.0101521 0.0498232 
-0.000187069 -0.00104479 -0.00532005 

-0.0231497 -0.0845065 -0.199694 
0.122452 0.0725715 -0.363469 
0.0214432 0.0388987 0.180622 

-0.0169318 -0.00486737 -0.157237 
0.0133225 0.00312263 0.198854 
0.000597976 0.000696053 0.0171064 

-0.0449556 0.0255532 -0.0615515 
0.00847526 -0.000471227 0.0529756 
0.0046182 -0.00627714 0.0720574 

-0.189587 0.10354 0.292469 
-0.187453 0.0769223 0.539694 
-0.0617467 0.0254631 0.451018 

-0.0223098 0.0160779 0.0248797 
-0.00480343 0.00773751 0.0511495 
-0.037394 0.00141471 0.313567 

0.0658103 0.133968 0.192992 
0.0708647 -0.0188964 0.219103 
-0.00361387 0.00286011 -0.0071691 

-0.0214908 0.00560828 0.199319 
-0.000148495 0.00748237 0.160615 
1.58814e-05 0.000750497 -0.0245097 

-0.0176 0.0144636 -0.0464436 
0.00106666 0.0100106 0.174119 
-0.00048993 -0.0011445 0.0681465 

-0.028093 -0.0171029 -0.0870758 
-0.0259195 0.00803762 0.0221469 
0.00291433 -0.00245213 0.0437596 

-0.0546202 0.00692387 0.0931931 
-0.0317482 0.0701741 0.170659 
-0.000988411 -0.00125679 0.0608154 

-0.0162561 -0.0354489 0.0491425 
0.0459122 -0.00241606 -0.0111595 
0.00297446 -0.00334588 0.0144481 

-0.01892 0.00348304 -0.600007 
0.000144 0.0126624 0.00292661 
-0.00177621 -0.00158273 0.409832 

-0.0517646 0.0413431 0.281726 
0.0251826 0.0912892 -0.250412 
6.85397e-05 0.0066255 -0.00429126 

-0.113751 -0.0200595 -0.0333717 
0.0506037 0.0156097 0.175795 
0.0240236 0.0307838 0.413755 

-0.0251317 0.0048292 0.0129002 
0.0208134 0.0180683 -0.0398616 
7.63808e-05 0.00290206 0.00407147 

-0.288659 0.127654 0.348885 
-0.104451 0.098147 0.187485 
-0.0145321 -0.0123094 0.205607 

-0.0410169 0.0040397 0.00131234 
-0.0443269 0.055234 -0.0990875 
-0.00251351 0.00288975 0.000691095 

-0.0168545 -0.0160052 0.228671 
0.0254603 0.0253321 0.0448716 
0.000271577 0.000631729 0.00485149 

-0.0480554 -0.0991851 0.257175 
0.00477316 0.0679943 0.431328 
0.00166157 -0.000848609 0.0109076 

-0.0284314 -0.0113775 0.425278 
0.00171347 0.0165704 -0.100345 
-0.0182577 0.0114503 -0.322374 

-0.0205014 -0.0398854 -0.00453101 
0.0375873 0.000317319 -0.00356391 
0.00129402 9.9415e-05 0.0271878 

-0.0164972 -0.0214914 0.0490117 
0.0329924 -0.00409367 0.100536 
0.00885335 -0.00639524 -0.04472 

-0.0278643 -0.00906715 0.0512335 
0.010388 0.0061282 0.0868997 
-0.000237066 -0.00179655 -0.0204897 

0.0112418 0.071609 0.00853893 
-0.0680235 -0.0130743 0.0968466 
0.000844707 -0.00189213 0.0206159 

-0.0355967 -0.0483573 0.0972392 
0.0327445 0.0125185 -0.0362151 
-0.0481736 0.00616133 0.0722559 

-0.0107538 -0.0230461 -0.35124 
0.00204767 0.00021182 0.0958066 
0.00143422 0.00041071 0.072454 

-0.00897047 -0.00384696 -0.105472 
-0.0104845 0.0118512 0.00344133 
-0.000623756 0.000204606 6.95596e-05 

-0.0355345 -0.135386 0.0484895 
0.119968 0.00413785 -0.0285662 
0.0140227 -0.0112385 0.201571 

-0.168086 0.166553 0.0857716 
-0.343743 0.198864 -0.180219 
-0.0114896 0.0107262 0.202764 

-0.0221695 0.00121553 -0.175799 
-0.00342484 0.00437733 0.0703042 
-0.001011 -0.000269427 0.0481057 

-0.0129132 0.00501213 -0.141968 
0.0114534 -0.00648033 0.226667 
0.000413575 0.000540182 0.0628875 

-0.0177423 -0.0102433 0.018462 
-0.0046899 0.0116929 -0.0315274 
-0.000451435 0.000459823 -0.00367634 

-0.0242966 0.00945555 -0.309247 
-0.0292954 0.0251644 -0.658752 
0.00316471 -0.00509258 0.0856374 

-0.0437 0.0137986 -0.0836368 
0.00206609 0.0231832 0.0922813 
-1.20103e-05 -0.000276878 0.00907831 

-0.0410009 -0.0142258 0.0125076 
-0.000455087 0.0244655 0.0564302 
-0.0284156 -0.00237754 0.0405029 

-0.0332196 -0.00331847 -0.148732 
0.0209003 0.0141278 -0.761971 
0.00505198 -0.0118328 0.144884 

-0.0158945 0.00879468 0.046021 
0.0042906 0.000946523 -0.012265 
-0.0010336 0.000680117 0.0135995 

-0.0275621 0.0181905 0.00491798 
-0.0318765 -0.00186733 0.0146604 
-0.00684708 0.00123782 0.0528794 

-0.0215673 -0.00289826 -0.0460373 
0.0022043 0.00751634 0.99181 
0.00649979 -0.0100673 0.235789 

-0.0163241 0.000580733 -0.385177 
0.00127473 0.0100653 -0.111713 
0.000281734 0.0006239 -0.0199672 

-0.0472666 -0.0484106 -0.0443747 
-0.0214191 0.0295751 -0.0263332 
-0.000704188 0.00384425 0.124358 

-0.344383 0.0514545 0.311409 
0.174805 0.371817 -0.25219 
-0.0401233 -0.0782515 0.44178 

-0.088933 -0.0360412 1.46998 
-0.0271369 0.0988315 8.55038 
-0.0226544 0.0184091 1.5558 

-0.0357761 0.0223141 -0.122589 
-0.01018 0.0112286 0.0114476 
0.00287236 -0.00990176 0.0819231 

-0.035254 -0.047117 0.345071 
0.121972 0.0208179 0.739144 
0.0014475 -0.00244189 0.0310357 

-0.0478857 0.017567 1.03833 
0.0003204 0.0986719 2.25 
-0.00326707 -0.011752 0.276707 

-0.0254794 0.00646341 -0.130657 
-0.0221536 0.0118615 0.00159827 
-0.00291623 0.000332196 -0.0344644 

-0.237971 0.156124 -0.204215 
-0.374396 0.0796062 0.25486 
-0.00174034 0.00432996 0.199254 

-0.0296733 -0.0500472 -0.0281158 
0.0118442 0.0380132 -0.0204035 
-0.000474421 0.000505458 0.0233169 

-0.0143101 -0.00306247 0.0217861 
-0.00975507 0.0027678 -0.00454764 
7.77663e-05 0.000982487 0.00864809 

-0.0193131 0.00509724 0.00680948 
0.0013483 0.00536503 -0.0315238 
0.000433068 0.000288448 0.0166796 

-0.0391262 0.00322354 0.196571 
0.00963075 0.0307188 -0.214203 
-0.00110952 -0.000522177 0.0226293 

-0.0310245 -0.0107705 0.0147657 
-0.000786376 0.00835014 -0.0501304 
0.0160649 -0.0106219 0.130808 

-0.0179731 0.00625253 -0.132628 
0.00981109 0.0116784 0.00112291 
-0.0131933 0.00792892 0.147697 

-0.0249588 -0.0304463 0.0493062 
-0.038759 0.0508458 0.0817808 
-0.000127899 -0.00110867 0.0133043 

-0.0553503 -0.00560377 0.282249 
-0.0480633 0.0436855 0.334084 
-0.00518245 -0.00966652 0.0768236 

-0.0233401 0.0153164 0.00357466 
-0.0349819 -0.00467987 -0.0147573 
-0.000357735 -0.00155255 0.0585227 

-0.0093546 -0.00858921 -0.00336589 
0.00216066 -0.00208175 -0.00144838 
-9.52454e-05 0.000366509 0.0180249 

-0.280059 0.429054 -9.227 
-0.0945581 0.602118 -6.26179 
0.0480183 -0.0342779 -0.509057 

-0.0217385 -0.00546855 0.0217354 
-0.00463134 0.013386 -0.0111181 
0.00169016 -0.00120749 0.0181245 

-0.0483704 0.0561539 0.0490626 
-0.0941641 0.00980765 0.0475742 
-0.00411868 0.0315965 0.342959 

-0.0214128 0.00332663 -0.0336287 
-0.00144724 0.00547249 0.00132776 
0.00214866 0.000732354 0.0172093 

-0.0186753 -0.0261789 0.106998 
0.0287248 0.0250425 -0.200317 
-0.0026552 -0.000713861 -0.0349301 

-0.0354876 0.0512444 0.137593 
-0.123627 0.0469687 -0.167045 
-0.0544359 -0.0486298 0.567716 

-0.0119969 0.00151206 0.0112553 
-0.000736186 0.00520879 -0.00805782 
-0.000544249 -0.000308564 -3.96387e-05 

-0.0171562 -0.00429761 -0.0353811 
0.00235522 0.00656708 -0.187609 
-0.00630209 0.00586178 0.0324027 

-0.0540812 -0.0317027 0.051981 
0.0380026 0.00988066 -0.125026 
0.0709991 0.0520135 0.365078 

-0.0167912 -0.00157129 0.0191983 
0.0024226 0.00392849 0.0118154 
0.00190981 -0.00159736 0.00051819 

-0.0132176 0.0036495 0.110466 
-0.00573236 0.00895219 0.17173 
-0.0252025 -0.0215197 -0.116534 

-0.117286 -0.0944021 -0.124679 
0.141262 0.094539 0.150853 
0.000489345 -0.000418984 0.0380127 

-0.0262373 0.021855 0.0446519 
-0.0125474 0.033425 -0.192619 
-0.000817727 0.000686287 0.00298867 

-0.155721 0.0509741 -0.802712 
-0.0265956 0.099432 -0.364426 
-0.00364062 0.0212108 0.182362 

-0.022102 -0.0611509 -0.0329195 
0.0356712 0.0167764 -0.123955 
-0.00507141 -0.00347005 0.0367109 

-0.0159029 -0.00202709 0.0179633 
0.00605355 0.00809545 0.0178586 
9.98932e-05 0.000568022 0.00558142 

-0.103496 -0.112586 -0.0356919 
0.0129606 0.029452 0.343907 
-0.0056823 0.0374466 -0.133257 

-0.0570567 0.0157187 0.509471 
-0.0825464 0.0462378 0.166986 
0.00010153 0.00116093 0.0207768 

-0.098263 0.0427568 -0.0610752 
-0.0676648 0.072892 0.108635 
0.0439895 -0.0224848 0.337121 

0.00441241 -0.00277533 -0.00133821 
0.0299161 -0.00557577 0.858038 
0.00483977 0.0158816 -0.13578 

-0.020414 0.0132153 -0.0186828 
-0.0152104 0.0098974 -0.0491097 
-0.00587689 -0.0151465 -0.0346034 

-0.0184456 0.0162149 -0.0245716 
-0.00810812 0.0359345 0.129109 
-0.00164974 0.0622669 0.182799 

-0.0253818 -0.00472261 -0.0399866 
-0.00983461 0.0121885 0.0308445 
0.000550261 0.00121289 0.0122356 

-0.0650422 -0.0805166 -0.559556 
0.0266452 0.0144641 0.167222 