# vtk DataFile Version 3.0
Output file generated by Yade's KinematicLocalisationAnalyser
ASCII
DATASET UNSTRUCTURED_GRID

POINTS 13483 float
602.49 38.9424 -0.428854
729.981 75.7141 -0.559676
119.134 6.07799 -0.438295
753.663 4.41874 0.546719
500.211 7.68319 -0.306384
314.797 36.6108 0.454782
155.523 6.98056 0.440536
566.611 10.3706 0.147507
496.445 25.7555 0.137844
692.559 14.3106 0.574428
210.158 8.98626 -0.113513
256.894 6.37552 -0.253305
636.767 40.1798 -0.144871
623.97 14.1186 -0.166134
136.298 17.8046 0.560237
220.89 35.3413 0.188296
217.505 12.9759 -0.293984
289.242 9.64721 0.391959
341.585 33.6446 0.444083
524.394 8.61592 0.341911
412.273 38.3017 -0.125735
586.59 51.2557 -0.277743
750.525 50.1721 -0.471049
683.405 62.9837 0.464404
460.049 16.7196 0.311439
241.151 44.6778 0.130029
491.961 29.9975 -0.463902
580.028 23.6842 0.217964
44.5423 16.0458 0.46857
688.717 34.4355 -0.468984
483.765 4.69474 0.398688
16.3918 23.8036 -0.287492
741.141 67.1077 0.26626
496.091 2.5575 0.470666
77.8553 45.0474 -0.104256
521.958 31.4083 0.316226
530.606 16.6554 -0.444482
344.183 22.3329 0.190231
533.876 27.7898 -0.303368
351.553 34.4007 0.526088
240.908 14.592 -0.365804
435.378 37.8932 0.0719962
658.343 16.6333 -0.141324
192.328 6.23732 0.371056
54.8871 7.1407 -0.104746
67.9547 8.82718 -0.265262
665.488 9.13864 -0.655063
23.1335 11.4333 0.307819
607.898 57.7139 0.269575
659.363 37.2939 0.357494
171.817 32.8456 -0.312798
720.161 65.0763 -0.121181
34.8656 28.7554 -0.107512
534.652 3.05075 0.323712
141.545 7.39751 -0.491863
592.573 41.3847 0.359359
503.704 30.351 0.124043
174.163 0.953409 -0.275086
32.6264 2.39207 0.308972
349.627 17.9465 0.272251
619.427 62.354 -0.135645
464.867 33.0524 0.193373
401.139 1.03355 0.199956
675.257 8.0663 0.403246
26.4693 43.5698 0.237095
256.934 30.7683 -0.314962
693.389 8.68767 0.284014
653.383 62.7903 0.345579
419.541 8.72732 -0.4915
566.483 3.43198 -0.418026
710.58 54.4381 0.368778
130.166 7.69205 -0.274765
499.184 28.2577 -0.132872
479.953 14.835 -0.119422
295.391 16.5634 -0.375879
20.5619 13.6139 -0.298591
739.108 55.7683 0.328855
333.79 39.0202 -0.31281
657.918 33.8218 0.378609
665.883 16.7701 -0.21206
745.52 20.2839 -0.310916
467.274 36.1069 0.185318
92.2641 38.7998 -0.279893
669.778 58.6732 0.229179
632.045 53.792 -0.116861
754.482 54.0925 -0.0978797
746.004 0.729961 -0.601253
291.959 29.7211 0.435717
613.271 6.67211 -0.130698
24.144 5.1842 0.547111
133.342 39.3796 -0.148848
514.316 15.0327 0.213864
735.546 43.3924 -0.506463
195.597 28.7827 0.266832
44.6603 35.6424 -0.275278
494.964 1.25973 0.144826
236.242 8.72278 -0.426443
704.258 74.5254 -0.241526
728.085 50.2631 0.217789
363.025 20.6383 -0.273729
163.662 27.3897 -0.442608
548.256 45.7202 -0.454405
382.81 15.499 -0.405658
416.194 30.8358 -0.0984981
380.672 4.59542 0.403206
548.125 13.2665 0.118221
757.859 12.0173 0.184426
80.1337 39.7846 -0.410622
337.281 5.00574 -0.208032
560.671 10.122 -0.404269
362.65 45.2476 0.445906
25.0214 25.4633 -0.446942
30.2954 5.65869 0.35365
566.882 36.7638 0.423274
506.473 24.4581 -0.144379
26.0882 37.4459 0.419179
93.21 31.2856 0.215371
327.301 16.3004 -0.242933
595.817 20.5971 -0.168405
479.325 39.6241 0.169242
708.476 7.12378 -0.468035
700.555 6.73532 -0.292716
390.162 36.9356 0.0959669
628.04 28.6087 0.139943
239.491 16.9727 0.557233
332.668 3.89737 0.455368
103.774 31.7387 -0.355372
116.49 24.7434 0.287382
543.463 46.0119 0.0682407
308.12 18.7247 0.528673
682.637 39.0955 0.117949
657.085 63.89 -0.0618585
484.655 21.3917 -0.38175
725.263 27.8652 0.374434
431.954 25.4266 0.224483
279.43 24.2386 0.291902
661.408 50.4834 0.286619
281.041 29.412 0.363923
575.159 14.6645 0.233134
334.861 35.7042 0.199398
508.371 12.1323 0.527473
369.802 32.3357 0.0871815
435.145 17.0019 -0.101723
321.184 43.1823 0.434907
191.709 30.1772 0.116597
732.468 72.1075 0.141967
754.686 13.9171 -0.295122
6.04885 12.4436 0.417616
438.94 23.0187 -0.436317
38.0238 22.9539 0.0832287
380.355 31.2676 -0.467857
400.869 25.1187 -0.249948
74.6679 11.8381 -0.501029
51.4255 35.7929 0.544985
227.743 13.5933 0.407473
610.706 36.3568 -0.529237
577.338 25.626 -0.448527
74.5501 21.0582 -0.484652
686.058 61.3902 0.458765
732.923 3.95825 -0.517454
647.91 56.5208 0.438613
670.278 2.29883 0.419226
552.316 31.4931 0.381479
588.118 51.7011 0.440223
517.789 18.6088 -0.501814
751.193 3.77586 0.412061
226.042 26.0498 -0.105512
128.875 36.3827 0.188424
249.786 6.79896 0.405518
94.5925 4.54258 -0.249606
64.2608 10.0927 0.238701
279.226 36.9205 -0.353781
17.3155 25.9664 -0.354547
559.554 21.8432 -0.410823
609.235 52.8079 -0.203365
469.539 21.4163 -0.389707
758.656 74.3384 0.35394
412.691 8.67818 -0.136723
441.861 37.6875 -0.362396
542.977 3.35954 -0.202483
23.0477 24.4429 0.409321
578.104 4.59819 0.452934
551.683 5.67609 0.442682
208.36 11.4341 0.475509
431.245 16.2619 -0.275006
315.566 6.42485 0.344382
394.075 18.8976 -0.351241
700.4 63.5775 0.109405
194.415 25.5032 -0.419187
737.525 14.3524 -0.546584
703.807 61.7328 -0.326769
389.28 10.4411 -0.155595
691.768 2.35424 -0.518181
601.011 29.6892 -0.453317
714.626 18.2401 -0.427433
437.634 44.7074 -0.280264
502.931 12.8234 0.429325
472.32 45.8288 0.224319
452.608 9.06375 -0.175426
651.691 56.2592 -0.263398
650.555 52.244 -0.303634
194.131 39.2999 0.353686
743.457 20.8233 -0.144164
590.218 52.7225 -0.242578
11.6144 17.1489 0.284225
414.833 25.7309 0.340358
189.385 23.2982 -0.40898
93.9406 39.7559 -0.207951
732.793 42.3881 -0.466811
644.824 62.6497 -0.313961
323.529 25.8325 0.365104
540.315 10.2468 0.294392
82.9328 44.733 -0.179556
250.87 26.0631 -0.472453
559.906 27.5949 0.353339
494.299 18.9647 -0.475607
266.331 0.88921 -0.346626
557.834 47.2356 0.364013
536.623 47.6535 -0.476138
490.818 36.0981 0.395555
506.914 1.71101 -0.66981
678.789 20.0365 0.375594
181.287 12.208 -0.192971
510.57 41.7406 0.446485
568.095 44.3504 0.116099
73.434 0.955029 0.271107
255.116 4.80911 0.177225
755.099 17.4646 0.1841
746.192 22.2067 -0.454116
760.094 16.9486 -0.662367
308.024 8.62467 -0.230128
710.946 31.2145 -0.385697
413.73 43.8108 -0.370224
456.884 0.822606 -0.399846
637.733 52.3382 -0.535365
26.6963 30.9816 0.303366
335.864 41.6733 0.59751
255.973 2.94399 0.351015
744.343 64.1337 0.200209
689.709 55.4699 0.28208
291.744 11.0123 0.248505
655.518 46.2804 -0.0886844
561.271 2.73703 0.281981
548.836 7.3263 0.545984
97.4854 18.7264 0.490448
307.983 1.04008 -0.227794
348.657 2.25358 -0.368246
13.8833 7.6824 0.454574
4.16351 32.5122 0.245636
163.397 19.124 0.413656
68.7848 42.7976 0.221167
66.267 30.0868 0.329098
431.194 14.4142 -0.456714
373.15 35.5593 -0.479092
718.318 68.761 -0.109821
19.4639 3.96325 -0.275445
71.0479 6.8935 0.137247
619.237 41.1609 -0.157272
299.267 0.916849 0.373788
371.211 16.0135 -0.131087
238.946 4.72088 -0.363862
639.245 30.2139 0.190191
459.709 8.73511 0.430415
719.082 22.4093 -0.384794
628.074 32.9664 -0.317776
656.731 31.8152 -0.0873937
427.317 27.5974 0.479909
103.311 45.5292 -0.312645
547.014 49.5851 0.0687408
712.784 12.9901 0.289769
240.971 30.8266 0.239947
31.8938 17.5769 0.195204
342.077 13.8877 0.509665
109.06 41.1408 -0.471385
272.064 42.7477 -0.214056
433.588 1.6605 -0.33884
736.39 46.6532 0.363149
663.174 0.750648 -0.528853
337.791 3.45712 0.566169
305.27 27.9463 0.154352
470.976 42.865 0.227172
82.1868 8.26747 -0.461161
200.537 45.5038 -0.38267
729.084 54.7483 0.340968
505.325 43.5363 0.0795896
202.804 41.303 -0.275413
163.06 43.1702 0.388298
760.601 46.6909 0.474566
756.223 12.6321 -0.538481
605.412 3.27806 -0.679368
192.797 24.6905 0.089624
554.063 32.4566 0.107202
556.645 32.4736 0.270383
417.252 5.72572 -0.1356
490.051 0.959087 0.413454
718.582 73.7901 -0.504527
85.5006 31.1345 0.211588
644.346 28.5141 -0.509608
278.981 15.4676 -0.366179
9.33438 2.41047 -0.320203
127.51 38.1419 0.183231
66.4233 23.6708 0.438258
677.754 48.9044 0.288988
748.181 71.5371 -0.253642
187.931 28.7767 0.181339
754.832 19.5463 -0.302092
45.7331 37.8328 0.241674
91.9724 29.6429 0.164826
632.868 13.0711 0.36055
422.15 17.5028 -0.550522
527.554 16.9396 0.105826
241.415 28.877 -0.178357
620.361 4.31561 -0.405264
759.885 12.2722 0.450284
30.0047 32.0705 -0.262235
274.702 7.6953 0.197229
225.427 15.3649 0.263484
1.05317 37.2248 0.152914
228.757 14.6639 -0.366761
215.017 11.097 0.119376
217.555 26.474 -0.289336
134.308 29.5829 -0.126826
553.654 18.2552 -0.375767
169.054 14.3945 0.322198
738.506 66.6198 0.240537
176.181 3.87253 0.502556
47.3988 40.5384 -0.354264
694.348 71.2369 -0.426254
285.999 32.5631 -0.403213
665.934 36.2608 0.465874
740.972 48.9607 -0.476
306.052 9.23893 -0.102953
705.913 41.9858 0.362063
334.728 2.51833 -0.421932
424.55 23.9306 0.375781
663.257 31.0125 0.560471
106.51 11.9669 0.437234
492.026 3.88147 -0.542279
719.206 24.3102 0.228509
89.0796 7.73144 0.237173
286.814 14.7095 0.220724
432.119 11.7755 -0.223814
749.897 4.96104 0.619795
406.115 1.99704 -0.530499
179.256 39.4858 0.332881
715.73 11.0596 -0.335117
130.767 37.3769 0.182684
268.238 31.6117 -0.372343
408.988 22.2954 0.209971
577.53 16.7945 0.445424
395.09 9.90933 -0.515969
466.108 27.7824 -0.450514
730.2 74.708 0.470062
47.9455 11.6824 -0.152175
304.562 39.376 -0.284927
387.446 26.1895 -0.411091
418.314 20.9598 -0.260144
524.349 48.0912 0.359336
712.038 74.8414 0.228072
656.733 53.3397 0.358211
229.045 35.7302 -0.38353
12.7189 33.0016 0.153313
648.545 52.2024 -0.119602
520.757 48.4123 -0.430471
233.239 40.3109 0.109966
667.953 51.4543 -0.109193
152.737 9.37114 0.238405
373.972 21.0554 0.283859
472.865 43.714 -0.102445
422.274 19.3603 -0.195439
728.492 79.1621 0.290886
435.026 3.89727 0.528706
50.0218 26.2957 -0.303725
479.867 33.2139 0.338898
444.052 42.6645 0.375724
740.371 60.3 -0.22603
703.858 36.8399 -0.307938
548.619 22.6461 -0.171691
731.048 64.7561 -0.436776
298.848 2.1943 -0.470874
386.312 28.7844 0.443368
29.2657 39.1883 0.305897
707.814 46.9946 0.161558
608.646 21.0726 -0.519233
471.978 0.774965 -0.475497
127.474 4.63358 -0.27261
435.564 42.2549 -0.11314
11.7231 0.922131 0.314592
749.447 6.95557 0.124082
377.498 39.3894 -0.400393
[...]
POINT_DATA 13483
TENSORS Strain_matrix float
-0.618622 0.397774 7.73994 
-0.314684 0.455049 -0.00194218 
-0.0326631 0.0149368 -0.174212 

-0.0151261 -0.05581 7.84094 
-0.0451989 0.068569 -3.66285 
0.000533795 -0.000874598 -0.0173243 

-0.012274 8.27225e-05 0.0277413 
0.0123976 0.00180968 -0.22042 
0.00088 -0.000216828 0.0353659 

-0.152259 0.0880742 -0.147622 
-0.00912279 0.0630481 0.310653 
-0.00249252 -0.00714013 0.158623 

-0.0181157 -0.0195454 0.0194781 
-0.00275212 0.00219457 0.0165096 
0.00207179 0.00326366 0.0305374 

-0.00738941 -0.011047 0.114919 
0.00995772 -0.000283625 0.0225147 
-0.000187214 -0.000455339 0.0401297 

-0.00414029 -5.8613e-05 0.0010963 
-0.000849817 0.00258848 -0.000255717 
0.000143178 0.000122662 0.00898735 

-0.146771 -0.053654 0.0114561 
0.0790834 0.119261 -0.0631509 
-0.0978872 0.0321822 0.602233 

-0.106447 0.0463803 0.299944 
-0.0797471 0.0794217 -0.131723 
0.0105785 0.0243467 0.00146594 

-0.0111865 0.0346971 0.150094 
-0.0112766 -0.0288514 0.212592 
-0.00387942 0.0025219 -0.0150541 

-0.00693972 0.000245962 0.00769992 
0.00216431 0.0048395 0.00342136 
-0.000155225 -0.000609575 -0.00109875 

-0.00923668 0.00344333 0.00172324 
-0.000765189 0.00310811 0.0021032 
0.00041799 0.000414485 0.00194722 

-0.201212 -0.115394 0.460119 
0.418782 0.186233 -0.230906 
0.019206 0.00876913 0.077457 

-0.0644779 -0.0408904 -0.152997 
-0.00334831 -0.0231551 0.001424 
0.0143445 -0.00147016 0.145811 

-0.0156451 0.00406885 1.20663 
-0.000214913 0.00872706 1.1126 
-0.000529775 0.000478196 0.0523843 

-0.0195386 -0.0117909 0.0991254 
0.0489032 0.00878873 -0.0177202 
0.00878821 -0.00205901 -0.0311514 

-0.00951057 -0.000980601 -0.00814341 
-0.00465185 -0.00442186 -0.00201952 
0.00067499 -0.000164423 0.0199383 

-0.0126732 -0.00203811 0.00178052 
0.00484721 0.000523985 -0.0121664 
-0.000231022 0.000794901 0.0211013 

-0.00857351 -0.0271822 -0.0081491 
0.0231432 -0.000719246 0.00940301 
0.000280431 -0.00100125 0.00953995 

-0.000423333 -0.00975031 0.00417507 
0.00938576 0.000747874 -7.26412e-05 
-0.000993813 -0.000109997 -0.00316528 

-0.0167335 -0.0108523 -0.0720642 
0.000226725 0.00553495 -0.0503143 
0.0200086 -0.00689363 0.0374998 

0.00891565 -0.0742033 -0.473996 
0.0831614 0.225703 -1.70703 
0.000449141 -0.0236869 0.161794 

0.0186852 -0.106529 -0.413767 
0.108843 0.0289095 -0.465146 
0.000573855 0.0024398 0.0790967 

-0.0699535 0.447073 -3.77107 
-0.445905 0.181015 0.555807 
-0.00913498 -0.00314591 0.46015 

-0.0396298 0.0390651 0.172633 
-0.0862313 0.0325855 -0.0417042 
0.00619038 -0.0541509 0.00872819 

-0.0130261 0.00919746 0.0119135 
-0.0134919 0.00448883 -0.0143431 
0.00205169 -0.00090139 0.0119594 

-0.02623 0.152041 -0.600324 
-0.0512396 0.11351 -0.815748 
0.000983756 0.00395712 0.273076 

0.0108601 0.225397 0.451539 
0.112813 -0.0050555 -0.075794 
0.0318462 0.0198819 -0.148191 

0.00357645 -0.0137236 -0.26824 
0.0299022 -0.0104172 0.0564928 
0.00108001 -0.000640333 0.192041 

-0.0695828 -0.0877359 0.409395 
-0.141805 0.0492374 -0.225207 
-0.0165815 0.00345269 0.0255239 

-0.0298244 0.00897444 0.0617763 
-0.00968869 -0.0300122 0.00620329 
-0.00237474 0.0425212 -0.0933708 

-0.114138 0.0754489 -0.470369 
0.0457513 0.147128 -0.0369145 
0.000565489 0.000278535 -0.0268277 

4.33121e-05 0.0436388 0.0182377 
-0.0471672 0.00994853 -0.0357549 
8.14569e-05 0.000410526 -0.0069226 

-0.0261218 -0.00972524 -0.00211397 
0.00203857 0.0178579 -0.0242896 
-0.000910202 -0.00117596 0.0154498 

-0.026717 0.00397524 0.0720637 
-0.0526658 -0.00849204 0.154622 
0.00460905 0.00661577 -0.0185489 

-0.000629728 -0.158591 -0.101817 
0.0535675 0.0488975 -0.587637 
0.00186212 -0.0079813 -0.059549 

-0.0120184 -0.0512326 -0.0977926 
0.0220568 0.0380141 -0.710132 
0.000564438 -0.00452341 0.139634 

-0.073939 0.110726 0.382706 
-0.0061651 0.0916502 -0.202787 
0.032979 0.00694053 0.0603898 

-0.0281884 0.00100122 -0.609185 
0.0846625 0.0608916 -0.339897 
-0.0333859 -0.0426501 0.199377 

-0.0193894 0.0183063 0.302972 
-0.0276566 0.0118497 0.145977 
-0.0002521 0.000792156 0.0407169 

-0.00615752 0.00245362 -0.0888467 
-0.00217349 0.00373021 0.0271312 
0.000430162 -0.000369319 -0.00202073 

0.00206574 0.0261246 -0.0339333 
-0.011519 0.0054497 -0.0147315 
-0.00127797 -1.04629e-05 -0.0212615 

-0.0245827 -0.172462 -0.757829 
-0.273018 0.0365743 -0.025346 
0.0864142 -0.0514162 0.301691 

-0.00449382 0.00238247 -0.0131477 
-0.000508209 0.00169964 0.0124287 
0.000759092 -5.79904e-05 0.00364803 

-0.015856 0.0335892 0.000267992 
-0.0321396 0.0156666 -0.0211676 
-0.00617684 0.0108554 0.0662069 

-0.0103228 0.00111796 0.00841715 
-0.00547754 0.00194509 -0.013108 
0.00058229 0.000153262 0.0136308 

-0.249988 0.225119 1.64816 
-0.16143 0.163921 -1.78215 
0.0970868 0.0188901 -0.014827 

-0.00871268 0.00260116 0.00568779 
-0.0224367 -0.03902 -0.00260654 
-0.00351063 0.00231585 0.0724953 

0.104862 -0.315949 0.02222 
0.332501 0.0543629 -0.0319256 
0.0724879 0.00675138 0.0281166 

0.00748171 -0.241409 -0.734945 
0.0672791 0.0356688 -0.32454 
-0.00402992 -0.0012648 -0.00869149 

-0.00235986 -0.0113594 -0.0448293 
0.00440889 0.00519766 0.00677269 
0.000238967 -0.00015549 -0.00539946 

-0.471604 -1.05494 1.93069 
0.289048 0.367572 -2.10247 
-0.0259803 -0.0482195 0.955021 

0.0380725 0.0687231 0.101019 
0.00740914 -0.0125094 0.00812571 
-0.00164485 0.00204077 0.00970593 

-0.0147893 0.0104719 -0.00476176 
-0.00526033 0.00664474 -0.0937348 
0.00070969 0.000663846 0.00595692 

-0.00492744 -0.0018165 -0.00176861 
0.00319812 0.00296444 -0.00816892 
-0.000248895 0.000473089 0.00568545 

-0.0430496 0.121829 -3.35964 
0.154063 0.113643 0.847819 
0.0219678 -0.0347258 -0.0505158 

-0.229333 -0.0725535 -0.296097 
0.0963113 0.238704 -0.371825 
0.0225988 0.0277311 0.12911 

-0.00339687 0.0124078 0.0119323 
-3.66336e-05 -0.000753812 -0.0022028 
-1.41402e-05 -0.00016028 0.00118648 

-0.00281694 -0.0049856 0.00827663 
0.00598289 -0.00169321 -0.00811511 
-0.000867671 0.00113548 -0.00220729 

-0.000904205 -0.0201916 -0.0113978 
0.00651198 -0.0034656 0.00477195 
3.56979e-05 0.000370756 0.013096 

-0.424135 0.781093 2.64847 
-0.0322868 0.010504 1.03209 
0.00881125 -0.0427606 0.00174049 

-0.0805762 -0.0829687 -1.18236 
0.0520569 0.108107 0.307786 
0.0243979 0.0174029 -0.139033 

-0.00849376 0.0048037 0.00711529 
-0.00153569 0.00154809 -0.00301741 
0.000213457 0.000655891 0.0105346 

-0.00558556 0.0706584 -0.00545292 
-0.0228073 0.00337866 0.0360016 
-0.0249375 -0.000587805 -0.0460819 

-0.0608479 0.0268378 -0.0323195 
-0.0351375 0.0256428 0.068762 
-0.00243005 -0.00152965 0.0177294 

-0.00454696 -0.00210489 0.00227154 
0.00304627 0.0008732 -0.00415415 
0.000208302 -0.000167378 0.00603856 

0.0603855 -0.0860178 -0.0930064 
0.0392774 -0.0463027 -0.147705 
0.0574609 0.0410977 0.182029 

0.0990546 -0.127359 0.769371 
0.169372 -0.00195839 -0.234759 
-0.00171215 4.55777e-05 -0.156387 

-0.0113903 -0.00129621 0.0112724 
-0.00244834 0.01077 0.129966 
0.00115485 0.00111196 0.0394397 

-0.0104853 0.0455206 0.0929815 
-0.0397698 -0.0334898 -0.0783211 
-0.00197155 0.002135 0.0457827 

-0.566042 0.0528079 -1.21855 
-0.0253498 0.700832 -2.72261 
0.0211749 0.0351387 -0.0406585 

-0.00619398 -0.00272583 -0.000912657 
-0.00246864 0.00168415 -0.00062931 
-0.000328494 -0.000157663 0.00688422 

-0.0374837 -0.0677301 -0.128547 
-0.00244776 0.0317564 -0.1975 
-0.0111884 -0.00532926 0.0480787 

-0.0261692 0.0568623 0.178252 
-0.102321 0.0228826 0.273442 
-0.00774283 -0.00672893 0.0369163 

-0.00987706 -0.00163711 -0.0552774 
0.000390428 -0.00103353 0.0186627 
4.40828e-05 0.000379511 0.0254101 

-0.0401321 0.0446118 -0.00843832 
-0.0674608 -0.00696852 -0.0722205 
-0.000464526 -0.0302085 0.0831282 

-0.125641 -0.0902696 0.375564 
-0.122199 0.110064 -0.519045 
-0.0291642 -0.0225669 -0.0149679 

-0.00395471 -0.0072318 -0.00181546 
0.00899093 0.0038333 0.0172971 
0.000328873 -0.00023785 0.00581622 

-0.0608468 -0.146285 -0.181876 
0.23029 0.0194513 0.196736 
0.00811129 0.00952062 0.0593984 

-0.365104 0.134504 -1.20578 
-0.228909 0.383475 0.320866 
0.0669285 -0.0177287 0.555978 

-0.0208376 -0.0253471 -0.00818486 
0.0431381 0.0146859 0.0475278 
0.000311195 -0.000692901 -0.00251284 

-0.0518333 -0.112386 -0.345202 
0.13986 0.0952142 -0.84117 
-0.0105664 -0.00737859 0.147308 

-0.00419661 0.0152877 0.0377222 
-0.0166026 0.000664467 0.0337949 
-0.000708903 0.000528889 0.0185425 

-0.0235174 0.125347 0.193033 
-0.138697 0.0408966 -0.220658 
-0.000669521 -0.00689324 -0.0072857 

0.0616856 -0.244078 -0.0261414 
0.268984 0.0156864 -0.00784383 
0.00371774 -0.00189458 -0.0223993 

0.0263226 -0.0267743 -0.0582568 
-0.0243019 -0.00477177 0.10709 
0.00293494 0.00607017 0.00943053 

-0.400299 -5.9998 0.916854 
0.0190307 -2.65131 0.546231 
0.01041 -0.0597577 0.00608388 

0.00361409 0.00285378 0.0028973 
-0.00228966 -0.000187087 0.00126466 
0.00188814 0.000288575 -0.00307238 

-0.0153874 0.00103246 0.0114077 
-0.0231548 -0.00643291 -0.00633058 
0.000659659 -0.00342852 0.023579 

-0.00333034 0.2339 -29.9679 
0.000936902 0.0377103 -3.32471 
-0.000231301 -0.00512214 0.923582 

-0.00476786 0.00860779 0.118709 
0.0265635 -0.0278739 -0.130037 
-0.0193339 -0.0326688 0.1989 

-0.0100768 -0.0109302 0.00603067 
0.0260705 -0.00791939 -0.0080095 
0.00137898 0.000397544 0.0214462 

-0.0730767 -0.0376669 2.54187 
0.0714636 0.112377 -2.64076 
0.0227363 -0.0053068 0.0790515 

-0.00532168 -0.00395828 0.000784502 
-0.0014108 0.00155175 0.0101763 
-0.000589721 6.7629e-05 0.000432104 

0.0045716 -0.0621073 0.0426672 
0.0624775 0.00278614 -0.0166232 
-0.0118581 -0.00323556 -0.0276189 

-0.0239728 0.0141052 -0.00759266 
0.000258839 0.0138759 -0.00966635 
-0.00125124 -0.0151951 0.0318257 

-0.0304277 -0.0153995 -0.080206 
0.0413474 0.0135734 -0.0358004 
-0.00083209 -0.00128255 0.0324957 

0.103769 -0.285249 0.100672 
0.312905 0.0145048 0.0314851 
-0.0318542 -0.0685989 -0.111585 

-0.206975 -0.148901 -0.362045 
0.0080532 0.208213 -0.580862 
-0.00253602 0.00353307 0.0532114 

0.00067854 -0.00622968 -0.0131835 
0.000252353 -0.00227364 0.0126401 
-0.000952835 -2.09107e-05 0.0014169 

-0.0045418 0.00696258 0.37293 
0.00040355 -0.00145275 -0.0925698 
-0.000197331 -5.24435e-05 0.0179288 

0.00688709 -0.0140358 -0.0163527 
-0.00545799 -0.00516143 0.202669 
-0.000623705 0.00369756 0.0207699 

-0.00140631 0.00700824 0.0725321 
3.02271e-05 -0.000378255 0.0140453 
-5.79057e-06 0.00068024 0.0136726 

-0.0580412 -0.00866963 -0.660847 
-0.0209205 0.128649 -0.197477 
-0.000901602 0.000676859 0.0180862 

-0.01038 0.00546722 0.0179651 
-0.00349373 0.00588083 0.00454727 
0.000152221 -0.000357669 0.0157018 

-0.0674139 -0.0876351 0.032415 
0.217302 0.0695139 0.00390844 
-0.0242763 0.0983374 0.242248 

-0.046339 -0.22055 0.0236624 
0.0800832 0.106018 0.287865 
-0.0204991 -0.00254312 -0.0105529 

-0.0144275 0.0380623 0.17904 
-0.0382613 0.00245688 -0.0407258 
-0.00136623 -0.000693452 0.0355874 

-0.011467 0.00189908 -0.000390267 
0.00561274 -0.00926081 -0.00992749 
-0.000408729 0.00113433 0.0420897 

-0.0720335 0.39898 -0.0878333 
-0.318381 0.135898 -1.20341 
-0.0197332 -0.0108052 0.305416 

-0.0541904 0.00607346 0.196005 
-0.000702272 0.0409272 -0.219033 
-0.00150201 0.0243348 -0.0306628 

-0.0495628 -0.085564 -0.449035 
-0.0371507 0.0465418 -0.0796122 
0.0177337 0.00229004 0.0125797 

-0.00505163 -0.0101775 -0.00838743 
0.0128077 -0.00429449 -0.00319265 
-0.000512744 0.000557661 0.0191118 

0.0250644 0.0618341 1.48208 
-0.137098 0.0151181 -1.56373 
-0.000661055 0.0216531 0.0337269 

-0.0510106 -0.0579345 -0.368408 
-0.0694313 0.0434281 -0.443025 
-4.96633e-05 0.00105657 0.0189772 

-0.00159391 0.0233537 -0.786791 
-0.022117 -0.00495904 0.707437 
-0.000820202 0.00197488 0.0655931 

0.0054321 0.0189517 -0.00597819 
-0.0466401 -0.0151155 -0.0583111 
2.67266e-05 7.39719e-05 0.00289958 

-0.0205353 -0.0287007 -0.0682681 
0.00541093 0.0276872 0.0592842 
-0.0450418 0.00452919 0.211339 

-0.317652 -0.343622 1.01205 
-0.199843 0.21187 -0.821993 
0.00103019 0.00796277 -0.0183797 

0.00490866 0.0319274 0.0725239 
-0.00127984 0.0138516 -0.0929599 
-0.000156468 -0.000460474 -0.0316284 

-0.00502048 0.0146014 -0.000259106 
0.0101256 0.00151929 -0.0222479 
0.00242942 0.000488216 0.00381015 

-0.029429 0.0270283 -0.158323 
-0.0355628 0.0335846 0.0855719 
0.00542626 -0.010483 0.00922461 

-0.00490439 -0.0157095 0.00349181 
0.0128645 0.00269812 0.00817887 
0.000171544 0.000331467 0.00837093 

-0.415046 0.202603 -0.042429 
0.0965829 0.262354 0.254672 
0.0200046 -0.0417507 0.332409 

-0.00944986 -0.00343331 -1.9419 
0.00103888 0.00488561 1.17157 
-0.00147163 -0.000924727 -0.302292 

-0.00800275 -0.00148403 -0.010446 
-0.00767996 -0.00509412 0.0325872 
-0.000342522 0.000568576 0.0192024 

0.00411992 -0.0151582 -0.00744832 
0.0218188 0.00150417 -0.0135352 
0.000592179 -0.000495064 -0.000804106 

-0.0789944 0.203879 -0.352333 
-0.0624981 0.0500539 0.496141 
-0.00328167 0.00102001 0.0665097 

0.00953062 -0.0375413 -0.0265172 
0.0339424 0.00410751 -0.018403 
0.000401422 -0.0014255 -0.0190879 

-0.00989529 -0.00219184 -0.379928 
0.0021863 0.00830557 -0.232002 
0.00057713 -0.000708932 0.0326519 

-0.101154 0.00785499 -0.144868 
-0.399385 0.129418 0.553439 
-0.026235 0.0105432 0.0807316 

0.111591 -0.0912251 0.152311 
0.247891 0.0239907 0.059517 
0.0370029 0.00329248 -0.0275561 

-0.0881174 0.105734 -0.510697 
0.0631718 0.0312679 1.7456 
0.00463245 0.0145946 0.225364 

-0.104383 0.0431553 0.0396869 
-0.0159464 0.025856 0.0536838 
0.00359755 0.000942217 0.100879 

-0.102055 -0.0857101 -0.0671882 
0.0812677 0.0833817 0.320124 
0.0163667 -0.000138971 0.0307768 

0.0198148 -0.166298 0.672488 
0.0647122 0.01747 0.117912 
-0.00131608 0.00155646 0.0717897 

-0.330432 0.354281 -0.87912 
-0.0911944 0.353365 -0.0645854 
0.0205428 0.0257943 0.00438792 

-0.0527861 -0.0137632 0.757915 
-0.0135931 0.0602633 0.225059 
-0.00175224 -0.000621431 0.057629 

-0.147756 0.0224261 -0.198775 
0.259504 0.0408959 0.412436 
-0.0636865 0.0820219 0.243419 

-0.00532188 -0.0126469 -0.00371248 
0.016382 0.00549517 0.0390711 
0.00993602 -0.0184371 0.0319329 

-0.00289342 -0.0115937 -0.0088035 
-0.00392562 -0.00984621 0.122592 
0.000237216 -0.000313291 -0.000565847 

-0.00457789 -0.00209308 -0.0112328 
-0.00491066 -0.000540472 0.0129 
0.00104814 0.00109861 0.0088202 

0.00181132 -0.0252529 0.0146946 
0.0534278 0.00129169 0.0499755 
-0.000379905 0.00128217 0.00297126 

-0.00387965 -0.0124348 -0.0224364 
0.0133852 -0.000614293 -0.0345647 
-0.000153948 -0.000120922 0.0083457 

-0.00481152 0.00165276 -0.00665401 
-0.00980001 0.0108865 -0.00447936 
0.000334833 -0.000155551 0.00454706 

-0.00443667 0.0543808 0.0103035 
-0.0535629 0.00294489 0.0160642 
0.00020753 0.000728233 0.00510255 

-0.0913579 0.0423574 -0.204018 
0.00870263 0.318952 -0.951973 
0.0367769 -0.00545283 0.00999566 

-0.0175067 0.010123 0.0339419 
-0.0255042 0.0102339 -0.118063 
-0.00163092 -0.00028153 0.0494185 

0.0915317 -0.152697 -0.0854012 
-0.00960268 -0.0438041 -2.11639 
-0.00182891 -0.00323305 0.103552 

0.0148543 -0.046695 -0.145495 
0.0424629 -0.0393462 0.00222783 
-0.0039569 0.0003532 -0.0130925 

-0.00562527 -0.0119296 1.36735 
0.00979493 0.000730338 -1.37404 
-0.000172258 -5.38025e-05 0.0725689 

-0.0118696 -0.0410645 -0.0651296 
0.0544706 -0.000787201 -0.335289 
-0.00158566 0.0012635 0.0315159 

-0.0217135 -0.00191061 -0.127667 
0.00163386 0.00953454 -0.567304 
-0.0175407 -0.00350101 -0.0442259 

0.105758 -1.09298 -472.428 
-0.00815907 0.116621 34.8672 
-0.00192397 0.0122998 7.27422 

-0.00608515 -0.00487029 -0.0205786 
-0.0117621 -0.000832239 -0.0529579 
0.00051242 -0.000121225 0.00778951 

-0.259552 -0.0326571 -6.43785 
-0.311286 0.140306 5.2333 
0.00416042 0.00360353 -0.319779 

-0.0988464 0.326416 0.639669 
0.0330429 0.122571 0.656758 
-0.00729264 0.00226649 -0.0450254 

-0.0137657 -0.0181416 -0.452282 
-0.0211106 0.0240478 -1.63903 
-0.000328053 0.000753499 0.0414537 

-0.857145 0.250854 -1.85627 
0.0411441 0.338751 -7.25271 
-0.00121435 0.0201728 0.483677 

-0.0634761 0.0458488 -0.0858145 
-0.0066292 -0.0180072 0.0584505 
0.000253809 -0.00419206 0.0434078 

0.0487226 -0.182611 0.0623176 
0.194362 -0.000786513 -0.289178 
-0.00154095 -0.00212209 -0.0409125 

-0.0313071 0.0384141 0.214257 
-0.00472329 0.0318172 -0.0402144 
0.038204 -0.0140881 0.154332 

0.0308622 -0.0140704 -0.201256 
-0.197883 -0.0679282 -0.584366 
0.00811853 0.00193494 -0.0137724 

-0.00859771 -0.00983305 -2.57497 
0.131733 0.176215 3.14346 
0.00493629 0.0136097 -0.473319 

-0.020528 -0.0529721 1.44691 
0.0279679 0.00181076 -0.767701 
0.000503914 0.00132266 0.0316041 

-0.255198 0.0167044 -0.0900377 
-0.167701 0.0904002 0.0344881 
0.0411845 0.103403 0.184961 

-0.0367321 0.0357314 0.127456 
-0.0398074 0.0498521 -0.0056877 
-0.00035797 -0.00139908 -0.0277408 

-0.00251554 0.0273343 0.0634858 
0.0116239 0.00659804 0.0127678 
0.000535215 -0.00238763 -0.00433504 

-0.0125448 0.00950361 -0.0106435 
-0.00262626 0.00232762 0.175461 
-0.000174105 -0.000346684 0.026497 

-0.0099602 -0.00288454 0.0243826 
-0.000330102 0.00875575 0.00678482 
0.000395441 0.000599549 0.0130911 

-0.00796845 0.00404487 0.0510028 
-0.0136709 -0.00984455 -0.127872 
0.00235554 0.00124315 0.0799754 

-0.0133298 -0.00917144 0.0511491 
0.00746787 0.0107856 0.282138 
0.00187227 0.00170241 0.0449359 

-0.161648 -0.130324 0.366235 
0.00122934 0.155048 -0.307714 
-0.000949242 -0.00103099 -0.0161067 

-0.0349804 -0.401176 1.24619 
0.00832599 0.0708421 -0.0383795 
0.0276218 -0.00304131 -0.110677 

0.0689285 -0.22564 0.114455 
0.308482 0.0475722 -0.0729258 
0.00678162 -0.0271266 0.0862467 

-0.0174334 0.0328023 0.176043 
-0.0185702 -0.0106064 0.193713 
-0.00328538 0.000567369 0.0692933 

-0.00444882 0.00721122 -0.0061352 
-0.0194578 -0.00181205 0.0415661 
-0.000525271 -9.5539e-05 0.0170919 

-0.0128097 -0.0055358 0.000472991 
0.00963844 0.00520666 0.000679482 
-0.000721142 0.000848932 0.0179774 

-0.00546236 0.0142549 0.108732 
-0.00857837 -0.00792958 -0.0277491 
-0.00379367 -0.0065647 0.0329467 

0.00574602 -0.0880407 -0.00213825 
0.02265 -0.0342921 -0.0406441 
-0.00274073 -0.00598614 0.0960255 

-0.0689782 -0.0571807 -0.41072 
-0.041517 0.021211 0.598502 
0.000734181 -0.00639081 0.10228 

-0.172299 -0.145187 -0.419854 
0.134745 0.076465 0.626305 
0.0685437 -0.0393578 0.734597 

-0.419596 -0.0864675 -0.286752 
0.0594868 0.282881 -1.10962 
-0.00691472 -0.0400119 0.274598 

-0.00737007 0.00517104 -0.0891788 
-0.00230727 0.00635021 -0.241408 
-0.000148874 -0.000245659 0.0492987 

-0.0199435 0.000540151 -0.00244341 
-0.0103937 -0.00841085 -0.0364972 
-0.00121547 0.00256983 0.0262125 

-0.0119292 0.0058288 -0.0609288 
0.00254403 0.00570622 0.0293615 
0.00108532 -0.000728828 0.012477 

0.0136773 0.0017994 -0.167126 
-0.00382264 0.00162451 -0.0219375 
-0.000791913 0.000381683 0.00855773 

0.0427076 -0.439095 0.00700413 
0.430684 0.123082 -0.00296585 
-0.00746832 0.000116453 0.0317731 

-0.00509604 -0.000968487 -0.0122315 
-0.00589148 -0.0011341 -0.0335425 
-6.43422e-05 0.000228473 -0.00346849 

-0.391885 -0.266013 0.321056 
0.387824 0.251793 0.305031 
-0.0174248 -0.0124726 0.167281 

0.094163 -0.407575 0.0107659 
0.448461 0.105993 0.00702224 
0.0011069 -0.00242125 0.00204853 

-0.0101314 0.023177 0.0332801 
-0.00303954 0.000104755 0.0160172 
-0.000586712 -0.00242829 0.0124055 

-0.213415 -0.018867 -0.690602 
-0.102877 0.172787 -0.110612 
0.00515117 0.0615906 0.136094 

-0.461137 -0.016897 -7.25446 
-0.339286 0.24433 -2.80277 
-0.001056 -0.0135414 0.0727682 

-0.0148363 -0.0446752 0.221454 
0.0654578 0.0456687 0.0302117 
-0.0190261 0.00496522 -0.0779248 

-0.00794138 0.0123475 0.00386212 
-0.011197 0.00445505 -0.0184478 
-0.000403641 -9.32996e-05 0.00339582 

-0.0169906 -0.024888 -0.0359316 
-0.0430306 0.00614991 0.0660704 
-0.00916427 -0.123206 -0.106332 

0.0138447 0.0611257 0.0304531 
-0.0778111 0.0317468 0.130254 
-0.0227095 0.13992 0.276964 

-0.0714069 0.0247971 0.0601626 
-0.0226297 0.0250561 0.0528157 
-0.0268151 -0.0589529 0.261331 

0.0315592 -0.165706 -0.125218 
0.179173 0.0227782 0.0146781 