# vtk DataFile Version 3.0
Output file generated by Yade's KinematicLocalisationAnalyser
ASCII
DATASET UNSTRUCTURED_GRID

POINTS 13483 float
545.512 51.4389 -0.418025
652.811 85.1168 0.336406
115.114 6.08898 -0.446387
676.008 5.63445 0.399037
477.763 8.2475 -0.371878
306.219 39.9879 0.569451
150.876 7.0352 0.448849
519.993 26.7648 0.144765
470.835 25.8662 -0.155765
619.802 16.5111 0.612303
204.178 8.96534 -0.0952722
250.138 6.45115 -0.243245
573.496 47.4453 0.1369
563.795 15.7112 -0.107005
132.041 17.9628 0.566013
214.564 35.4999 0.262813
211.505 13.021 -0.297562
281.453 9.52039 0.446989
330.024 34.7275 0.440408
501.172 8.29499 0.368663
399.617 41.0687 -0.104218
539.4 71.0496 -0.271166
668.674 55.2973 -0.459797
611.934 72.8188 0.468535
443.007 18.0206 0.329396
234.411 45.4271 0.13475
459.486 33.2682 -0.506265
533.509 37.8611 -0.260626
43.9299 16.0967 0.466973
615.176 40.089 -0.37305
463.047 4.54588 0.419998
16.1678 24.0393 -0.30089
660.887 72.9916 0.27521
475.375 2.2253 0.634603
75.9263 45.9448 -0.105776
478.348 36.6118 0.350038
506.783 16.2726 -0.569234
334.239 23.1103 -0.171379
488.243 37.2452 -0.321101
340.077 35.3409 0.528094
234.64 14.6557 -0.333628
419.098 40.1626 -0.0874198
593.463 24.7011 -0.161641
186.432 6.2626 0.345266
53.9081 7.2072 -0.101515
66.6723 8.83434 -0.262292
595.206 11.1145 -0.666391
22.8366 11.4688 0.307375
562.195 79.334 -0.264183
594.068 44.8412 0.32398
166.602 33.2395 -0.296303
642.809 75.728 -0.125789
34.0488 28.9664 -0.106211
510.977 2.77572 0.426838
137.079 7.39898 -0.499298
545.914 61.7899 -0.363193
464.339 39.6835 -0.140891
169.21 0.952635 -0.273106
32.1557 2.35132 0.335043
339.425 17.9345 0.266453
575.976 80.9355 -0.132113
447.577 37.3565 0.183084
387.964 1.0315 0.205788
604.119 7.90339 0.381436
25.784 43.9403 0.242679
249.813 31.1447 -0.310298
621.228 9.4415 0.551217
582.699 75.912 0.341538
405.272 9.66665 -0.660895
522.875 11.7206 -0.612419
636.239 61.2082 0.461064
125.936 7.77707 -0.266005
468.261 28.0418 -0.12099
458.798 14.3564 -0.153813
287.307 16.6715 -0.392206
20.334 13.6511 -0.30892
657.662 61.406 0.337259
322.637 40.5631 -0.322462
594.084 41.1233 0.394984
595.714 17.6527 0.2736
664.938 25.1727 -0.332274
448.832 41.1322 0.190448
90.4431 41.1095 -0.134451
600.275 75.2594 0.232758
566.823 59.9577 -0.132893
672.694 59.3029 0.117661
673.071 0.684109 -0.517543
284.108 30.5101 0.424657
555.507 6.57912 -0.162663
23.8731 5.20323 0.574428
128.615 39.704 -0.153245
491.747 15.1749 0.218734
654.654 48.0779 -0.521513
189.736 29.3657 0.257485
43.6362 36.229 -0.27546
474.216 1.16083 0.123786
229.923 8.79856 -0.424747
627.539 83.6525 -0.264163
649.31 56.669 0.268335
351.69 21.612 -0.26963
158.614 27.5825 -0.441177
500.006 60.3955 -0.4278
371.056 15.843 -0.469392
402.854 34.3924 0.0960856
368.36 5.16567 0.524744
501.608 25.3591 0.156981
676.192 18.3414 0.339959
78.4668 40.7697 -0.418879
327.265 4.96661 -0.233456
514.545 26.6697 -0.438137
351.004 46.3249 0.453358
24.5203 25.5836 -0.448106
29.9156 5.70058 0.340054
520.323 55.4307 0.403267
479.071 25.8014 -0.151295
25.2275 37.672 0.423097
91.6121 32.7463 -0.219166
318.225 16.6697 -0.275339
542.96 27.2507 -0.159321
457.968 49.121 -0.117401
635.386 7.29969 -0.566297
627.826 8.14059 -0.30593
378.507 38.0102 -0.108505
564.432 33.4053 -0.112857
233.09 16.9605 0.597943
322.759 3.91375 0.467284
100.277 33.3131 -0.304783
112.747 25.485 0.265886
495.385 58.9289 0.0707378
299.445 19.0852 0.462465
606.454 49.5989 0.107799
586.529 78.3009 0.108603
462.08 20.8813 -0.418392
644.136 30.8444 0.336293
414.937 27.7366 -0.235408
272.603 24.1321 0.343895
593.262 63.3373 0.288444
273.904 29.2925 0.369948
529.007 30.285 -0.281636
323.44 37.1603 0.200952
485.737 12.5046 0.551589
358.284 33.4199 0.105325
418.69 17.7733 -0.105672
310.672 46.3092 0.446018
185.908 31.0584 0.11802
653.822 80.061 -0.142639
673.857 20.44 -0.26621
5.96434 12.3949 0.41979
421.989 24.4419 -0.42427
37.514 23.3232 0.0783178
368.726 32.6176 -0.467578
387.919 25.2323 -0.280945
73.0375 11.9451 -0.453583
50.3015 36.3834 0.551554
221.572 13.773 0.414343
548.38 41.7249 -0.426411
527.307 42.3568 -0.489493
72.4757 22.626 -0.491898
614.367 70.8868 0.446493
659.77 3.94694 -0.58255
580.769 67.774 0.452794
599.679 1.98445 0.601525
506.263 46.8237 0.386345
540.849 71.7721 0.459131
495.591 18.3845 -0.502543
674.022 6.11867 0.596278
220.032 26.4124 -0.104953
124.119 36.7225 0.195746
243.152 6.84152 0.402702
91.458 4.84023 -0.259224
63.0623 10.2353 0.243912
271.672 37.8993 -0.408788
17.001 26.3284 -0.363021
511.714 37.4676 -0.401655
562.699 74.4414 -0.199665
450.661 23.8786 -0.345041
676.582 81.3552 0.361689
399.075 8.6966 -0.146105
424.236 39.0476 -0.472578
518.775 3.68686 -0.419357
22.6294 24.5996 0.410289
527.533 15.4366 0.642132
526.333 5.37406 0.453459
202.551 11.3787 0.481263
415.407 16.9249 -0.210261
307.101 6.61713 0.344118
381.329 19.2022 -0.336537
626.206 70.3471 0.107325
188.618 26.3017 -0.419888
658.853 18.5995 -0.429881
629.843 69.0506 -0.331815
376.896 10.5664 0.183292
620.054 2.47615 -0.478492
544.467 36.4214 -0.459368
640.84 17.7989 -0.448319
422.981 48.7418 -0.310676
480.634 13.2951 0.4858
448.92 52.6501 -0.245762
435.65 11.1124 -0.199092
584.276 69.1372 -0.271974
584.098 64.7081 -0.359886
188.447 40.0045 0.355453
662.753 25.231 -0.167776
542.808 72.8495 0.242172
11.4995 17.0949 0.302284
401.437 28.6335 0.339585
183.941 23.5901 -0.424062
91.7571 42.5821 -0.225597
652.938 46.2587 -0.42629
575.596 72.771 -0.255392
315.173 26.977 0.362413
516.309 9.69336 0.372077
80.8788 45.9183 -0.183419
243.928 26.1954 -0.472472
512.381 43.1822 0.373156
472.227 18.8922 -0.612544
259.381 0.878061 -0.344062
509.247 64.337 -0.250693
488.509 57.7629 -0.506641
469.299 52.9234 -0.253894
485.011 1.95352 -0.66072
607.388 20.5548 0.42814
175.9 12.6215 -0.207971
485.753 64.4564 0.425319
520.597 63.2553 -0.0885043
72.1478 0.977488 0.273879
248.371 4.93064 0.187718
673.342 23.9014 0.239894
665.01 27.1957 -0.460958
678.164 23.7234 -0.665164
299.7 8.74497 -0.246014
630.796 36.8035 -0.465516
399.675 46.9256 -0.311878
437.112 0.915203 0.570771
572.791 59.676 -0.52765
25.967 31.2589 0.309622
324.903 43.1143 0.622251
249.172 3.07109 0.390767
663.212 69.3495 0.181743
617.218 64.1067 0.274289
283.857 10.9009 0.28758
585.54 55.9503 -0.0842778
529.222 4.51545 -0.383487
523.455 8.84567 0.637866
94.8884 18.9883 0.480428
299.705 1.11146 -0.238133
338.265 2.23023 -0.381288
13.7273 7.68098 0.461138
3.99158 32.228 0.256432
158.509 19.3353 0.417115
67.4296 43.6191 0.228517
64.5417 30.5242 0.336959
415.55 14.3198 -0.570431
361.542 36.8219 -0.478611
639.937 80.4267 -0.114851
19.2268 3.96583 -0.279341
69.6717 6.89754 0.14336
555.796 46.3976 -0.189354
291.231 0.934584 0.400599
359.705 16.6545 -0.121771
232.519 4.74037 -0.340109
575.326 36.6202 0.180896
439.907 10.378 0.57317
644.539 22.5701 -0.475857
565.011 37.6449 -0.3249
592.669 39.6739 0.0915988
410.906 30.9315 0.481099
99.6804 48.9214 -0.318546
497.8 63.7656 0.0678056
639.341 12.7503 0.305592
234.285 31.6814 0.252798
31.4252 17.7634 0.204851
331.832 14.0766 0.494845
104.949 44.098 0.465995
265.027 43.4493 -0.237975
418.644 2.12444 -0.284973
654.739 52.655 0.396886
593.68 2.46737 0.642373
327.731 3.45293 0.593052
296.56 28.42 0.155226
450.143 49.4115 0.19847
80.0403 9.07478 -0.510606
194.728 46.0143 -0.389765
648.571 61.7606 0.350884
480.163 65.1667 -0.0657945
196.958 41.8071 -0.292909
157.746 43.4384 0.396571
679.455 51.296 0.454861
675.462 19.723 -0.58693
547.687 3.35254 -0.666143
187.397 24.9135 0.0899125
508.149 47.4909 0.123022
510.056 50.5865 0.266295
403.739 5.98085 -0.117248
469.29 0.925232 0.418403
641.052 85.5138 -0.504712
84.1505 32.3056 0.208246
579.347 36.3565 -0.464045
271.611 15.816 -0.363137
9.18807 2.39997 -0.320733
122.706 38.3021 -0.181897
64.6427 24.4634 0.458396
604.135 60.2035 0.308169
669.407 76.2767 -0.199397
182.79 29.6429 0.172848
673.282 26.6446 -0.458409
44.6672 38.3982 0.242212
90.2789 31.3312 0.16225
572.276 16.4127 0.390916
407.413 18.2163 -0.578183
505.067 16.5823 0.129246
234.592 29.7404 -0.179307
562.357 4.23917 -0.572994
678.188 18.6499 0.452833
29.2119 32.411 -0.267181
267.311 7.77338 0.208848
219.312 15.5602 0.266582
1.093 37.2686 -0.144454
222.576 14.845 -0.369933
209.026 11.1257 0.115182
211.571 26.5576 -0.288741
129.545 29.6026 -0.133025
506.253 32.5723 -0.327085
163.89 14.6509 -0.334775
658.286 73.193 0.268174
171.111 3.87655 0.506824
46.2862 41.1263 -0.355923
620.07 77.4701 -0.541283
278.091 33.4511 -0.380214
599.713 43.8837 0.474843
659.396 54.4317 -0.485664
297.789 9.38942 0.122809
627.069 48.2215 -0.392367
324.731 2.50276 -0.444395
409.706 25.7129 0.352549
599.105 38.0081 0.523678
103.47 12.0998 -0.546348
471.317 3.73643 -0.530206
639.246 28.3767 0.159663
86.6807 7.89044 0.33481
279.231 14.6928 0.227653
416.263 12.2636 -0.22731
673.632 8.02341 0.607661
392.824 1.98356 -0.547822
173.762 40.2029 0.347722
642.515 10.7312 -0.337003
126.024 37.716 0.201838
261.201 31.9761 -0.382824
395.685 23.2702 0.204043
530.717 32.7231 0.377182
382.259 10.1827 -0.558459
448.129 31.0271 -0.463982
652.12 83.7114 0.38375
47.2234 11.7997 -0.184789
295.916 40.3089 -0.310722
374.968 26.9445 -0.395973
403.298 21.3223 -0.271345
477.678 53.746 0.387086
634.342 85.673 0.222935
589.375 67.3346 -0.356397
222.61 36.2757 -0.373199
11.6991 33.2143 0.151969
582.389 63.8143 0.158432
496.462 68.7116 0.424837
226.684 40.9361 0.117192
595.204 66.3289 -0.109054
148.146 9.37648 0.247082
362.488 21.7428 0.295131
450.702 51.4299 -0.117389
407.313 20.0728 -0.230215
651.439 89.2965 0.290961
419.594 4.58717 0.65581
49.0726 26.8469 -0.324215
461.408 43.2939 0.333941
426.176 43.726 0.37156
658.992 66.2093 0.229294
625.139 40.9968 0.298203
500.626 35.9494 -0.12591
650.588 73.1552 -0.390269
290.883 2.21002 -0.481069
374.737 30.0638 0.436696
28.3487 39.4983 0.303803
633.075 53.9388 0.17848
551.566 23.0971 -0.451963
451.321 0.772413 -0.493845
123.136 4.72502 0.331059
420.391 46.2177 0.106895
11.5446 0.919928 0.315664
672.05 10.4213 0.166206
365.846 40.7126 -0.402575
552.514 7.99687 0.581303
[...]
POINT_DATA 13483
TENSORS Strain_matrix float
-0.263639 0.519423 -1.6394 
-0.490163 0.28334 0.178111 
-0.0865899 -0.0203683 -0.280961 

-0.164296 -0.0316791 4.24649 
-0.193535 0.0325661 5.2586 
0.0145914 0.00229509 -1.01387 

-0.0313901 -0.0109769 -0.0475505 
0.0182058 0.009356 -0.599393 
0.00123269 0.000692839 0.097023 

-0.289573 0.110956 -0.448465 
0.211574 0.333951 0.287284 
-0.0431414 -0.00350687 0.137547 

-0.0829915 -0.138148 0.0791586 
0.0139941 0.0823939 -0.262366 
-0.0104802 0.0414478 -0.0378185 

-0.0232006 -0.0384912 -1.73601 
0.00937681 0.00989865 1.15809 
0.00021438 2.65903e-05 0.0439033 

-0.00496551 0.00141266 -0.0226951 
0.00199367 -0.00134687 0.0239228 
-0.000311973 -0.000278439 0.00626582 

0.0140177 -0.131277 -0.0597905 
0.159493 0.0132034 0.0608714 
0.00172734 -0.0215342 0.0492194 

0.0555151 -1.35394 0.124838 
0.0478496 0.130846 -0.931197 
0.0305026 -0.012141 0.223689 

0.00265141 -0.00584827 0.00894338 
-0.0238956 -0.00454569 0.0321842 
0.00167671 0.000862799 0.00631054 

-0.00396126 -0.00425366 0.00611384 
0.00412712 0.00177324 -0.000485029 
-0.000579589 -0.00019262 0.0043733 

-0.0192217 0.0201679 0.0112936 
-0.0222647 0.00738946 0.0146412 
0.00114068 -0.000184906 0.0176141 

0.00378607 0.0596312 0.0473296 
-0.159629 0.0452244 -0.167602 
0.00592857 0.000823562 -0.0049157 

0.0407645 0.102969 -0.0122729 
-0.0256058 -0.0278538 -0.036059 
-0.000384896 -0.00818217 -0.00427791 

-0.0147435 -0.00266936 0.785186 
-0.00467285 0.00325454 0.607055 
-0.000907381 0.000743638 0.124505 

-0.00990226 -0.0297656 0.0299569 
0.026245 0.0011444 -0.0252515 
-0.00101656 0.000489812 0.0164365 

-0.00537959 -0.00207413 -0.000495464 
0.0026517 0.00212462 -0.00320826 
-1.09441e-05 0.000171231 0.0030841 

-0.0106701 -0.00794549 0.0126112 
0.0014195 -0.0121413 0.0270176 
0.000208882 0.00063599 0.0387282 

4.26449e-05 0.034571 -0.00279087 
-0.0253531 0.0139333 -0.0648565 
-0.00301448 0.00106742 -0.062511 

-0.0092317 0.0333606 -0.0292336 
-0.014581 -0.00481785 0.0193356 
0.00100933 0.000353344 0.0267395 

0.00839338 -0.264513 0.0787667 
0.288003 0.0518359 -0.10481 
-0.00611062 -0.0222885 0.197203 

0.00222426 0.112975 0.298123 
-0.169385 0.128275 -0.770273 
0.0144876 -0.00267136 0.0524562 

0.00197502 0.00698908 -0.0153035 
0.00646691 -0.022863 -0.0856638 
-0.00610184 -0.00685462 -0.0118758 

-0.0696031 0.119688 0.81839 
-0.1192 0.0570959 1.31485 
0.00318868 0.00177675 0.0601214 

-0.365869 -0.0935981 -0.455072 
-0.172211 0.316318 0.375598 
0.0500214 0.0101293 0.318422 

0.00283165 -0.00706539 0.00112546 
0.0159027 -0.000366425 0.00306945 
-0.00226936 0.000772569 -0.00634108 

-0.777467 -0.0491656 -34.9025 
-0.155272 0.418725 -11.9114 
-0.0119161 -0.00212039 -0.271663 

-0.0686349 -0.26647 0.10171 
0.00168468 0.0696678 0.0778853 
-0.00232924 -0.0261104 0.0288007 

-0.00162716 -0.00400947 -0.129254 
0.00924192 -0.00492814 -0.0606599 
-0.000529912 0.00115614 0.0236536 

-0.406104 -0.328184 -0.846515 
-0.00559264 0.307771 -0.52615 
-0.0209334 -0.0171307 0.143944 

-0.00436852 0.00201398 -0.00754337 
0.00597257 -0.0272637 0.0482647 
-0.00290634 0.00314375 0.0143654 

-0.0359121 0.00564853 -0.0744905 
0.028786 0.0292261 -0.00313081 
0.000246872 0.000187422 0.00252118 

-0.00275734 0.105737 0.0374558 
-0.114186 -0.0041267 0.153332 
-0.00141064 -0.00451587 0.0777217 

-0.0108604 -0.0190642 0.141942 
-0.00681307 -0.034483 0.166778 
0.00193011 0.00867989 -0.0758793 

-0.0213102 -0.0436569 0.0387747 
0.0271498 -0.00124777 0.0297862 
-0.000450618 -0.00179322 0.0297138 

0.071607 -0.12864 0.549056 
0.217061 -0.0904134 0.377159 
0.00316966 -0.0134385 -0.0442383 

-0.020578 -0.529536 19.1688 
0.0366702 0.28257 -8.8044 
0.00185869 -0.000704884 0.251464 

-0.00286666 -0.044129 -0.117388 
0.0458774 0.0219068 -0.0390059 
0.00529589 -0.00173544 -0.0752151 

-0.0320032 -0.066289 -0.470415 
0.0895269 0.0879059 0.225112 
0.0060138 -0.00949008 0.0536173 

-0.00707066 -0.027677 0.203251 
0.0269538 -0.00045168 -0.0495623 
0.00137355 -0.00116605 0.188943 

-0.054528 0.00618461 -0.0621941 
-0.0182518 0.0459396 0.120194 
-0.00235877 -0.00312911 0.0552894 

-0.130356 0.476543 -0.334142 
-0.408606 0.302996 -0.384709 
-0.000291883 -0.0452216 0.684368 

0.0468727 0.0430245 -0.0679134 
-0.0419285 -0.0319071 0.011699 
0.00546804 -0.000958813 0.0240603 

-0.0045522 0.00019946 0.00290341 
-0.00203955 0.000363153 0.0373536 
-0.000396308 -0.000124226 0.00591276 

-0.0180521 0.00942705 -0.0327702 
0.00259702 0.0131499 0.00348141 
-0.000779406 -0.000748099 -0.000911715 

-0.0120025 0.00768273 -0.0256903 
-0.0170045 0.00196167 -0.0951431 
0.0104277 0.00283614 -0.0339768 

-0.0520304 -0.0870411 3.04952 
-0.188658 0.0735305 -1.92923 
-0.00749241 0.0169991 0.47398 

-0.00487454 0.00307183 0.00393618 
-0.000652015 0.00302604 -0.00231999 
-0.00102167 0.000168572 0.00319966 

0.0317926 0.166453 0.0816854 
-0.162396 -0.116909 0.19074 
0.000221416 -0.00407747 0.680344 

-0.0518032 -0.195119 0.154154 
0.0941879 0.00346999 0.548032 
-0.00682485 0.0408774 0.308657 

0.00169435 -0.0113968 -0.011949 
-0.00105849 0.00226566 0.00127983 
-0.00252125 -0.000846333 -0.00851623 

-0.0826759 0.0135489 -0.757767 
0.0684687 -0.0102146 0.29324 
0.00211351 -0.0213493 0.161426 

-0.00986923 -0.0207301 -0.0137451 
-0.029585 0.0108616 -0.057297 
0.000136644 -9.49425e-05 -0.0047397 

-0.0337011 0.0464949 0.00819064 
-0.0376556 0.00971773 0.209862 
0.0116103 0.00403018 0.0941709 

-0.00909758 0.00303072 -0.0167696 
-0.00150835 0.00160953 0.0012073 
0.000180716 0.000810885 0.0148607 

-0.0493003 0.0567197 0.183743 
-0.0665363 -0.0562875 -1.07953 
0.000105022 -0.0375944 -0.021495 

-1.01477 0.656415 -1.10657 
-0.465765 0.774737 2.35776 
0.0335214 0.0285717 0.0180352 

-0.00530544 0.000849559 -0.00328106 
0.000799169 0.00384942 -0.0125218 
-8.15453e-05 0.00146941 0.0107329 

-0.00529274 -0.00145784 0.00260653 
0.000668746 0.000677447 0.00622782 
0.000474868 -0.000902351 0.00526108 

-0.00369389 0.0237293 -0.0841424 
-0.0244229 -0.026129 -0.0414833 
0.0160462 -0.0245931 0.130893 

-0.269733 -1.06589 0.66785 
-0.041484 -0.0731644 -0.451439 
-0.00562374 0.0418621 0.790392 

-0.0394643 -0.0213086 -1.95328 
0.22255 0.168982 -0.832969 
0.0292513 -0.00417617 -0.0606971 

-0.0184664 -0.0229398 0.0378694 
-0.00363848 0.00121417 -0.0198567 
-0.000192753 0.000845273 0.0309884 

-0.005296 -0.00987478 -0.0081299 
-0.0152923 -0.0549931 -0.303192 
0.00972146 0.00227544 0.0207387 

-0.0168459 0.00385159 0.00213269 
0.00138986 0.00946611 0.0464001 
0.00125607 0.00167096 0.021705 

0.000673666 0.0270293 -0.0113748 
-0.0199892 -0.00227237 -0.0441792 
0.0316743 -0.0322466 -0.0986614 

0.00848089 -0.00760479 -0.0339736 
-0.019575 -0.00854732 0.0308974 
-0.00109163 -0.00123784 0.00193383 

-0.348375 0.434917 1.58282 
0.0651065 0.186549 0.250627 
-0.0122129 -0.00426614 -0.0326938 

-0.0667056 -0.0314158 1.70726 
0.0198444 0.0111271 -0.918724 
-0.0193586 -0.000290382 0.301091 

-0.97456 -1.90502 1.94139 
1.21468 1.45873 -0.00721266 
0.0556554 -0.0157137 0.388504 

-0.0462657 0.219515 -2.255 
0.0501173 -0.0576448 0.553111 
-0.025013 0.0346937 0.331681 

-0.0125633 0.00845227 0.0024982 
-0.00879134 0.00708398 -0.0124136 
-2.38593e-05 -0.000751062 0.0127859 

-0.534751 -2.23549 -0.140617 
-0.111538 0.122977 -0.533182 
-0.0310823 0.00340787 0.158292 

-0.00534098 -0.0190213 -0.0871469 
0.0278145 -0.0206721 -0.0463272 
0.0101833 -0.00126545 0.0978812 

-0.0174166 0.0093708 -0.0831833 
0.0226948 0.0218448 0.196295 
0.0012575 0.00470036 0.0555554 

-0.00972502 0.00531185 -0.0041786 
0.00181089 0.00193391 0.00210876 
0.000775543 -0.000290866 0.00898828 

-0.0988016 0.0307196 -0.0103219 
-0.122859 0.120202 0.447771 
-0.00393968 0.000141509 0.0509089 

-0.00546776 0.00653282 0.00914819 
-0.0153977 0.00637731 -0.00953912 
0.00105656 -0.000838424 0.0022036 

-0.109499 -0.022082 -0.287897 
0.045983 0.0365121 0.347034 
0.0134897 0.000381046 0.135074 

0.111151 -0.0959809 -0.444319 
-0.156193 -0.103113 0.172669 
0.0418482 -0.0357339 -0.0149506 

0.00294467 -0.10901 0.0936082 
0.139343 0.000140552 0.0475446 
0.00129097 -0.00174873 0.0360295 

0.028163 -0.242257 -0.140274 
0.285573 0.038571 0.124357 
-0.00144166 -0.00118026 0.00580667 

-0.176028 -0.108079 -0.285215 
0.18107 0.129311 0.0371882 
-0.0770476 0.0585666 0.649761 

-0.0767062 -0.195761 -0.0497975 
0.0651019 0.0938644 -0.250612 
0.00565101 0.00038241 -0.00620657 

0.0182986 0.0302354 0.0333194 
-0.0526364 -0.0191844 0.0150579 
0.00557363 -0.0207902 -0.019602 

-0.0041755 0.0116223 -0.0141329 
0.024693 -0.0100684 -0.0430182 
0.0133962 0.0281417 0.0790709 

-0.525316 -0.484637 2.21796 
-0.0733224 -0.256644 0.697825 
0.0395779 0.0126285 0.0846283 

-0.0130879 -0.0183022 0.172393 
-0.0449597 0.000674098 -0.0272912 
7.64105e-05 -0.00161921 0.0160737 

0.0196526 0.075539 0.0479475 
-0.0620207 0.0429211 0.0631113 
0.000971979 0.0100434 -0.0448109 

-0.00753945 0.0189045 -1.4382 
0.00137556 0.00541611 -0.435404 
-0.000234678 -0.00258645 0.317208 

0.00633398 0.0175891 -0.0267943 
0.00450888 -0.0038922 -0.00875891 
0.011098 0.0121123 0.00803623 

-0.0245886 0.0452828 -0.0046563 
-0.017105 0.0127719 -0.037021 
0.00224345 -0.00965667 -0.0180389 

-0.0568454 -0.0520373 -0.334304 
0.077852 0.0343766 0.340316 
-0.000444704 0.00424252 -0.222721 

-0.00571846 0.00251334 0.109667 
0.014425 0.0218589 -0.171844 
-0.000512466 -0.000760532 0.00890707 

-0.00539521 -0.00747485 0.00517799 
0.00550009 0.000277724 0.00306538 
0.000811945 -0.00132282 0.00190203 

-0.00271102 0.00221028 0.000456136 
0.00657164 -0.0057584 -0.00356271 
-0.00240844 0.0106511 0.0207483 

-0.0118304 0.00923035 -0.193141 
-0.00983468 0.00192843 -0.0769284 
-0.000504175 -0.000881559 0.141732 

0.0162427 -0.266502 0.258601 
0.060032 0.0214478 0.394396 
0.00738731 0.0229128 0.094788 

-0.0607635 -0.196631 -0.352639 
0.293225 0.10195 -0.268064 
-0.00681198 -0.0014277 0.0647004 

-0.023729 -0.000615118 -0.0544073 
0.0150572 0.0383645 0.365161 
0.0170779 0.0431225 -0.217523 

-0.00200633 -0.0145796 -0.0705002 
0.00328306 0.00383 0.022832 
-8.95648e-05 9.03792e-05 0.0129026 

-0.11643 0.381647 -11.8088 
0.234739 0.200347 -2.93421 
0.00861819 -0.00732062 1.43458 

-0.0507459 0.000199853 0.574217 
-0.0402218 0.0162794 -0.161817 
-0.00524755 0.00511612 0.165533 

-0.235044 0.341817 -0.433157 
0.143134 0.114304 0.634953 
0.00100197 0.00311492 0.00122152 

-0.0525561 0.0668785 -0.0171038 
-0.0154798 0.00685612 -0.0129844 
-0.0216444 -0.0307755 0.0345475 

-0.789116 -0.457086 2.98414 
0.368609 0.277609 -1.82811 
0.00196516 -0.0128579 -0.0796501 

-0.16053 0.110098 -0.217418 
0.0607128 0.048756 -0.404668 
0.000689953 -0.00158972 0.137224 

-0.00376764 -0.0454268 0.116972 
0.0352996 0.000317913 -0.0201734 
-0.000267165 0.000124897 0.0209036 

-0.0133428 0.011897 -0.0019284 
0.00323488 -0.000649492 0.00145562 
-0.000138061 0.000723022 0.0209053 

0.0364294 -0.159289 -0.0879822 
0.211243 0.0308289 0.106069 
0.00280718 0.00033412 -0.0432013 

0.00156604 -0.0116282 0.167825 
0.0204251 -0.0087786 -0.302183 
-0.000256207 0.000356345 -0.00743256 

-0.00396469 0.00256895 0.0267646 
-0.0059346 0.00216774 0.022187 
-6.60636e-05 -0.000153208 0.00966555 

-0.00712881 0.0027104 0.000550709 
-0.00109943 0.00326067 0.00192382 
-0.000295048 0.000136713 0.00492617 

-0.289912 0.371926 0.309771 
0.0348682 0.197417 -0.00326952 
-0.000778055 -0.0261138 0.125752 

-0.28112 -1.04728 1.09675 
-0.0194889 0.230372 0.508359 
0.0398426 -0.00508875 0.173316 

-0.0086585 -0.0110467 0.210002 
0.00930985 0.00462946 0.202736 
-0.000747001 -0.00131317 0.032646 

-0.0787126 -0.0538451 0.0914437 
-0.136766 0.0649534 0.0456945 
-0.00298401 -0.0032291 0.0411943 

-0.00439447 0.0158114 8.13435e-05 
-0.0315933 0.00797122 0.0211088 
-0.00103626 0.00152244 -0.00416883 

-0.0307815 -0.15173 -0.815176 
-0.948962 -0.0716977 -1.55106 
-0.000323412 0.00427956 -0.0308814 

0.0887215 -0.393263 0.036111 
0.441239 0.0962818 0.0337969 
-0.00230725 -0.000524703 0.0198967 

0.0103399 0.00966691 0.000818288 
0.00230138 -0.0105497 0.00368562 
-0.00223053 -0.000878079 0.00440672 

0.00504618 0.00126069 -0.000772035 
-0.00543441 -0.0076315 0.00398429 
0.00075549 0.00161338 0.00258215 

-0.00492775 0.0254164 0.0294961 
-0.107671 -0.00105206 0.215541 
0.0407794 -0.0057051 0.121362 

-0.185214 -0.237037 0.737395 
0.29385 0.283707 -0.308531 
0.0226787 -0.0109237 0.0946517 

-0.0140149 -0.00973549 -3.36284 
0.00247866 0.0055571 -0.38717 
0.000115271 0.000620143 0.0880869 

-0.00884608 0.00682359 0.246402 
-0.0125374 0.0110323 -0.0380844 
0.000277212 -0.000279194 -0.00945539 

0.0785672 -0.257467 -0.845698 
0.190247 0.0397939 0.60801 
0.000299952 0.0399318 0.0751639 

-0.0704261 -0.00564428 -0.481898 
-0.0692704 0.078557 -0.0470007 
0.00385373 -0.000233648 -0.0519216 

0.00583781 -0.212928 0.0585775 
0.282307 0.0563125 0.0259598 
-0.00176989 -0.00143504 -0.00511578 

-0.0110976 -0.0156496 0.0145787 
-0.00365266 0.0130523 -0.157376 
0.0036766 -0.000296277 0.0165751 

-0.191382 -0.3063 1.05453 
0.123178 0.209928 -0.494218 
-0.0350731 0.00376093 0.169004 

0.0232004 -0.151565 -0.0461197 
0.131631 -0.0114921 -0.0712372 
0.123603 0.0170995 0.333921 

-0.175529 -0.285934 0.399889 
0.0560292 0.0505684 0.596725 
-0.00874242 -0.00459661 0.0458277 

-0.0400047 -0.0493237 0.0973241 
0.0414116 -0.0111605 0.0433296 
0.000305374 0.00252211 0.0560426 

-0.200815 -0.0484725 0.280963 
0.0399765 0.156929 -0.995864 
-0.00582953 -0.00201418 0.0611963 

-0.00154375 -0.016031 0.309034 
0.00745414 0.0126575 1.10471 
-0.00157703 -0.00379101 -0.000554799 

-0.802483 0.172139 0.392613 
0.0480354 0.418795 0.404219 
-0.00364441 0.000124122 0.0525121 

-0.0806306 -0.0223887 0.291227 
0.0984912 0.0558969 1.46263 
-0.000902135 0.00165259 0.0204744 

-0.171602 0.0800021 -0.0177123 
-0.0679713 0.132142 0.109919 
0.00680313 -0.0141159 0.204659 

-0.00257326 0.0139001 -0.000204826 
0.00440904 0.000790266 -0.0278736 
-0.000726312 0.00255696 -0.00259754 

-0.0134877 -0.0160249 -0.278389 
0.00532058 -0.0238668 -0.535419 
-0.00314682 0.000951447 0.0891268 

-0.00892962 -0.0399461 0.111782 
0.0900153 0.0347081 -0.0208549 
0.000343177 0.000822781 -0.0165351 

-0.104257 -0.0217987 0.167225 
0.047869 0.0754985 -0.326017 
0.00114553 0.00723897 0.0593094 

0.00438046 -0.0124721 -0.00151256 
-0.00755006 -0.0216841 -0.656932 
0.000403518 -0.00185843 -0.0206968 

-0.0392534 -0.0208094 -0.0920804 
-0.00675471 0.025126 0.065334 
0.000375942 -0.000868808 0.0173681 

0.00654784 0.110733 0.0405004 
-0.129537 0.0144995 -0.0422801 
0.00942622 -0.011714 0.0512425 

-0.0832829 -0.145312 0.0188657 
0.259674 0.00687998 -0.10227 
0.00324196 0.0139715 0.134193 

-0.00562102 0.00163736 0.00874404 
0.000775423 -0.000949301 -0.00465701 
-0.000665916 -0.000648237 0.0189535 

-0.0499856 0.0130172 -0.120736 
-0.0743578 0.0696121 -0.529449 
0.0149344 -0.0034633 0.0987641 

-0.00269003 -0.0177593 0.0020299 
-0.0103417 0.000596867 -0.0377988 
0.00159416 0.000705344 -0.00262509 

-0.0182266 0.0185339 0.192722 
-0.0234151 0.0163619 2.91042 
-0.000890401 -0.00481471 0.209357 

0.0460076 0.00848064 -0.317364 
-0.0147724 -0.0687932 -0.908977 
-0.0035153 -0.000234566 -0.0278031 

-0.0589861 0.038054 0.287646 
-0.0156785 0.0259743 0.310133 
-0.000494624 0.00686127 0.0573921 

0.00373916 -0.231319 -44.7372 
-0.00453919 0.0805206 16.6083 
0.000412082 -0.00350252 -0.181671 

-0.0141245 0.00872244 0.0505382 
-0.00193277 0.00470913 0.00766763 
0.000586933 -0.000534671 0.00295426 

-0.371688 -0.179713 -0.227614 
-0.257043 0.215691 -0.618155 
-0.0667778 0.0236037 -0.16617 

-0.0685088 -0.268671 0.582789 
-0.0193114 0.0480153 1.15824 
0.0224781 -0.0108882 -0.356945 

0.0113371 0.0844728 0.502193 
0.048085 0.0171037 1.88172 
-0.000612182 0.0126547 -0.104143 

-0.0413099 0.0541961 -0.00194513 
-0.101793 -0.0115586 -0.525695 
-0.000965381 0.0012298 0.0916128 

0.053228 -0.00422174 -0.044753 
-0.0526272 -0.00724811 -0.0435505 
0.025839 0.00103034 -0.000125686 

-0.0441342 0.0120495 4.33438 
0.0975079 0.0448942 7.25543 
-0.0028558 -2.53091e-05 0.0287133 

-0.00164681 -0.0108596 0.0359139 
-0.0106237 -0.00967628 0.00367854 
0.00157124 0.00282443 -0.0056591 

-0.133299 0.0481332 -0.722537 
-0.0761197 0.139432 0.405421 
0.0169292 0.00551034 0.0542028 

-0.0122972 0.127952 -1.98468 
-0.0990419 -0.0821936 -14.2504 
-0.000957905 0.00867288 -0.0388269 

-0.496848 -0.843037 10.3159 
0.152328 0.328018 -3.56671 
-0.0123592 -0.0163923 0.0422984 

-0.396677 -0.14889 2.81715 
-0.140955 0.154978 -1.0373 
0.00669303 -0.0138642 -0.32007 

0.00518267 0.00150334 -0.00538564 
-0.00229394 0.000202814 -0.00273655 
0.000778671 -0.00195183 -0.0146177 

-0.00159385 0.0512726 0.029793 
0.0375616 0.00635965 0.0467976 
-0.00775539 -0.0720062 0.074034 

-0.0122001 0.00336125 -0.0175023 
0.0141775 -0.00173682 0.109218 
-0.000608374 0.000649015 -0.00489522 

-0.0421707 -0.0472016 0.104761 
0.0162538 -0.000492734 0.435177 
0.037909 -0.0109121 0.041352 

-0.0188054 0.005329 -0.149183 
-0.00837205 0.0153763 -0.18736 
0.00300125 2.15177e-05 0.0660467 

-0.0265925 -0.0432303 0.0354204 
0.0620781 0.0265191 -0.0381056 
0.00469699 0.0559276 -0.359765 

-0.00221338 -0.0160439 -0.142205 
0.0196228 0.0158766 -0.00461381 
0.000191914 -0.00191125 0.0122375 

0.0204856 -0.0891428 0.0819099 
0.186977 -0.0156077 0.0214576 
-0.0433208 0.0413147 -0.227332 

0.0365248 0.175075 -0.0274184 
-0.183738 0.0151902 0.00536156 
0.00102983 -0.00443446 -0.0403895 

-0.185833 -0.15919 -0.0684909 
-0.284277 0.165127 -0.759531 
-0.0122457 0.0984911 0.811545 

-0.00290126 -0.0261392 0.0175637 
0.0977668 0.000495041 0.0979285 
-0.0133226 -0.0229283 -0.0778595 

-0.0117698 -0.0302156 0.000488511 
0.00501396 -0.013179 -0.0144944 
-0.00108849 -0.000500279 0.0382573 

-0.070765 -0.100885 -2.2408 
0.0911085 -0.00742688 -2.44067 
0.0537863 -0.0276015 1.10346 

-0.0192356 -0.0232138 -0.00288221 
0.0105315 -0.00410613 0.00897243 
0.000893907 -0.0139598 0.033912 

-0.00112747 0.00157508 -0.000961592 
-0.00712431 0.00679432 0.0473163 
9.96562e-05 0.00054337 0.000184526 

-0.36161 -0.520601 1.88403 
-0.0522439 0.334209 -1.87181 
0.0488664 -0.0320837 0.618126 

-0.301774 -0.439597 -0.675953 
0.155821 0.303401 0.114086 
-0.00910592 0.00466751 -0.0193165 

-0.00447807 -0.00119297 -0.00402474 
0.00201723 0.00172457 -0.00542612 
-0.000204003 -0.000280951 0.0105912 

-0.159565 -0.0262966 0.226049 
-0.0104504 0.175452 -0.261499 
-0.0124664 0.0168297 0.00357059 

-0.0118271 -0.00738384 -0.110586 
0.009933 0.00134194 0.0599866 
-0.00125539 0.000218557 -0.00744275 

-0.0242914 -0.0173831 0.0139573 
-0.0056098 0.0682451 -0.00984815 
0.00503481 0.0101758 0.127605 

-0.0349978 0.0303162 0.0403274 
-0.0200402 0.0145921 -0.0400346 
0.00266704 -0.00190203 0.0434478 

-0.0217112 -0.0477496 -0.152747 
-0.00069477 0.02012 0.042452 
2.90992e-05 0.000372272 0.0164178 

-0.169014 -0.775412 -1.39403 
0.325769 0.640032 1.25759 
0.00687553 0.035253 0.0754312 

-0.00197831 -0.0149498 -0.110388 
0.0824967 0.00856209 -0.249948 
0.0019318 -0.00397801 0.033735 

-0.0398155 -0.00707324 0.06786 
0.0481975 0.0399747 0.358868 
0.000430815 0.00956379 0.121243 

0.00136822 0.0201265 -0.277229 
-0.064187 0.00528187 0.10881 
0.000224377 0.00673896 -0.0152819 

-0.211777 -0.275373 -0.550534 
-0.444638 0.294825 -3.95136 
-0.00712684 -0.00928576 -0.0960428 

0.0238244 0.000175502 -0.050039 
0.0432689 -0.0467478 0.0562836 
0.0135251 -0.00731225 0.0157603 

-0.169936 0.331371 1.14167 
-0.258595 0.129959 1.00902 
-0.00432999 0.073714 0.905066 

-0.0664939 -0.0137049 -0.0914559 
-0.028982 0.00138555 -0.125807 
0.00544639 0.00763223 0.139172 

0.059163 -0.5872 0.0992054 
0.550816 0.101174 0.572469 
-0.00381603 -0.00706184 0.0443178 

-0.341 0.363946 -0.0425585 
-0.168753 0.298637 -0.228729 
-0.0364182 0.0560469 0.405106 

-0.00770062 -0.156276 0.135946 
0.162816 0.0174285 -0.101291 
-0.0356658 0.00564095 0.37551 

0.0107062 -0.141413 0.125928 
0.15003 0.0152852 -0.10993 
-0.0277934 -0.0292391 0.431814 

-0.00696299 -0.00252615 -0.011611 
-0.0043357 -0.000877402 -0.0439237 