# vtk DataFile Version 3.0
Output file generated by Yade's KinematicLocalisationAnalyser
ASCII
DATASET UNSTRUCTURED_GRID

POINTS 13483 float
398.319 65.6269 -0.430381
491.544 95.8212 0.445192
100.001 6.10431 -0.453647
513.991 12.7296 0.425688
355.897 8.84514 -0.390472
242.805 64.8535 0.478971
132.681 7.09817 0.486324
380.436 34.3159 0.156153
349.322 26.4863 0.162643
469.393 16.9619 0.614779
171.714 12.2365 -0.118502
211.629 7.73508 0.377046
421.325 56.8136 -0.177825
421.152 16.1607 -0.130356
115.56 19.9092 0.528033
182.722 44.873 0.412096
178.564 14.3659 -0.307977
225.763 18.8393 0.509334
256.088 48.7826 0.435763
375.807 8.39681 0.57731
313.45 81.1997 -0.102811
393.606 85.3355 -0.25841
504.598 64.0558 -0.498409
450.059 83.35 0.511616
325.38 18.4114 0.374104
189.171 63.3287 -0.124045
330.226 35.8911 -0.512835
391.84 46.774 -0.270111
38.4412 18.9085 -0.625762
457.722 46.6983 -0.388722
343.215 4.82126 0.298708
14.5408 26.3441 -0.291326
498.642 82.1662 0.261378
354.377 2.48139 0.509027
70.8921 47.4185 -0.137458
345.003 43.0057 0.415655
379.991 18.7871 -0.624264
261.675 29.0608 -0.247479
352.58 46.0421 0.33711
264.071 56.2187 0.483697
198.663 14.9093 -0.426902
305.841 57.1145 0.0926283
446.862 31.6562 -0.137028
159.816 6.57469 0.413747
45.6363 8.32402 -0.0924406
57.1325 9.46881 0.273208
446.875 12.2448 -0.604557
20.7989 13.2608 0.30545
414.162 95.4347 -0.260466
438.829 51.163 0.366572
144.395 43.6116 -0.293582
481.412 86.0324 -0.119263
31.9878 34.4677 -0.115067
384.11 2.58682 0.362036
120.607 7.33154 -0.644829
401.133 77.3713 0.389502
332.495 43.3952 0.118817
150.517 0.983626 -0.230217
27.4934 2.60195 0.31116
266.751 24.0041 0.266949
425.594 101.195 -0.137264
325.176 43.7104 0.204613
289.84 0.890351 0.214565
455.116 7.74976 0.344222
22.4762 47.0481 0.261222
205.006 53.9945 -0.32034
470.891 9.4134 0.560973
429.611 92.8281 0.349998
295.217 15.7088 -0.649986
390.002 14.8133 -0.400316
474.777 71.1423 0.414395
110.404 7.81837 -0.261857
345.454 28.1422 -0.153216
338.524 13.9215 -0.436933
233.583 25.558 -0.510557
18.0681 15.2431 -0.304148
493.818 70.5821 0.309333
247.464 52.8074 0.315762
440.627 47.4141 0.334684
448.001 21.4287 0.319342
499.947 34.1228 -0.343156
326.42 47.6529 -0.216269
82.9598 45.3788 0.293505
445.687 93.412 0.216207
415.427 70.9696 -0.13079
508.986 68.11 0.142968
514.514 0.809191 -0.677399
228.306 42.7088 0.438849
413.552 6.73975 -0.207753
21.6055 6.98148 0.664563
111.837 42.3483 -0.167829
368.072 16.0248 0.332013
489.393 56.5492 -0.499401
162.107 35.0697 0.24375
40.0428 43.6807 -0.297438
353.272 1.12945 0.145781
194.462 8.8967 -0.505923
466.1 93.8935 -0.262329
486.311 65.9379 0.268409
263.821 39.4531 0.283638
140.649 34.9486 -0.455839
358.464 69.7295 -0.470542
277.928 39.669 -0.524897
305.749 66.1064 0.0991962
278.487 21.457 0.4535
362.902 31.4136 0.0959598
511.784 27.2094 0.283958
72.1256 42.179 -0.435067
260.954 7.07011 -0.4495
375.521 33.8435 -0.485877
265.601 71.8644 0.438981
21.5817 26.7066 -0.557994
26.1106 5.8499 0.515828
378.54 65.4485 0.439155
354.282 25.9085 -0.191776
22.5906 40.519 0.432633
83.7039 35.1127 -0.226314
251.992 18.8675 -0.411543
403.272 35.0067 -0.137125
329.263 63.1804 0.298329
484.322 7.35761 -0.605858
477.207 8.12909 -0.328363
293.295 73.2969 0.0981155
418.524 42.7798 -0.129593
196.88 17.1662 0.59203
258.067 5.4537 0.650489
93.2754 39.1687 -0.311096
97.9249 26.6395 0.268163
353.795 68.4072 0.0705602
239.589 19.4482 0.678067
445.038 60.0279 -0.0997235
433.856 96.0441 0.107317
341.256 20.7613 -0.467678
478.888 38.5707 0.332878
301.768 42.8517 0.293653
219.896 35.7476 0.331603
435.114 78.5571 -0.276981
221.941 44.4227 0.374558
389.419 38.4963 -0.232992
249.378 48.3395 -0.201099
363.285 13.4005 0.627385
278.205 60.783 0.0898615
306.889 23.9359 0.179452
247.189 72.5672 -0.435527
156.761 36.3447 0.129421
492.8 90.6713 -0.144818
509.413 29.3253 -0.289195
5.80276 13.0473 0.544149
308.871 30.3418 -0.482181
34.3455 27.7414 -0.0860738
284.621 65.3081 -0.453183
289.386 50.7765 -0.264268
62.9007 13.4369 -0.590862
45.4361 44.0598 0.425826
187.494 15.3412 0.510654
402.188 47.8624 0.514544
385.126 51.9202 -0.478222
62.0057 25.1468 -0.516659
452.633 80.1523 0.42727
506.577 4.19199 -0.571755
427.278 84.1242 0.34831
451.042 1.71417 0.642064
366.454 57.3881 0.400241
394.93 86.3264 0.446935
371.158 19.715 -0.55711
512.235 11.6616 0.291614
187.613 30.258 0.121894
107.138 39.9726 -0.220491
205.341 7.97563 0.6414
79.2281 5.78056 -0.291269
53.768 11.4261 0.303163
220.935 54.2985 -0.338484
15.3487 28.5509 -0.381384
371.79 44.7607 -0.408493
415.947 90.7274 -0.195914
331.284 25.1093 -0.422024
512.54 92.4668 0.35042
291.248 11.5085 0.202665
302.472 48.7886 -0.486338
390.64 4.03422 -0.436341
20.289 26.3991 0.418591
388.121 22.6287 0.40822
397.661 7.21525 0.433242
171.086 15.1451 0.548496
303.906 23.4533 -0.280697
244.969 6.04867 0.494442
287.216 41.6214 -0.450702
464.599 80.0053 0.111691
159.551 32.9815 -0.46867
494.988 24.3254 -0.496746
468.152 79.1851 0.313821
282.32 31.8462 -0.182146
469.906 2.47906 -0.48632
400.966 41.8587 -0.562618
489.806 17.8291 -0.60116
314.015 61.3889 -0.324386
358.741 13.9564 0.535763
320.002 64.7926 -0.289802
319.773 11.4891 -0.136183
430.745 85.8773 -0.267165
431.311 81.6923 -0.307655
161.674 48.551 -0.349947
497.77 34.1472 -0.165287
396.766 87.7289 0.241726
9.23745 19.3774 0.256381
293.943 51.988 0.40406
155.611 29.3353 -0.457873
83.5882 47.1675 -0.212288
486.897 55.0892 -0.430825
422.102 85.2249 -0.23905
249.032 30.7482 0.421419
387.851 9.89918 0.415549
74.1579 49.5517 0.169979
200.538 34.8512 -0.502306
371.728 50.6095 0.340773
350.792 19.6476 -0.627316
217.925 0.865204 -0.440556
367.223 72.9021 -0.396572
346.593 66.7749 -0.380982
339.474 69.8978 0.41388
362.775 2.47829 -0.651592
456.709 20.6782 0.478462
152.236 16.8724 -0.2015
354.124 79.2557 0.431091
377.385 73.5134 0.123381
62.0133 0.899092 0.365034
209.809 5.47617 0.220147
509.04 32.8004 0.215716
500.156 36.1488 -0.467569
514.041 32.4873 -0.653707
238.067 8.9727 -0.252374
465.587 44.516 -0.512326
318.849 84.1145 -0.30908
318.852 0.836238 0.639802
421.418 72.1736 -0.489828
23.7739 34.2341 0.331093
248.602 55.7693 -0.196218
211.082 4.0274 0.568952
500.302 78.1057 0.182421
455.644 73.8582 0.244011
228.375 19.4529 0.151431
428.598 69.5333 -0.0911999
400.244 5.52008 -0.380152
394.719 10.7492 0.564507
82.2385 19.9817 0.497869
238.361 1.03501 -0.367866
267.765 2.89178 0.595611
12.2177 9.23043 0.648776
4.81297 35.2317 0.238004
137.323 20.0474 0.426402
62.4865 47.159 0.236523
57.1385 35.2723 0.33332
302.867 20.8065 -0.606421
278.931 69.2112 -0.560061
478.495 90.6859 -0.114379
17.5586 5.37999 -0.295275
59.2161 6.87531 0.168492
407.257 55.2484 -0.169543
231.358 0.931636 0.597183
268.156 34.2364 -0.0696985
196.73 4.92242 0.467135
425.863 38.7379 0.193756
322.696 10.8329 -0.530853
487.294 29.6981 -0.465127
418.128 45.3115 -0.402551
440.282 45.4023 0.0871703
300.985 54.8211 0.556118
87.6152 57.3637 -0.305235
356.752 73.5069 0.0711653
488.212 12.8232 0.405846
194.749 42.5282 0.225525
28.589 22.1141 0.168672
263.478 17.0865 0.660414
95.1629 55.1946 0.317874
217.781 61.6555 0.190644
304.674 5.71026 -0.256694
490.088 60.4607 0.455065
445 4.75095 0.622775
260.915 5.76456 0.7032
237.052 38.8043 0.186975
321.581 61.7461 -0.232607
69.0492 9.83217 -0.593314
168.16 52.0893 -0.444936
485.535 70.9933 0.373192
348.778 80.6521 -0.0650128
168.004 46.6374 -0.275999
134.852 51.297 0.481519
515.491 59.8892 0.432363
511.085 28.6208 -0.585309
406.823 6.31072 -0.612151
157.898 32.2113 0.0965895
368.335 56.796 0.109953
369.1 59.5546 0.280457
296.6 9.75714 -0.246019
348.56 1.0313 0.536934
479.544 95.8051 -0.485614
78.7634 34.9002 -0.223322
429.581 38.2914 -0.510932
218.468 27.7511 -0.451746
8.54015 2.51527 0.491678
106.816 43.2704 0.21755
55.9483 26.592 0.503225
441.97 70.4044 0.308802
506.925 85.5098 -0.161889
156.274 38.4961 -0.178196
508.842 35.313 -0.380373
40.5919 46.2313 0.243755
81.9049 34.3471 0.1674
428.522 17.5395 0.474447
297.659 24.3272 -0.564512
378.139 18.5559 -0.220879
195.359 40.6476 -0.194325
420.129 4.6357 -0.634195
514.037 27.4814 0.466851
27.4785 36.0437 -0.263993
215.115 17.8567 -0.21489
185.95 16.1838 0.404926
1.07304 40.5007 -0.165265
188.609 15.8314 -0.436652
176.248 12.7435 -0.274693
182.574 30.0731 -0.330957
113.065 32.6057 -0.116479
367.81 38.9584 -0.294722
142.766 15.4613 0.438455
496.204 82.9145 0.261236
150.642 5.63425 0.642906
41.7723 49.2064 -0.357161
458.294 87.6952 -0.463795
224.705 47.5028 -0.381297
443.982 52.5012 0.471551
495.404 62.607 -0.54574
236.49 10.22 0.215056
465.521 58.4132 -0.388064
259.083 2.35467 0.637428
303.468 36.5862 0.428993
446.067 46.6574 0.497024
90.6989 13.1141 -0.572677
350.603 3.85184 -0.545664
475.774 35.0313 -0.239412
74.3432 8.73955 0.258484
225.683 25.4541 0.21481
303.434 18.9055 -0.459893
511.891 15.543 0.645467
295.31 0.797959 -0.512212
150.684 54.3862 0.306139
490.707 10.1999 -0.525452
108.959 40.9956 0.185491
211.437 47.747 -0.407297
293.089 48.594 0.198775
389.865 41.5707 0.515955
286.059 28.349 -0.621066
322.359 35.546 -0.488949
491.43 94.2801 0.359636
39.9599 12.9996 -0.169858
240.157 54.1947 0.315986
282.922 53.6864 -0.400071
296.056 27.164 -0.283493
337.584 58.0394 -0.412446
472.855 95.9576 0.227625
436.398 85.1958 -0.357181
188.109 48.2942 -0.415821
10.466 36.6758 0.162836
429.828 80.3581 0.140688
365.67 81.2328 0.408798
191.474 53.7265 0.098229
436.545 76.9872 -0.132548
130.164 9.6268 0.199308
271.479 43.2539 0.302755
321.852 63.761 -0.129936
297.727 26.1987 -0.284574
489.92 99.7994 0.290772
306.104 8.12491 0.59668
44.5506 33.8603 -0.298746
328.864 53.8877 0.388901
304.515 53.7011 0.370999
495.666 75.4759 0.23642
461.459 49.9044 0.256134
362.079 42.1892 -0.141068
488.82 84.4555 -0.515899
231.845 3.58181 -0.51256
285.127 63.1529 0.502804
25.2878 42.8188 0.338161
471.867 63.4917 0.176786
413.248 25.7356 -0.594909
332.031 0.77236 -0.573016
107.604 4.75646 0.388153
312.461 63.3956 -0.11232
10.8882 0.874884 -0.387187
509.487 16.6654 0.118663
281.348 77.1113 -0.395142
[...]
POINT_DATA 13483
TENSORS Strain_matrix float
0.000186912 0.171849 0.721299 
-0.221921 0.0715128 -1.76614 
0.00250056 0.00402174 0.0920395 

0.00614618 -0.00400893 -1.14544 
0.0333939 0.0112164 0.0264932 
-0.00292722 -0.00139717 -0.0490402 

-0.00526529 -0.0124928 0.688426 
0.0126453 0.0431854 -0.957867 
0.00850294 -0.0109454 0.0485016 

-0.00557702 -0.0683053 0.0157573 
0.113679 -0.00924628 0.00580704 
0.0150008 -0.00450499 0.0333294 

-0.00202102 1.03374e-05 -0.00688663 
0.00307078 0.000250941 -0.00509817 
0.000389226 -0.000246384 0.00485384 

-0.0721351 0.086252 -5.50997 
-0.0606876 -0.0279507 -3.9141 
-0.0125163 -0.00344863 0.634154 

-0.000907271 0.0445198 0.0302925 
-0.0780179 -0.000665105 0.249109 
0.00538287 0.00657308 0.155282 

-0.0166168 -6.75678e-05 -0.0338415 
-0.0018201 -0.00104428 0.00432593 
-0.00255491 -0.0016773 0.020566 

0.00159011 -0.0128429 0.0347131 
-0.0195627 0.0134103 0.00608401 
0.00315063 0.00035742 -0.0083625 

-0.00395768 0.00949617 0.0042011 
-0.00638595 0.016332 -0.135019 
0.000414807 0.000496329 -0.0094524 

-0.159932 0.00307725 -0.920994 
0.0732171 0.0719799 0.803001 
-0.00504051 -0.00295888 0.084549 

0.000959044 -0.029422 0.145006 
0.183749 0.00738173 -0.200999 
-0.0207575 -0.00922075 0.0305119 

-0.0568898 -0.0837606 -0.0737166 
0.0339175 0.0981564 0.391396 
-0.0109319 0.0193369 0.0954352 

-0.00784421 0.0112473 0.00914892 
0.00618547 -0.00658576 0.00140923 
0.000392146 -0.00105766 0.0143671 

-0.0124999 0.0180182 0.753112 
0.0138336 0.0121394 0.74085 
-0.00102748 -0.00231341 0.0170277 

-0.337471 -0.402308 0.297507 
0.240019 0.303939 -0.19619 
0.0129102 0.0286136 0.877171 

-0.0253236 0.163334 -0.21059 
-0.165685 0.0289949 0.152433 
-0.0410134 0.0307331 0.114459 

-0.217209 0.363257 0.762275 
-0.536995 0.296828 0.887391 
-0.0483066 -0.0212572 -0.0327609 

-0.180431 0.149768 -0.344024 
0.0976102 0.0947511 -0.812677 
0.0111827 -0.00603091 -0.0922333 

0.00208804 -0.0170612 0.0903213 
0.00781789 0.00073115 -0.0838444 
0.000650671 -0.00143955 0.0122931 

0.0387106 0.0825294 0.160293 
-0.135645 -0.0100619 -0.0284733 
0.0288873 -0.0126175 0.0900588 

0.00444551 0.0346945 0.0327714 
-0.0338726 -0.00528456 0.0325993 
0.000335661 -0.000798718 0.00982619 

0.021861 0.0210951 -0.0711693 
-0.0199545 -0.00623706 -0.00788184 
0.00046288 -0.000121202 -0.0174669 

-0.00653458 0.0310784 -0.0510052 
-0.0145756 0.00401519 0.505219 
0.000678616 -0.000225658 -0.0436387 

-0.0221456 0.153018 0.0122851 
-0.148426 0.0112027 -0.0199585 
0.00895177 0.0011947 0.0540062 

0.362923 -0.998667 -1.26845 
0.384859 1.30416 -4.46211 
0.0581568 -0.0647031 1.04733 

0.060494 -0.0957313 0.760496 
-0.109981 -0.0440083 0.603384 
0.00267772 0.000302088 0.19088 

-0.0592793 -0.0896994 -0.0387269 
0.103552 0.0407376 -0.342649 
0.00921967 0.00517525 0.0526708 

-0.0423918 0.0978584 0.205122 
-0.00534127 0.0686014 -2.11597 
0.000457965 0.000940026 0.0938263 

0.070929 -0.0437831 0.245476 
-0.000778565 -0.0374077 0.396666 
0.00774092 -0.0460465 0.0201094 

-0.00722749 -0.00939576 -0.00528725 
0.012935 0.00413744 -0.00891392 
-0.000659824 0.00114941 0.0051022 

-0.0774763 0.0899184 -0.194444 
-0.0160788 0.0921562 -0.194647 
-0.00130946 0.00381767 -0.00879217 

0.000287927 0.0277919 -0.177446 
-0.0109782 -0.0294001 0.342101 
1.62787e-06 0.00134981 0.0604835 

-0.0123238 -0.00606828 0.024866 
0.0107655 0.00758734 0.0134776 
-0.000656528 -0.00100644 -0.00122721 

-0.13635 -0.0565594 0.663475 
0.087971 0.184452 -0.836543 
-0.0699063 0.0339004 0.142544 

-0.0339649 0.0133925 0.185499 
0.00489346 0.0155877 0.0740765 
0.00179647 0.00188993 -0.0159265 

-0.0656798 -0.080898 0.164692 
0.00679515 0.0460806 0.342938 
-0.0236982 0.00554915 0.0235476 

-0.134294 -0.163752 -0.229012 
0.0179288 -0.0288667 0.0232795 
-0.000115413 0.00441607 0.0554657 

-0.0382097 0.0245034 0.172341 
0.0287205 0.0117561 0.530802 
-0.000855471 -0.00296398 0.0325975 

-0.0571813 -0.0375362 -5.07486 
0.245594 0.041077 -3.2083 
0.00105044 9.4253e-05 0.0260223 

-0.0349214 -0.0822481 0.535071 
0.10039 -0.0179828 0.127883 
0.00782887 -0.0437319 0.242624 

-0.133052 0.00643513 -0.279047 
-0.156456 -0.00121975 -0.789339 
0.0212678 0.00174702 0.0793946 

0.0243485 -0.0842172 -0.00763542 
0.129408 0.012001 -0.0148386 
-0.00584073 -0.000930942 -0.0100762 

-0.123486 0.0703079 0.577403 
-0.193096 0.125728 1.22841 
-0.0210737 0.087186 -0.0926704 

-0.0235233 0.0510239 -0.0263469 
-0.0732028 0.044652 -0.0758051 
-0.0259072 -0.0312748 0.11396 

0.0113535 0.0120724 0.0387901 
-0.0285719 -0.0159166 -0.0340817 
-0.00577438 -0.0185117 0.0351039 

-0.0198786 0.0113485 0.00302008 
0.0582199 0.0251355 0.00936414 
-0.0143662 0.0155609 0.0276293 

0.00391834 0.0263182 -0.0391826 
-0.0182865 0.00556488 0.0598604 
0.0067573 -0.00169223 -0.000897231 

0.0144758 -0.0954584 -0.0331621 
0.115542 0.0941729 -0.137805 
-0.0376561 0.0118021 0.134606 

-0.0292877 -0.0858751 -0.0485702 
0.0927649 0.0342395 0.0458464 
0.0457438 0.0182109 -0.0899 

-0.374047 0.235209 0.82268 
-0.0782159 0.477088 1.94361 
-0.0276392 -0.0284904 0.324709 

0.0166403 0.0154645 -0.00218838 
-0.0125746 -0.0212103 0.0161955 
-0.000913227 0.00036826 -0.00258126 

0.0607247 0.173237 0.222554 
0.257052 -0.103706 0.58966 
0.0378036 0.0472529 0.238783 

-0.0265643 0.00190438 -0.00475246 
0.00400746 0.00828207 -0.000268478 
0.00422494 -0.00342048 0.0157309 

-0.0338219 -0.0245471 1.53864 
-0.000770158 0.0302232 0.567375 
-0.000869659 -0.000886736 0.249211 

-0.0354543 0.0833721 -0.0874849 
-0.0504345 -0.00778587 -0.901912 
0.00239159 -0.00515185 0.0780278 

0.0495529 -0.00263388 -0.122149 
-0.0289196 -0.0371647 0.171564 
0.0134351 0.00126869 -0.0103504 

-0.145569 0.614528 1.54952 
0.0314503 0.458866 -0.35378 
-0.0199873 0.227327 0.218334 

-0.0280463 0.0103602 0.0240341 
0.0695304 -0.025426 -0.0270738 
-0.00724508 0.00353505 0.0981526 

-0.104488 -0.195284 -2.24004 
0.155891 0.074457 1.43651 
-0.000670132 -0.00432942 -0.0685204 

-0.115232 0.292807 -0.209678 
-0.0696598 0.320886 -1.04358 
-0.00453882 0.0184753 0.48374 

-0.0374521 0.102094 0.481918 
-0.287242 0.0128569 -1.20635 
0.00283582 -0.00236821 -0.0091549 

0.122114 0.00301779 -0.210628 
0.0188309 -0.017621 -0.0829939 
0.0654351 0.337312 0.725141 

0.00271327 -0.0353361 -0.0212565 
0.00594084 0.00461979 -0.040437 
0.00166745 0.00581527 -0.0122625 

0.00432484 -0.0393557 0.00422334 
0.0517994 5.89524e-05 -0.00519585 
-0.000747546 0.000427354 -0.0086853 

-0.268145 -0.137134 -0.808048 
0.157341 0.358702 0.315052 
-0.0198681 0.00577902 0.078985 

0.00390103 0.00970381 0.0316447 
-0.0104592 0.00449143 -0.10028 
0.00202025 0.00171189 0.0040459 

-0.0863705 0.0637974 -0.145202 
-0.0604742 0.0303035 0.345162 
0.00244519 0.0103891 0.0366706 

-0.101428 -0.264915 -2.43773 
0.299579 0.13012 -4.65381 
0.00222974 0.00347684 -0.0197581 

-0.260844 -0.217933 0.0556356 
0.187174 0.255285 -0.0852067 
-0.0090105 0.000925356 0.113047 

-0.00108353 0.0188458 -0.0572204 
-0.0150613 -0.0113418 0.0387929 
0.00158925 -0.00182517 0.0151468 

0.019113 -0.0658907 -0.0545197 
0.00787488 0.0111929 0.0340442 
0.00289602 0.000989007 -0.0420777 

-0.0120238 -0.0143643 -0.0461377 
-0.00352442 0.0187097 -0.00971594 
0.00341941 -0.00239114 -0.00713447 

-0.00244709 -0.0202934 -0.0451847 
0.0318388 0.0247582 0.105035 
0.00509217 -0.00107905 0.00870119 

-0.273115 0.385629 0.427265 
-0.70069 0.426173 0.673262 
0.0260785 0.0176426 0.318217 

0.0200066 0.0157579 0.0108802 
-0.0607772 -0.0266156 -0.05619 
-0.0154137 0.0405094 0.102569 

0.00779955 0.0386023 0.00834005 
-0.0270024 0.00845394 0.00685769 
0.00054116 -2.00381e-05 -0.0225894 

-0.563365 0.476528 -0.366721 
-0.99713 0.865534 1.26239 
0.0641764 0.0701182 -0.0864694 

-0.0142645 -0.0841195 -0.00549807 
0.102996 0.0197629 -0.0506207 
-0.00104346 -0.00025417 0.0126021 

-0.0572254 -0.162703 0.0469288 
0.127164 0.0126545 -0.0615038 
0.051407 0.00882362 0.185986 

0.0214614 0.0244087 -0.195948 
-0.00146024 0.00224961 -0.0279734 
-0.00345889 -0.00114202 -0.0456451 

-0.0300575 0.162621 0.0174488 
-0.239267 0.0753479 0.476634 
0.0186527 -0.00801478 0.180727 

0.00497551 -0.168424 -0.252386 
0.299687 0.0267906 0.306094 
-0.0179941 -0.04622 -0.299775 

-0.0247967 0.0636336 -0.0346922 
-0.0289231 0.0122449 -0.0612035 
0.00139397 -0.00148229 0.00792515 

-0.00864361 -0.040359 0.0509663 
0.0729667 -0.00144044 0.0188229 
-0.00154888 -0.00390407 0.00324377 

0.00518824 0.0144947 0.00717808 
-0.0121701 -0.000451903 -0.027494 
-0.001083 -9.09075e-05 -0.013698 

-0.220823 0.370018 1.36418 
0.0785881 0.0536842 0.0770552 
0.00558673 -0.00487252 -0.0310322 

-0.0900482 -0.200684 0.504397 
-0.279835 0.0322376 -0.13561 
-0.00550231 -0.00048639 0.123438 

-0.021708 -0.00885271 -0.00284505 
-0.0168721 0.00611679 -0.00683508 
0.00227804 0.00200315 0.0100019 

-0.0655346 0.0925108 -0.0476791 
-0.105144 0.0481993 3.25956 
-0.00177191 -0.00780656 0.389362 

0.0243115 0.0868552 -0.0927023 
-0.119802 -1.53093e-05 0.0814124 
0.0778156 0.0100226 0.624469 

0.00978939 0.0216137 0.0493288 
-0.0205889 -0.027747 0.00431895 
0.000818031 -0.00731219 0.0247108 

0.0301105 0.0276996 -0.648526 
-0.0170191 -0.00756199 0.358699 
-0.00091829 0.000354116 0.0134989 

0.0619754 -0.362207 -0.34747 
-0.081539 -0.152565 0.615784 
-0.00210965 -0.000453218 -0.0107618 

0.00763357 -0.0599952 0.151267 
0.06612 0.0107291 -0.0150629 
0.000235349 -0.00244882 -0.0331063 

-0.0080858 0.0338334 -0.0235913 
-0.000604026 0.00204898 -0.00288493 
-0.000939094 -0.00833678 -0.0156045 

-0.018686 0.0284484 0.100717 
0.00225692 -0.0226782 0.172327 
0.00485636 -0.00137038 0.0835035 

0.00303695 0.0269884 -0.00798244 
-0.012693 -0.000507633 -0.010593 
-0.0283794 -0.0173042 -0.0896858 

0.0274338 0.0762958 -0.0237225 
-0.0149112 -0.0103505 0.013024 
-0.000283205 0.000500775 -0.0079877 

-0.165573 0.153126 0.0763171 
-0.0116993 0.134999 1.06124 
-0.000625129 -0.00121811 -0.012952 

-0.183531 0.270692 4.53354 
-0.0469988 0.0608631 3.16168 
-0.0128666 -0.0107171 0.070552 

-0.0784932 0.102603 -2.10754 
-0.0621752 -0.0337961 -0.0691354 
0.0064815 -0.0136946 0.0698393 

0.0022654 0.0855427 0.365578 
-0.0363494 -0.0133938 -0.255017 
-0.00174162 -0.00895043 -0.0130178 

-0.246543 0.181984 0.0676155 
-0.118943 0.218658 0.655594 
-0.00042221 0.0129464 0.087822 

-0.687841 -0.564431 0.772095 
0.433316 0.345201 -0.682332 
0.0499854 0.00409991 0.245503 

0.0121602 0.05047 0.10301 
-0.040849 0.0428992 0.123054 
-0.00308113 -0.0116364 -0.0311091 

0.0528769 0.000239549 0.0190856 
0.0222033 -0.0216323 -0.00827461 
0.00448129 -0.0148765 -0.0276426 

0.0243798 -0.017228 -0.106058 
0.014907 -0.0682065 -0.417145 
-0.00124005 -0.00486291 0.13382 

-0.0186811 0.0383374 -0.00405678 
0.0222434 -0.0318206 0.028354 
-0.00072369 0.00114622 0.0429366 

-0.0228794 0.00692799 0.13304 
-0.00501126 -0.0118117 -0.0505318 
-0.00227868 0.00368397 0.05718 

-0.362461 0.337179 9.89022 
0.160626 0.0537588 0.5193 
-0.000418351 -0.00228166 -0.394231 

-0.0583038 0.0529114 3.1058 
0.0321237 0.0238464 1.54601 
-0.00074233 0.00370231 0.262714 

-0.098793 -0.0527301 0.168334 
0.0925949 0.00505803 0.284674 
-0.00603511 0.00358291 0.088063 

-0.0558556 0.0502562 0.494416 
0.0111683 0.0433635 -0.198108 
0.0119053 -0.0195622 0.0757856 

-0.012199 -0.0261254 0.0401395 
0.0589151 0.0158617 0.039913 
0.00299163 -0.00220001 0.00317231 

0.00513535 -0.0324199 0.101108 
0.0521407 -0.00159154 -0.105478 
0.00142458 -0.00287002 0.0278218 

-0.288449 0.699063 0.813691 
0.0959414 0.203624 0.0885011 
-0.0746518 -0.0455804 0.268926 

-0.0563824 0.085179 -0.0585868 
-0.103653 -0.00874551 0.0543253 
-0.00638485 -0.00956071 0.0733537 

0.01068 0.0145465 -0.0357493 
0.020683 -0.00369836 0.0321404 
0.00385751 0.000478556 -0.0186647 

-0.011118 0.110736 -0.275454 
-0.106697 -0.0030186 0.13499 
-0.0245143 0.000519732 0.214468 

0.0107313 0.0891007 0.171149 
-0.101864 0.0154635 -0.169978 
-0.00695822 -0.0132889 0.0323942 

0.00121304 0.021965 -0.0001119 
-0.0178345 0.00348959 3.71121e-06 
-0.000727973 0.000203878 -0.00622341 

0.00217136 0.0755025 -0.00574331 
-0.0855388 0.00527125 0.0216242 
0.000271846 0.00354242 0.00391374 

0.0778643 -0.115553 0.198653 
0.0542427 -0.049955 0.339483 
0.00511261 -0.005099 0.104287 

-0.0406495 -0.0962048 -0.168147 
-0.0267366 -0.0109595 0.80181 
0.00122789 0.00389499 0.051502 

-0.0085949 0.0152869 0.0244464 
-0.00268168 -0.0254077 -0.00582097 
-0.00371399 -0.0015049 -0.0100235 

-0.353957 0.226123 3.19561 
0.0083116 0.225113 -0.878347 
-0.0100385 -0.009105 -0.060527 

-0.0143073 -0.00664413 0.403431 
-0.0432751 0.0460202 0.442395 
-0.0017643 -0.00343859 0.0169646 

0.00226477 -0.0541907 0.0090708 
0.073099 0.0320697 -0.183777 
-0.0103423 0.0807894 0.310122 

-0.068959 0.084569 6.51228 
-0.149267 0.0366544 12.3818 
-0.00039261 0.00171421 0.840054 

0.000247305 -0.0099825 0.0465952 
0.0537485 0.0453103 -0.0852937 
0.000145052 -0.00950936 -0.0279279 

-0.011194 0.0566634 -0.0114782 
-0.06196 0.0120037 -0.0155486 
0.0409885 -0.0172351 0.0511947 

-0.0362617 -0.00302023 0.0730286 
-0.0116768 0.0369424 0.104787 
-4.88267e-05 0.00207792 0.0662581 

-0.0580833 0.0489964 0.261622 
-0.0353811 0.0680235 0.142751 
-0.00254148 0.0131055 -0.0311707 

-0.447027 -0.343566 -0.212916 
-0.0225538 0.1591 -0.110342 
0.0115535 0.000157413 0.0196317 

0.0362339 -0.0566875 0.362454 
-0.159763 -0.0167966 0.878999 
-0.0112078 -0.023455 -0.129479 

-0.0164198 -0.0304302 0.13307 
-0.00408883 0.0334812 0.414311 
-0.000413051 0.00126231 -0.023448 

-0.33269 -0.372186 1.08682 
0.0128336 0.267526 0.170178 
-0.00175251 -0.0230122 -0.169471 

-0.0211166 -0.00454926 0.012358 
0.020018 0.000207645 -0.0924549 
-0.000702533 0.000550569 0.0300755 

0.012583 -0.0686893 -0.0664235 
0.801772 0.106726 -0.2925 
-0.0309483 -0.00855595 0.0326405 

-0.0204797 -0.0331109 -0.232319 
0.0182911 0.00765408 0.00811792 
-0.00159942 0.0027542 0.0804608 

-0.508074 0.244605 1.62355 
-0.0800351 0.433359 -0.0372378 
-0.00445832 -0.0047303 -0.0459102 

0.00251413 0.182547 -0.00192995 
-0.239984 0.0211041 0.0227918 
0.00420964 0.0022649 0.0282614 

0.00636172 0.10748 -0.186311 
-0.0723887 -0.0303221 0.47886 
0.0114696 0.0294193 -0.00698209 

-0.276036 -0.00386256 1.8059 
-0.194438 0.0391291 0.629934 
0.000817458 -0.0313981 0.154333 

0.023255 0.039752 0.00262924 
-0.0532849 -0.00198925 -0.028456 
-0.0132775 0.0021522 0.0647937 

0.0392851 0.0310462 0.0664095 
-0.0331712 -0.023556 -0.00852123 
-0.0216023 0.00272126 -0.0433321 

-0.0917343 -0.0585224 -0.725638 
0.255635 0.0139493 -0.424313 
0.0517139 0.00868922 0.490235 

-0.0528639 0.0663331 0.964279 
-0.284313 0.0142012 0.542286 
-0.00647382 0.0291974 0.109342 

0.0567987 -0.140787 -0.485173 
-0.233424 -0.055539 0.097228 
-0.0261787 0.0308598 0.108597 

-0.0994285 0.189446 1.75168 
-0.0471512 0.231722 1.74596 
0.0122213 -0.000634917 -0.170343 

-0.26332 -0.193566 -0.423037 
0.0525568 0.220072 1.19632 
0.0307817 0.0587371 -0.100304 

-0.042613 -0.00190014 -0.382102 
0.0182304 0.032909 -3.07783 
0.00229516 0.00111557 0.031744 

-0.0624847 0.00995171 -0.0624476 
0.014646 0.102306 -0.792225 
-0.00606176 0.00510734 0.00307328 

-0.0669945 0.129691 0.211174 
-0.118965 0.0624034 -0.139225 
-0.0122867 -0.00274454 0.000984909 

-0.166014 0.00825788 0.222857 
0.00695067 0.0266943 -0.0110666 
0.000184627 0.00400007 0.0950576 

-0.086745 -0.0486596 1.00721 
0.0557472 0.0364389 -0.455711 
-0.00146138 0.000545138 0.0470262 

-0.0568842 0.132431 -2.53756 
-0.019885 0.0800975 -1.99667 
-0.00373763 0.00597029 0.126437 

-0.00441214 0.0122489 0.21364 
-0.00941788 -5.09453e-05 -0.00310686 
-0.000180203 0.000109923 0.0466837 

-0.00452774 0.00295326 -0.245236 
0.0791592 0.0495583 0.189697 
-0.0011562 0.024408 0.0234063 

-0.08383 0.023033 0.251771 
0.124683 0.146608 1.39869 
-0.00908726 -0.00482831 0.00232198 

-0.0185422 -0.000710975 -0.0271193 
0.00444905 -0.00524878 -0.0977849 
-0.00377158 0.014484 -0.0225177 

0.0192194 -0.0290561 -0.174611 
0.00788277 -0.0821731 -0.216712 
0.0203403 -0.00960422 -0.0299581 

-0.0655595 0.082704 -4.10757 
0.0407006 -0.0519648 4.08503 
-0.00888476 0.0545403 0.731752 

-0.0690194 -0.0570336 0.108989 
0.0327811 0.0435206 -0.471511 
-0.00994395 0.0164469 0.066174 

-0.172369 -0.126311 0.280748 
0.231366 0.164676 -0.105283 
0.018854 -0.0147353 0.0210141 

-0.506176 -0.168611 -1.5363 
-0.229935 0.303317 -1.23493 
-0.00133291 0.0390523 0.145274 

-0.148736 0.0357068 0.606014 
-0.0532928 0.120226 0.317481 
0.0136296 -0.0284165 -0.0697953 

-0.0245998 -0.0138559 0.331715 
0.0635574 -0.000534933 0.113907 
0.0191558 0.0155495 -0.049932 

-0.0509256 -0.130267 -0.109721 
0.122518 0.0424198 -0.26665 
-0.0542821 -0.0215621 0.375974 

-0.00308944 0.0363396 -0.0611373 
-0.0309513 -0.00750298 -0.0539181 
-0.00121356 -0.00134063 -0.00973416 

-0.00831702 0.188369 0.208526 
-0.287677 0.11816 0.703409 
0.0097835 -0.0257728 0.0986237 

0.0108077 0.0142749 -0.112657 
0.0142763 0.0255299 -0.051143 
-0.00157007 0.000120259 -0.00128962 

-0.0103903 -0.00712763 0.017951 
0.0112781 0.00862292 0.0210452 
5.10077e-05 0.000210388 0.027064 

0.00714667 -0.128179 0.0482179 
0.161859 0.0165479 0.0221157 
-0.000308973 -0.00526844 0.331599 

-0.0246847 -0.175534 -0.720888 
0.0377493 0.0427306 0.262416 
0.012556 0.0123582 -0.070377 

-0.00812756 0.013666 -0.0513078 
0.159059 0.0373548 0.0854436 
0.0188552 0.00122212 0.0907301 

-0.0613904 -0.546133 -0.0343894 
0.444416 0.265998 -0.190921 
-0.0253679 0.0278555 0.163972 

-0.00375731 0.0965509 -0.516236 
-0.11791 -0.0106416 -0.563946 
-0.00263971 0.00279868 0.130591 

-0.014039 0.00118713 0.000571941 
-0.0198381 -0.00939194 0.0135571 
-0.00165809 -0.00302934 0.00991155 

-0.0814528 0.0264091 -0.323072 
-0.131649 0.0205975 0.305717 
0.00687999 0.00382958 -0.00785719 

-0.00669367 0.00921054 0.0858649 
-0.0260432 0.0140487 0.0447931 
0.00132248 -0.00185808 0.00535135 

-0.223001 -0.222174 -0.0694732 
0.20962 0.139524 0.172533 
-0.042247 0.0241867 0.212481 

0.00120387 0.150846 -0.118378 
-0.151895 0.0438047 -0.105754 
-0.00594057 -0.0086812 0.202742 

0.00311413 0.164228 0.00748018 
-0.192892 0.00642014 -0.00195906 
0.00428851 0.00132922 0.029302 

-0.0123159 0.0372851 0.0621584 
-0.0717652 -0.0146489 0.00196683 
-0.0257064 0.0179136 0.129929 

-0.125775 -0.0143897 -0.313686 
-0.100505 -0.0258809 0.171784 
0.0180771 -0.0130526 0.154586 

-0.00193834 0.0275179 0.00832007 
-0.0105625 0.00530251 0.00885516 
0.000829348 0.000101856 -0.00334083 

-0.00929061 -0.0347087 -0.0696703 
0.0449215 -0.0954334 0.934889 
-0.00251477 -0.0144552 0.190542 

-0.0435834 0.011174 -0.14264 
-0.0224986 -0.00943859 0.0538505 
-0.00674241 -0.00325631 0.0162167 

0.00113039 0.022317 0.0014912 
-0.00594209 0.00270796 4.19467e-05 
0.000280353 0.00097149 -0.00824566 

-0.0177783 0.0159001 -0.0582735 
-0.0111157 0.00517423 0.0205695 
0.000563803 -0.00146309 0.0249708 

-0.0039676 0.00522873 0.00258211 
-0.00205077 0.0121283 -0.00871893 
-0.00283663 0.00473325 -0.0119848 

-0.0310069 -0.100914 2.29739 
-0.0354585 0.00134101 -0.526445 
0.00330388 -0.00333252 0.182478 

-0.0162447 -0.0533466 1.84329 
-0.0478897 0.0424853 -1.24965 
-0.0239925 0.000280559 -0.0124678 

0.0965609 0.231428 0.519234 
-0.292583 -0.106463 -0.539175 
-0.00642707 -0.00961242 -0.00900546 

0.00745352 -0.0169018 -0.0442895 
-0.00293552 -0.00830983 -0.0695265 
-0.00100201 -0.0032249 0.0104339 

-0.0136871 0.0660859 0.0793088 
-0.0805872 0.0189626 -0.00030185 
0.00455174 0.00354752 -0.0168276 

-0.0910389 0.116365 0.555372 
0.0264806 0.0584105 -0.117625 
0.0879766 0.0646118 0.237494 

0.0103253 0.0641891 -0.146417 
-0.0577726 0.0142792 0.0499574 
0.00828229 0.00954037 -0.0729359 

0.0187523 0.0362478 -0.00960271 
-0.0203097 0.00943554 0.102213 
-0.00191502 -0.0016588 -0.0621603 

-0.0510028 0.240928 -0.808147 
-0.361569 0.145211 0.269841 
0.0451779 0.0133457 0.74669 

0.0223251 0.0232197 -0.0254673 
-0.0170481 0.0191194 0.0235104 
0.00116097 0.0022651 -0.0654949 

0.00024833 0.00792518 -0.0799841 
-0.0455992 -0.0073168 0.032342 
-0.00244618 0.0227791 0.151725 
