# vtk DataFile Version 3.0
Output file generated by Yade's KinematicLocalisationAnalyser
ASCII
DATASET UNSTRUCTURED_GRID

POINTS 13483 float
512.043 58.5848 -0.407132
611.161 89.0648 0.339432
112.603 6.11037 -0.446718
636.931 7.67607 0.429212
455.023 8.26502 -0.375596
299.266 41.2014 0.570199
147.723 7.25224 0.451552
489.647 29.6867 0.140357
448.991 26.5271 -0.161067
585.636 16.5353 0.614197
199.651 8.99769 -0.093021
244.793 6.41661 -0.242977
536.911 51.2699 -0.151066
532.772 15.5504 -0.126394
129.294 18.7335 0.498119
209.754 35.8159 0.292746
206.873 13.1499 -0.287516
275.163 9.77904 0.455226
322.831 36.7617 0.440817
477.829 8.20828 0.362711
387.527 54.1092 0.0995493
505.686 76.9508 -0.267853
627.627 59.4903 -0.458085
570.226 77.1153 0.461763
421.404 18.7264 0.356667
229.103 46.0954 0.137153
432.484 35.3898 -0.473853
501.498 42.4146 -0.235513
43.3352 16.5873 -0.392429
578.945 41.4182 -0.45532
440.857 4.56063 0.426244
16.0125 24.0914 -0.322475
619.648 77.1077 0.276921
452.746 2.2266 0.644021
73.7798 46.5807 -0.108015
448.641 39.1281 0.346695
482.962 16.4868 -0.553197
326.547 24.8916 -0.173548
458.481 40.0588 -0.31761
332.845 37.9407 0.516898
229.49 14.7751 -0.332516
399.993 44.3527 -0.0636615
560.571 27.1545 -0.174099
182.302 6.25187 0.352433
52.7221 7.18046 -0.10885
65.1051 9.02215 -0.260255
561.948 12.0513 -0.628151
22.5095 11.6657 0.305583
528.02 85.7106 -0.353697
558.096 46.7225 0.343242
162.217 34.127 -0.30162
601.46 79.4782 -0.127382
32.8802 29.5756 -0.114696
487.783 2.56709 0.344218
134.114 7.27157 -0.503878
512.999 68.3325 0.368043
436.702 43.2345 -0.126239
165.281 0.964195 -0.276129
31.4256 2.32868 0.354451
330.715 19.1368 0.284363
540.085 89.2256 0.132298
426.243 40.3059 -0.170846
372.246 1.02867 0.269684
570.424 7.7931 0.39347
24.4663 44.1637 0.274563
244.21 31.7298 -0.307226
587.08 9.47878 0.554699
544.936 81.6522 0.344076
388.648 9.75603 -0.654821
495.726 13.945 -0.4721
595.533 64.9708 0.416006
123.462 7.90396 -0.254833
444.869 27.7921 -0.152334
436.791 14.1688 -0.172195
281.152 16.9034 -0.400454
20.0072 13.7763 -0.308129
616.662 65.7092 0.36595
315.624 42.6124 -0.30967
558.805 43.1082 0.441477
563.107 20.2818 0.272753
623.984 29.2443 -0.369889
426.833 44.422 0.191224
87.9247 41.2408 0.278518
560.792 82.9812 0.219199
530.162 63.6393 -0.123023
631.689 63.57 0.121825
637.051 0.797409 -0.431723
277.834 30.9276 0.417867
524.699 6.40466 -0.175106
23.6853 5.62146 0.639506
125.273 40.2658 -0.157096
468.54 14.6684 0.300499
613.229 51.708 -0.523674
184.782 29.5059 0.24661
41.6801 37.2203 -0.277894
451.585 1.15704 0.133457
224.777 8.93395 -0.431856
585.946 87.188 -0.264482
608.203 60.4805 0.280466
341.894 23.0354 -0.243469
155.333 28.4816 -0.464035
468.361 63.0435 -0.456252
358.745 18.2593 -0.571065
392.028 46.4453 0.102185
356.704 7.09004 0.668517
470.966 26.8066 0.135389
635.132 22.6304 0.337933
76.1587 41.3323 -0.424104
319.289 6.16983 -0.182402
484.158 29.1757 -0.457033
343.211 49.4863 0.454636
23.7439 25.5412 -0.499444
29.4877 5.84062 0.295978
488.603 59.5507 0.428206
453.722 25.0559 -0.162805
23.4236 37.7758 0.424663
89.239 33.0049 -0.219452
311.173 18.2669 -0.289047
513.047 31.452 -0.118359
428.067 56.2929 -0.093511
600.996 7.33421 -0.57546
593.601 8.1845 -0.318799
370.259 41.5819 -0.106296
530.841 38.2032 0.116989
227.969 17.1045 0.602325
315.501 5.20238 0.544316
97.6603 34.0527 -0.316794
110.016 25.0393 0.270297
463.856 61.5883 0.0756765
292.935 19.0834 0.535025
565.655 53.9996 -0.100217
548.762 84.8539 0.110491
440.201 20.8906 -0.418984
603.168 34.5931 0.360085
394.288 30.4726 -0.231526
266.823 24.4972 0.334919
554.77 69.6664 0.283354
267.609 29.7716 0.371389
498.508 34.2226 -0.235304
316.532 39.2218 0.208062
462.765 12.4891 0.582285
350.631 35.8438 0.0913234
399.958 20.1127 0.158382
303.385 47.823 0.446943
181.143 31.5413 0.114249
612.325 83.9465 -0.142988
632.751 24.589 -0.263058
5.95279 12.5067 0.43467
400.815 26.7758 -0.445491
36.876 24.1619 0.0705124
361.2 34.4467 -0.432686
375.979 27.7665 -0.283414
71.2265 12.488 -0.469996
48.2376 37.6118 0.549539
216.763 14.6276 0.546116
513.863 43.8891 -0.415013
494.806 46.4358 -0.512089
70.2894 23.2344 -0.484459
573.079 74.0602 0.455553
624.248 3.97866 -0.569626
543.224 72.9642 0.456606
566.023 1.86598 0.631666
475.263 50.0971 0.398056
507.031 77.8908 0.450564
471.813 18.5305 -0.491757
634.955 7.12288 0.516659
215.223 26.7056 -0.105242
120.852 37.281 0.203844
237.855 6.82852 0.406272
88.9938 4.91659 -0.259137
61.5622 10.3138 0.25254
265.267 38.4076 -0.411758
16.7169 26.7764 -0.391464
480.387 39.8456 -0.403652
528.838 80.8617 -0.196214
428.733 24.0719 -0.445663
635.595 85.5414 0.36125
382.579 8.81319 -0.181016
402.666 40.2757 -0.427953
495.121 3.62543 -0.333874
22.0944 24.6954 0.417219
498.353 19.0434 0.635003
502.291 6.24331 0.503354
198.001 11.3756 0.486875
397.092 18.8068 -0.267279
301.024 6.9474 0.342517
368.327 21.246 -0.456287
584.928 73.8426 0.107014
183.99 25.6458 -0.415124
618.357 20.9795 -0.46484
588.613 72.6168 -0.329908
363.945 11.5368 -0.349459
586.024 2.49437 -0.484994
510.546 38.347 -0.575283
606.308 17.9492 -0.507874
408.134 53.0981 -0.271688
458.001 13.328 0.503906
418.12 58.8545 -0.218691
415.382 11.789 -0.245476
546.532 74.8126 -0.263601
547.011 70.5399 -0.337691
183.788 40.5166 0.355257
621.764 29.1494 -0.18704
508.903 79.2089 0.241772
11.3205 17.1496 0.311999
385.098 31.6506 0.332555
179.754 23.4079 -0.432709
88.5383 43.0263 -0.204931
611.675 49.7939 -0.443342
537.514 77.0902 -0.289149
307.718 28.6539 0.377158
492.227 9.67013 0.335443
78.6649 46.4435 -0.187267
238.452 26.6936 -0.467523
480.357 45.6603 0.346604
449.873 19.1354 -0.588225
254.007 0.870513 -0.343848
477.101 67.6225 -0.348857
456.749 60.8999 -0.451678
439.073 59.0381 0.393099
462.137 2.00951 -0.658758
573.316 20.6937 0.478202
171.979 12.7288 -0.227283
456.659 68.1405 0.413311
488.143 67.3325 0.110122
70.7088 0.925651 0.334141
243.043 4.91604 0.192343
632.254 28.0405 0.240791
623.993 31.2446 -0.458334
637.149 27.9123 -0.654214
293.532 8.87606 -0.237226
589.639 40.4296 -0.454731
387.256 59.7228 -0.301045
416.115 0.867372 0.648745
536.048 63.9537 -0.535007
24.7425 31.4922 0.320928
317.82 45.2166 0.615351
243.829 3.05522 0.400308
622.064 73.5477 0.193991
576.092 67.3771 0.270909
277.701 11.1907 0.295061
546.912 61.6501 -0.115209
505.396 5.18615 -0.269508
499.483 10.2256 0.515966
92.6657 19.06 0.516778
293.479 1.25838 -0.252632
328.741 2.28614 -0.363099
13.7012 7.70627 0.409777
4.94422 32.9837 0.230691
155.1 19.755 0.411314
65.2769 44.5151 0.229113
62.1265 31.5126 0.31894
396.712 15.8126 -0.597254
353.913 39.5851 -0.475279
598.384 84.1221 -0.11353
19.2041 3.96049 -0.278404
68.1572 7.18277 0.129716
520.631 49.3759 -0.198405
285.008 0.944435 0.393062
347.183 18.158 -0.107871
227.422 4.81159 0.370414
540.951 38.2272 0.178452
419.126 10.8783 0.483254
609.193 25.988 -0.50036
531.151 42.195 -0.308438
557.783 41.5263 -0.0881486
392.624 38.2498 0.484419
96.4259 49.6003 -0.314432
466.066 66.287 0.0669202
604.88 12.8607 0.334587
229.152 32.2243 0.229672
30.9068 18.2388 0.211875
323.614 15.6127 0.517862
101.796 44.8869 0.47136
259.625 43.7691 -0.214021
400.144 2.59289 -0.209392
613.795 56.225 0.396081
559.971 3.69374 0.589399
319.439 4.28661 0.490765
289.895 29.1229 0.16859
420.23 56.084 -0.204044
78.2661 9.47545 -0.548169
190.077 46.3916 -0.394181
607.333 65.6168 0.35973
451.179 69.5283 0.0633208
192.248 42.131 -0.298264
153.353 44.5581 0.396349
638.475 55.4348 0.452302
634.394 23.9662 -0.587916
517.544 4.31108 -0.614401
182.452 24.6765 0.107197
477.039 50.9253 0.109166
479.269 53.7338 0.261554
387.018 6.00177 -0.128984
446.71 0.912716 0.416513
599.385 89.2311 -0.504956
81.6645 32.7577 -0.22103
544.874 37.64 -0.468056
265.604 16.1743 -0.376638
9.12592 2.40377 -0.319651
119.418 38.7957 -0.191209
62.2207 25.1505 0.4671
562.595 64.2197 0.302657
628.201 80.4963 -0.185335
179.081 30.7778 0.181569
632.215 30.8804 -0.465991
42.5859 39.4642 0.240631
87.8564 31.6327 0.158228
540.033 17.3094 0.445825
390.309 18.7834 -0.554948
481.189 16.5904 0.0972547
229.549 30.2904 -0.183483
531.752 4.11712 -0.569439
637.157 22.9244 0.4587
27.6806 32.4707 -0.259438
261.753 7.90411 0.213149
214.455 15.8335 0.275397
1.07481 37.76 -0.150943
217.702 15.4319 -0.426326
204.409 11.2151 0.113267
206.768 26.8659 -0.285377
126.107 30.3348 -0.13175
475.958 34.114 -0.305761
160.339 14.9633 -0.345712
616.97 77.2165 0.26037
167.175 3.90495 0.505162
44.0848 42.2671 -0.356553
578.743 80.8374 -0.556679
271.723 33.9593 -0.373367
563.677 46.8606 0.473099
618.732 58.2381 -0.553805
291.611 9.48967 0.128539
586.257 51.9227 -0.358135
317.451 2.69489 0.482528
389.274 28.1085 0.40011
564.47 40.8903 0.520898
100.971 12.0654 -0.547431
448.776 3.71315 -0.541501
598.572 32.2926 0.201433
84.123 7.97251 0.304186
273.14 15.0023 0.21545
397.889 14.1341 -0.288327
635.12 10.921 0.651156
377.035 1.77162 -0.572564
169.241 41.0596 0.350232
607.53 10.2779 -0.520768
122.734 38.2789 0.20553
255.006 32.2706 -0.397917
380.571 25.5342 0.255152
499.111 37.202 0.483434
367.612 10.5334 -0.566282
425.395 32.8928 -0.425525
610.534 87.6294 0.376975
46.3863 12.3213 -0.131447
289.042 40.9708 -0.31185
365.756 30.2227 -0.373501
386.329 21.9838 -0.277342
445.726 56.2429 0.35884
592.654 89.3329 0.221299
551.765 73.8733 -0.338845
217.773 36.6117 -0.369679
10.8421 34.4854 0.152226
545.488 69.2747 0.148739
467.375 73.3 0.429249
221.779 41.3949 0.123233
557.563 71.0934 -0.119807
144.989 9.49178 0.245817
350.14 24.4084 0.289749
420.186 58.1637 -0.104412
390.169 20.6121 -0.25743
609.639 93.203 0.29087
400.984 5.46187 0.617596
47.31 28.3954 -0.334223
432.411 51.32 0.364722
405.724 44.781 0.404752
617.838 70.3185 0.216663
584.05 44.8545 0.234095
470.135 37.5077 -0.175689
609.228 77.0252 -0.363977
284.615 2.25824 -0.468535
366.735 34.2716 0.468669
26.5052 39.5182 0.33308
592.251 57.6869 0.172426
522.549 23.8715 -0.65218
429.493 0.751331 -0.518807
120.551 4.81331 0.340182
405.53 53.1745 -0.0950919
11.5023 0.916212 0.314832
632.856 12.2805 0.100133
357.775 44.2571 -0.469406
[...]
POINT_DATA 13483
TENSORS Strain_matrix float
-0.191466 -0.21989 -3.16559 
0.0407791 0.212035 0.312478 
-0.0146017 0.00187755 0.142018 

0.0206718 -0.0141725 0.114499 
0.0174018 0.00423375 -0.0144975 
0.000374746 0.00115907 -0.0433907 

-0.0039579 0.000436286 0.0129326 
0.00897636 0.000493282 -0.0324685 
0.000130797 -0.000597581 0.009087 

-0.206652 -0.661391 -0.00455866 
0.815667 0.54912 -0.0541957 
0.024926 0.0336418 0.0626091 

-0.0253956 0.00625578 -0.0096575 
0.00114973 0.00600271 0.000386048 
0.00668897 0.00349557 0.0183683 

-0.0101316 -0.0264782 -0.0574333 
0.049603 0.018716 0.35723 
0.00104641 -0.00138138 0.095391 

-0.0184125 -0.0264568 -0.0756785 
0.0420706 0.0103823 0.0315506 
-0.000108658 -0.000252463 0.0199734 

0.0189326 -0.115373 0.00801907 
0.0934919 -0.00289077 -0.00365271 
-0.00204652 -0.00105984 -0.0068543 

-0.306227 -0.53282 0.654873 
0.328843 0.4421 0.0764901 
0.000650074 -0.000251662 0.0452399 

-0.00099308 -0.000171006 -0.0151107 
-0.00168353 -0.00452496 0.00895233 
0.000845484 0.000906549 0.026247 

-0.0139008 -0.0276697 0.0165598 
0.0241655 0.00393217 -0.00139116 
-0.00137099 -0.000823836 0.016106 

-0.00962701 0.00249119 0.00244674 
-0.0047111 -0.0048099 0.00131675 
0.00020978 0.00112015 0.0208718 

0.0674179 -0.548913 -1.78628 
-0.311341 -0.0191503 -1.53467 
-0.0119297 -0.0150214 -0.122334 

-0.197945 0.0565766 0.379486 
0.0673943 0.0247535 -0.253021 
-0.0125782 0.012261 0.168636 

0.0107161 -0.044048 -0.2293 
0.049013 0.0072368 0.340373 
-0.00104282 -0.0113526 0.237252 

-0.00327704 -0.00967518 0.00602396 
0.00574494 -0.00141857 -0.0112984 
-0.000513289 -0.000127506 0.00916965 

0.0066542 -0.0123018 0.00229373 
0.00843623 -0.0108433 0.035118 
0.000499801 -0.00391686 0.00565219 

0.0199128 -0.0278605 0.167558 
0.0401073 0.000147461 -0.381096 
0.00565775 -0.00302287 0.0794031 

0.0024296 0.0409817 0.0943285 
0.0111275 0.0175872 -0.159821 
0.0436421 0.097849 0.00123202 

-0.027878 -0.0327733 0.00514001 
0.011899 0.00899071 0.0346612 
0.000608079 0.00591231 -0.005647 

-0.0171807 -0.0473917 0.0147935 
0.124002 0.00285873 0.202579 
0.00774635 0.00899684 0.691027 

0.00171061 -0.0583375 -0.167207 
0.118718 0.00903205 -0.0535483 
-0.00375093 0.00185874 0.0259112 

0.0105235 0.00530357 -0.169057 
0.00345681 -0.00647415 -0.0371122 
0.00036431 0.000320622 0.00735526 

-0.0353679 0.0761679 2.16113 
-0.175514 0.113827 2.73411 
0.0140964 0.011269 -0.074226 

-0.0210924 0.0826198 -0.0637545 
-0.171792 6.09288e-05 0.117396 
-0.00554471 0.00464667 0.0188226 

-0.0069609 -0.0379402 -0.00165081 
0.0328486 0.000640197 -0.0203772 
0.0114405 -0.000314599 0.0322068 

-0.521344 -0.0439706 -0.362911 
-0.0164385 0.401588 -0.197917 
0.0065362 0.0111822 -0.211899 

-0.0754765 -0.0807085 1.26819 
-0.0546538 0.0489073 1.07539 
-0.0163258 0.0162089 -0.110665 

-0.0547573 -0.0477485 -0.0135869 
0.0375679 0.0706387 1.48855 
0.042941 -0.0450691 1.38251 

-0.790105 -1.29716 -1.47055 
0.349417 0.697411 -0.129725 
0.00704556 0.00592592 0.0502585 

-0.0349898 -0.0198654 0.0083507 
0.0367438 -0.064335 0.237459 
-0.00562308 -0.0221555 0.186615 

-0.109207 0.00501836 -0.0658136 
0.0696757 0.0881725 -0.228608 
-0.0133834 0.00218514 0.0538915 

0.00780005 -0.0188164 0.0459639 
0.0253477 -0.00316022 -0.0146326 
-0.00271212 -0.005299 0.0330202 

-0.0337228 -1.14829e-05 0.593948 
-0.00974897 -0.0053249 0.697829 
-0.00500948 -0.00369883 0.272015 

-0.00949828 0.0261232 0.0132749 
-0.0285933 0.00181464 0.0028085 
-0.000455917 -0.00162387 0.0168786 

-0.0127402 -0.213901 0.391383 
0.113013 0.0103209 0.0557522 
0.0238863 -0.00521724 -0.166547 

-0.115563 -0.365721 7.21334 
0.0550183 0.137911 -2.87067 
0.00133387 0.00370677 -0.062343 

-0.0493947 0.217746 -0.198668 
-0.139489 0.0500369 -0.141734 
-0.00826029 -0.00155947 0.0669433 

-0.00831466 -0.00209402 0.0181745 
0.000492655 0.0174277 -0.0634749 
0.00912137 -0.00068867 -0.0574468 

-0.0199527 0.0375551 -2.0864 
0.0246915 0.0424901 -1.49558 
-0.000688175 0.00102045 0.135636 

-0.014563 0.0168246 -0.0171345 
-0.0119875 0.00763507 0.00383788 
-0.00047924 -0.00155256 0.00556523 

0.0314064 0.786824 1.01665 
-0.828402 0.656434 0.792894 
0.000632527 -0.00569319 0.0683343 

0.0341578 -0.120922 0.0100104 
0.0864895 -0.0287302 -0.00313559 
0.00308722 -0.00849677 0.0100225 

-0.0133037 0.00713359 0.00637685 
-0.00332495 -0.000658848 0.0293644 
-3.19005e-05 -0.000759124 0.0108343 

-0.00461109 -0.0326831 0.0667875 
0.0118523 -0.0170984 0.00400645 
-0.00128732 0.00141056 0.0318637 

0.00676263 -0.0280545 0.0936682 
0.0485958 0.0100969 -0.014935 
0.00891505 -0.00725767 -0.0327536 

-0.0291272 0.200403 -0.0344793 
-0.400204 0.203093 0.37275 
-0.0604458 0.00695974 0.0411176 

0.0110725 -0.00708376 -0.0140683 
0.0477208 -0.0172275 -0.00440204 
-4.27694e-06 0.00200401 -0.00507877 

0.00063927 -0.114145 -0.0183825 
0.0500655 0.0556565 -0.22165 
-0.018049 -0.0142267 0.115287 

-0.0833887 -0.600485 0.234234 
0.300124 0.108071 0.184405 
-0.000157571 0.00144949 0.0425815 

-0.0752537 0.0265411 -0.585764 
-0.0187166 0.090124 -0.0114508 
-0.0391435 -0.0299249 0.514264 

0.00103486 -0.0406663 -0.0175933 
0.00347512 -0.00529567 -0.0599645 
0.000372862 0.000973529 0.00467087 

-0.00555893 -0.104541 -0.118119 
0.0738521 -0.0195853 0.0237895 
0.0154581 -0.010823 -0.0402679 

-0.166705 -0.0172957 -0.0144039 
-0.0279829 0.137043 -0.235478 
0.0415052 0.113828 0.26215 

-0.0130045 0.00612676 -0.189123 
-0.037703 -0.019378 0.0702699 
0.000924174 -0.00332154 0.0891844 

-0.0390363 -0.0513161 -2.44398 
0.00804369 0.014432 0.0854652 
0.0174338 0.0220899 0.882488 

-0.897774 0.0925845 -4.22857 
-0.88249 0.396495 0.319571 
-0.00737443 -0.0016661 0.0138633 

-0.0135835 -0.285646 -0.249244 
-0.00621261 0.0723323 -0.263651 
0.00157146 -0.00677552 0.101859 

-0.028674 -0.0448109 0.221519 
-0.0299665 0.0134273 0.0768728 
0.00351793 -0.00341361 0.0510792 

-0.139741 0.0580932 0.281502 
-0.0464927 0.0238086 0.234682 
-0.0491164 -0.00493612 0.0420143 

-0.104405 -0.596172 1.11906 
0.226921 -0.348264 1.52435 
-0.00640597 0.0146897 0.391282 

-0.228776 -0.106077 2.02039 
0.109945 0.117611 0.71188 
-0.0487528 -0.0110302 0.733982 

-0.023058 0.184551 -0.205735 
0.0207209 -0.0295068 0.0122299 
0.0138297 0.0522393 0.102213 

-0.0381848 -0.0347763 -0.142929 
0.0196184 0.0215536 0.189075 
0.00116996 0.00377355 0.0833102 

-0.129498 -0.0888329 0.0841143 
-0.0107709 0.10147 0.479271 
0.00604603 -0.0543718 0.0850006 

-0.03678 0.140006 0.0774109 
-0.052186 0.0781754 0.178613 
-0.00197494 -0.000574134 0.0139549 

-0.00535548 -0.00645339 0.0305848 
0.00250581 0.00115971 -0.0101627 
-0.000925976 -0.000470965 -0.0152642 

-0.171476 0.171967 -0.0172539 
0.0571013 0.193276 0.343807 
0.0268952 0.0427807 0.361923 

-0.0891744 -0.0156244 -0.525129 
0.0259494 0.050096 -0.635026 
0.00331736 0.000748462 0.00733687 

-0.270119 -1.01537 -0.929974 
0.655224 0.890186 1.08783 
-0.013503 0.0273738 0.0332747 

0.0167801 -0.0835925 -0.372206 
0.00764107 0.0161038 0.0947515 
-0.0193911 -0.0416915 0.00280732 

-0.014766 0.0351899 0.0551081 
0.0124863 0.0222371 0.00480318 
-0.000230793 -0.000816119 -0.00838505 

-0.113749 -0.827417 -1.39658 
0.00772602 0.10944 -0.472492 
-0.020485 0.0247233 0.0571575 

-0.00896489 0.00749651 0.0558824 
0.0189626 -0.0219645 -0.112446 
-0.000985211 -0.000477415 0.0589316 

-0.00635848 0.00632885 0.014758 
-0.015917 0.00330824 0.0309777 
-0.000783668 0.00212484 0.00611495 

-0.00612843 -0.00182192 0.00846499 
0.0128589 0.00796327 0.00266436 
-0.00217473 -0.00144085 -0.00504342 

0.0380205 -0.0132963 0.079751 
0.0613376 -0.0517996 -0.257402 
0.00280105 0.00169874 -0.00224559 

0.0113449 -0.0224788 0.190308 
0.0391002 -0.00303433 -0.103078 
-0.00763336 -7.86144e-05 0.100618 

0.0280124 -0.217528 -0.0934825 
0.142874 -0.0244528 -0.00425504 
0.0109488 0.00969253 0.053203 

-0.15779 0.17814 -0.00171489 
-0.0261303 0.067961 -0.0888872 
-0.0914597 0.0501251 0.33558 

-0.0071664 -0.0266099 0.031212 
0.0195673 -0.0391571 -0.16385 
-0.000881165 -0.000210949 0.039058 

-0.0627746 -0.102859 -0.718854 
0.23837 0.0495216 -0.295995 
0.00376987 -0.000613504 0.50251 

-0.0736385 -0.116174 0.0464369 
-0.0159998 0.0680625 -0.00776407 
-0.017328 -0.00367052 0.237045 

-0.0381186 0.0556828 0.0373863 
-0.104398 0.0168992 -0.0690893 
-0.035541 -0.0438676 0.221777 

-0.00362945 -0.106161 0.0165234 
0.0885982 0.00710119 -0.0320034 
0.000583213 0.00131378 0.00211226 

0.000479856 -0.00126314 0.0321298 
0.00243161 0.00469403 0.00447221 
0.00137578 -4.10253e-07 -0.0154397 

-0.500325 0.27691 -0.0416892 
-0.0353831 0.435044 0.400237 
0.0280031 0.0824817 0.189892 

0.0248836 -0.0226528 0.104492 
-0.0348072 0.0118484 -0.0861701 
0.000640567 -0.00230481 -0.00472076 

0.0621827 -0.00929285 -0.0428377 
-0.121343 -0.0700184 -0.0557956 
-0.00380552 -0.00321451 0.0196677 

-0.00932754 -0.0882279 -115.547 
-0.00429075 0.0382525 24.1478 
-0.000347033 0.000942457 1.79268 

-0.0100608 -0.000259086 0.0111291 
-0.00568179 0.00125312 0.00668572 
0.0100232 0.00933976 0.00512346 

-0.0445534 -0.0588689 0.0220124 
-0.0549816 -0.0354414 0.215858 
0.00559284 0.057918 0.252512 

0.00591748 0.0374258 0.134726 
0.0119402 0.00996011 -0.0810351 
0.00296527 0.00245903 0.260281 

-0.0197055 -0.0990651 -0.112083 
0.118201 0.0290037 0.131282 
0.000451274 0.00114281 -0.0259539 

-0.00915906 -0.0581911 -0.0481997 
0.0635115 0.00679615 0.0756733 
-0.00180007 0.000521103 0.0157428 

-0.018916 0.00641569 -0.0206738 
0.000580594 0.0155986 -0.00116236 
9.67632e-05 -0.00279871 0.0257905 

-0.0154514 -0.00972974 -0.245211 
0.00194995 0.0132057 0.062228 
0.00358747 0.00477188 0.00556758 

-0.00688433 -0.025823 -0.0122316 
0.0218276 0.00410706 0.00310536 
0.000542102 -0.000672893 0.00624199 

-0.113497 -0.33103 0.221243 
0.117039 0.131849 0.26305 
0.00167604 0.00464572 -0.0619575 

-0.275574 0.396324 0.60476 
-0.0347598 0.213881 -1.11941 
0.0258521 0.00987178 0.0502185 

-0.0552601 -0.0716952 0.25021 
0.0401276 0.061922 1.32035 
-0.000927031 -0.00221215 0.223444 

-0.0547415 -0.0318067 -2.58369 
0.0171855 0.0354532 -2.21405 
0.00190506 -0.00116268 0.219261 

-0.0962535 -0.020681 1.78189 
0.0260437 -0.0174222 -1.15872 
0.0107446 0.0577852 0.45102 

-1.18702 0.287419 -0.666082 
-0.376597 0.713977 -0.863813 
0.0220688 -0.0202445 -0.0246273 

-0.209399 0.0247102 -5.80373 
0.00192449 0.102395 -0.836855 
0.0221128 -0.00372911 1.93668 

-0.315605 -0.472714 0.103263 
-0.280048 0.192584 0.997334 
0.0339837 -0.0740396 0.771286 

0.0108827 -0.0262319 0.027732 
0.0123602 -0.0323738 -0.0134774 
0.00343018 0.00557258 0.0109537 

-0.00981882 0.0221914 0.215628 
-0.0194218 -0.00542979 -1.71384 
-0.00105394 0.00109811 0.184075 

-0.0884663 0.124822 0.364641 
-0.208625 0.140065 -0.163404 
0.0652963 0.0231105 0.283388 

0.00840088 -0.115251 0.0076713 
0.09046 0.00176938 0.190211 
0.00176276 0.000770883 -0.0309355 

0.00872976 -0.0770103 -0.775871 
0.0482526 -0.0429764 -1.19849 
0.000670922 -0.00116481 0.0394916 

-0.06518 -0.156948 -0.469309 
0.0551664 0.0475384 -0.0663244 
0.00180148 0.00225148 0.0836131 

-0.0171943 0.0827101 0.0707535 
-0.0698452 0.0380493 0.0851522 
-0.00915059 -0.00406761 -0.00901171 

-0.0384828 0.022848 -0.662792 
0.11432 -0.0244015 0.190238 
-0.000987095 -0.00310908 0.0954802 

-0.103326 -1.05099 1.22187 
0.0239738 0.101235 -0.378972 
0.000759381 0.002462 0.0677251 

-0.0377242 -0.00478519 1.89056 
-0.00993942 0.0536144 0.366743 
0.00124914 0.00110022 0.103397 

-0.0002166 -0.0332552 0.0270606 
-0.00325782 -0.0148495 0.0256324 
0.000122799 0.000985541 0.00280757 

-0.0223748 -0.0772156 -0.0570047 
0.127187 0.00925939 0.0003131 
-0.00111445 -0.0020815 0.0186682 

0.200372 -0.41059 0.797189 
0.195083 -0.177185 0.299132 
-0.00324292 -0.0252588 0.086785 

0.00631276 -0.117222 -0.0362255 
0.102656 0.00826456 -0.03725 
0.0020041 -0.00275606 -0.0369764 

-0.0269264 -0.0221121 0.0362365 
-0.0160099 0.0142941 -0.0098692 
0.00120173 0.00530175 -0.002673 

-0.0165971 -0.00177476 -0.00472248 
0.00216874 0.00496441 0.00115358 
-0.00182401 -0.000495216 0.013111 

0.0875803 -0.314446 -0.0598261 
0.336412 0.0208157 -0.076823 
-0.00452861 -0.000104732 0.0396708 

-0.320985 -0.0378142 -0.864668 
-0.723607 0.221419 0.144775 
0.0167929 0.0308116 0.181253 

-0.0225938 -0.00753407 -7.97801 
0.00563729 0.00724861 2.11838 
5.40874e-05 0.00123431 0.608319 

-0.128128 -0.118459 -0.382242 
0.191791 0.0154769 -0.90109 
-0.0419567 0.0228171 1.21752 

-0.0365034 -0.121592 -0.137786 
0.0390159 0.00141867 -0.0454947 
-0.0095929 0.00581778 0.0658626 

-0.0644242 -0.0313648 -0.203223 
-0.0330146 0.1121 0.144143 
-0.0019721 7.58855e-05 0.0394268 

-0.00399097 -0.00960385 0.049888 
-0.0180487 -0.0200031 -0.00678053 
0.00264159 -0.00177363 0.0263495 

-0.0783685 -0.0920815 0.0489834 
0.0507701 0.0764024 -0.0538169 
0.00484621 -0.00335022 0.0793904 

-0.202353 -0.196523 0.559704 
0.0144813 0.136127 0.0137757 
0.0381998 -0.0237752 0.235805 

-0.126368 0.112313 -0.214578 
0.175053 0.103144 -0.047228 
-0.102606 -0.0669005 0.495343 

0.066316 -0.0701993 0.896167 
0.129699 -0.0260312 -0.106987 
0.00419318 0.00474945 0.109766 

-0.00900181 0.00250671 -0.0271467 
0.00637822 0.0100987 -0.0162528 
-0.00214304 -0.00247996 -0.00425296 

-0.0472411 0.197365 -1.06948 
0.0209846 0.0761118 -0.538381 
0.0366649 0.0319677 -0.00797058 

-0.0014583 -0.0444218 0.159708 
-0.00875348 0.0198808 -0.125883 
0.0147416 -0.00107593 0.0562204 

-0.199406 0.227726 -0.58129 
-0.20224 0.320966 0.0148099 
0.00446562 -0.0020185 0.0348448 

-0.0113994 -0.0283584 0.128837 
-0.00285826 0.0038943 -0.192945 
0.00012555 -0.000315193 0.0206589 

-0.110736 -0.211581 0.0833654 
0.00372006 0.185116 -0.0902618 
0.00736288 -0.0108957 -0.0725198 

-0.0291123 0.0579408 -0.154457 
0.0349367 0.0156061 -0.312833 
0.0132585 -0.0062983 0.0770738 

-0.04439 -0.0192228 -0.190396 
-0.00365059 -0.00893901 -2.07762 
0.0046394 0.00932893 0.103776 

-0.101898 0.130068 -0.0501329 
-0.215275 0.142062 0.630609 
0.00418473 0.0169635 0.0797178 

0.0198916 -0.00579348 -0.146695 
0.0300963 -0.107204 -0.13442 
-0.000568251 0.00957846 0.105276 

0.00160063 -0.0438304 0.141509 
0.051568 -0.00848077 -0.369063 
-0.000363118 -7.38099e-05 -0.00385265 

-0.149001 -0.115788 -0.720886 
-0.153728 0.000228624 -0.0752977 
-0.00270686 -0.0215993 0.125525 

0.00215552 -0.0186523 -0.000125471 
0.012339 0.000376903 0.00573608 
0.000113228 -0.000308364 -0.00558838 

0.00966465 0.0109505 0.00536042 
0.0318321 -0.0166274 -0.0191384 
-0.00182834 -0.000947434 0.00403198 

-0.0156121 -0.00833003 -0.135883 
-0.0122522 -0.00130017 0.309486 
-0.00877896 -0.00820373 0.149759 

0.0199468 -0.133932 -1.6208 
-0.0826238 -0.0323504 -0.456961 
-0.00140994 -0.000830932 0.143949 

-0.0353776 0.0398907 0.297563 
-0.0394752 0.0604835 0.133803 
0.00423132 -0.00370252 -0.000942589 

0.0217968 0.223952 2.43189 
0.179079 -0.0350152 -0.167808 
-0.0118604 0.0258133 0.137358 

-0.274215 0.744235 1.72437 
-0.0703131 0.217667 1.15679 
-0.0272144 -0.00619296 0.214414 

0.00706168 -0.0612668 -0.00823498 
0.0447256 0.0132453 -0.0783423 
0.0030878 0.000487857 -0.0943742 

-0.0168932 -0.0162293 0.624424 
0.0162939 -0.015993 -7.564 
0.000226975 0.00125828 0.234853 

-0.0502949 -0.0237005 0.319481 
0.00459318 0.0240318 -0.399703 
0.00110563 0.00139225 0.00798082 

-0.00448697 -0.106956 -0.132414 
0.0641647 0.0232996 -0.203756 
-0.147909 0.0203316 0.071836 

-0.0307852 -0.0910126 1.1665 
0.100808 0.0197689 4.17823 
0.000647181 -0.00291816 0.321634 

-0.0385596 -0.0462493 -1.59332 
0.00194627 0.000507696 0.872334 
8.92718e-05 0.000177604 0.160327 

-0.0240488 -0.0390343 2.54188 
-0.0292577 0.0625468 7.086 
-0.00738626 -0.00136653 0.117571 

-0.0113853 -0.00056697 -0.0372143 
0.02652 -0.0104855 0.0324954 
-0.0104393 -0.00498757 -0.0231537 

0.00355576 -0.0545863 4.23324 
0.14114 0.0757616 6.6452 
-9.14137e-05 6.84782e-05 0.288804 

-0.020016 -0.231792 0.469642 
-0.0101328 -0.0246955 0.253468 
0.000920309 -0.00270526 0.0055004 

0.047831 -0.0273364 0.106519 
0.221191 -0.10558 -0.746623 
-0.00056602 -0.0358496 0.0359674 

-0.0353108 0.049205 1.60393 
0.0919116 -0.0733919 -5.38662 
-0.000749912 0.00255774 0.322098 

-0.110409 -0.433859 0.232431 
0.0435005 -0.00163997 1.08508 
0.0228607 0.0210767 0.0974234 

-0.118374 -0.424789 0.298815 
0.35541 0.163665 0.172577 
-0.00455802 0.0163608 0.281382 

0.00767454 0.02078 0.0144168 
0.0177065 0.00712142 -0.00792508 
0.000475408 0.000530425 -0.0154187 

-0.0172906 -0.00435922 0.0152602 
0.0277899 -0.00169645 0.0207594 
-0.00184823 -0.000411566 0.0388053 

-0.00598448 0.00314637 -0.00800242 
-0.00549806 -0.00359198 0.0529699 
8.93043e-05 0.00110197 -0.00299851 

-0.00634486 -0.0134123 0.00524627 
-0.000417393 0.00465463 0.038939 
0.00167321 0.0002229 -0.00808021 

-0.0237675 -0.00493701 -0.093019 
0.0119505 0.00282147 0.0916057 
-0.066262 -0.0298597 0.496405 

-0.00741661 -0.0129245 -0.00075148 
0.0229769 0.00136674 0.0692236 
0.00481161 -0.00327213 0.0236878 

-0.0777152 -0.442324 0.545908 
-0.0420407 0.160531 -0.136919 
0.0171711 0.0155551 0.10839 

-0.00893914 -0.059742 0.0663377 
0.0467002 0.0135653 0.338848 
-0.00103058 -0.00301047 0.0248508 

0.00754195 -0.0624656 -0.130694 
-0.0103593 -0.00621728 -0.0518838 
0.0200099 -0.0142655 -0.166868 

-0.120342 -0.139012 -0.180782 
-0.163203 -0.022744 -1.31822 
-0.00400355 0.0498309 0.159248 

0.00841229 0.00414429 -0.00897629 
0.00757345 -0.00651423 -0.0332 
0.00301555 0.00298849 -0.0141035 

-0.0488613 0.00959288 0.0138363 
-0.0354759 0.00642711 0.0189678 
0.00427968 0.000204308 0.0585085 

-0.00180437 0.0723417 -2.05691 
-0.294335 0.0447654 -0.815937 
-0.0357062 -0.0496407 0.131286 

0.116888 -0.016583 0.0856175 
0.00495801 -0.0159901 -0.0111137 
0.0142196 0.00163884 -0.0219022 

-0.0478151 -0.148585 -0.487649 
0.0246462 0.0316831 0.0822268 
-0.00356897 -0.00412358 0.00394935 

-0.0717453 -0.139783 1.96691 
0.0812277 0.00558155 -2.63282 
-0.00187836 0.00501582 0.0824551 

-0.245701 -0.337871 -1.09746 
0.247278 0.139282 -0.307705 
0.0416257 0.0157107 0.178245 

-0.0111682 -0.0256112 0.00861066 
0.0201661 -0.000283345 -0.455809 
-0.00131871 -0.000544529 0.137874 

-0.137019 0.00450893 -0.40725 
0.304491 0.138972 -0.491095 
-0.0176118 -0.00851218 0.166311 

-0.0195632 0.0570874 -0.3886 
0.0220003 0.0191707 -0.0708563 
-0.0166797 -0.0123287 0.039841 

-0.154208 0.258328 -2.8671 
-0.245009 0.0814243 2.23899 
0.0289533 -0.0216915 -0.313052 

0.0151993 -0.0319333 -0.0288475 
0.0360911 -0.0141421 0.0288842 
5.90051e-05 -0.000911711 0.00363667 

-0.0382044 0.061996 0.335568 
0.210437 -0.010259 -0.179132 
0.00465594 0.00124206 -0.0420433 

-0.401991 -0.485198 -0.434522 
0.154871 0.486265 0.510356 
-0.0327041 -0.00163703 0.209783 

-0.00228044 -0.0206273 0.00708227 
0.0175549 -0.00249058 -0.0478311 
4.01285e-05 0.000930597 0.00919645 

-0.312929 -0.119802 0.567986 
0.045018 0.143348 0.241692 
0.0550629 0.00704049 0.298842 

-0.0220789 -0.017072 -0.00419319 
-0.00238528 0.00697903 -0.0153833 
-0.00385882 -0.000312724 0.0128998 

0.101619 -0.339839 0.133494 
-0.13868 -0.196911 0.115606 
-0.0197523 0.0159179 0.0453398 

-0.127724 0.00942193 -0.0998243 
-0.024504 0.0257021 -0.142312 
-0.0142498 -0.0308264 0.113477 

-0.185466 0.381234 9.00128 
-0.687494 0.743898 -1.76095 
0.0310057 0.0574673 0.979498 

-0.0591618 0.0197215 -0.0986697 
-0.0291575 0.00342109 -0.0105226 
0.00885273 0.00327873 0.0906386 

-1.5673 0.48979 -0.889932 
0.0941131 0.427603 0.254287 
0.0496314 -0.0913142 1.42397 

-0.298174 0.0380089 -0.125323 
-0.0873206 0.206521 -0.608616 
0.00590382 -0.00848137 0.0266907 

0.0138055 -0.131254 0.012829 
0.164674 -0.00286098 0.142733 
0.00153343 -0.000859153 -0.0351758 

0.0284566 -0.178951 0.463743 
0.195185 0.00143906 0.321319 
-0.0029727 0.000109551 -0.0367302 

-0.00568265 0.0238249 -0.0145609 
-0.034206 0.00225073 -0.0259951 
-0.000249365 0.000605108 0.00405305 

0.028519 -0.0174073 -0.0049204 
0.0419468 -0.0797635 -0.112093 
0.00442239 -0.00802312 0.0789138 

0.0138112 -0.0334806 -0.0995241 
0.107928 -0.0174616 -0.170682 
0.000538278 -0.000240323 -0.0206345 
