# vtk DataFile Version 3.0
Output file generated by Yade's KinematicLocalisationAnalyser
ASCII
DATASET UNSTRUCTURED_GRID

POINTS 13483 float
579.755 44.7938 0.428672
691.184 66.9951 -0.479237
118.049 6.09503 -0.43692
712.972 7.77116 0.455389
489.141 7.91758 0.327028
310.738 36.0036 -0.452022
153.734 7.03347 0.470333
553.237 11.3224 0.233204
487.239 27.4252 0.140441
650.471 17.3541 -0.533477
207.198 8.91585 -0.0928857
253.451 6.3651 -0.251993
614.091 54.1922 0.142052
596.072 22.2616 -0.149721
134.656 18.2123 0.483714
218.207 34.9436 0.386717
214.545 13.0675 -0.304047
285.493 9.57696 0.428928
336.34 34.9923 0.507032
511.838 8.53926 0.349446
405.692 37.5175 0.113583
560.533 56.0394 0.331198
712.243 43.2474 -0.466148
656.998 62.504 -0.353211
450.644 17.5135 0.329186
237.897 45.5294 -0.129415
482.101 30.3754 -0.46519
568.243 22.8973 -0.29153
44.372 14.9586 -0.475278
660.273 51.9333 -0.511353
473.437 5.11529 0.410198
16.7606 23.7434 0.340147
704.516 68.983 0.255712
484.987 2.59988 0.458591
77.1584 45.4992 -0.100796
511.05 34.1699 -0.335757
516.91 17.0967 -0.415093
339.416 23.5266 0.178685
521.72 28.6831 -0.317239
346.297 35.4918 0.525309
237.808 14.5224 0.335752
426.295 41.4235 0.0972107
615.521 7.51697 0.319875
189.617 6.22914 0.35625
54.8836 7.05667 0.0825948
67.9319 9.05422 -0.305835
629.75 7.59553 0.60911
22.8106 11.9466 -0.270497
574.708 69.3588 -0.352965
632.989 52.6982 0.320193
169.465 33.0379 0.320724
691.878 52.4358 -0.120233
34.7235 28.6708 -0.11897
521.083 2.98535 0.333541
139.8 7.41223 -0.494466
569.208 47.7698 0.43702
495.242 31.1452 0.113598
172.303 0.954938 -0.272775
32.0527 2.36672 -0.339437
344.665 17.9603 0.255118
587.361 75.8359 0.134171
452.818 34.126 -0.208575
394.613 1.03122 0.201339
635.887 15.0036 -0.463684
26.8568 44.0332 0.23641
252.612 31.4102 -0.305419
648.497 11.9708 -0.34866
627.278 81.1354 0.358195
413.084 8.53534 -0.514984
553.568 4.92037 0.535872
672.117 42.2079 0.467458
128.738 7.81539 0.285147
490.762 28.7102 -0.14252
470.098 15.8194 0.0891775
291.469 16.7668 -0.361873
20.1399 13.9103 0.294894
713.276 63.3637 0.317889
329.388 40.5893 -0.313918
632.465 43.8618 0.380303
628.956 12.2687 0.303639
704.281 20.2679 -0.25721
456.145 36.2255 0.183401
91.8684 40.4277 -0.279025
645.075 69.8087 -0.285588
607.846 63.4012 -0.102292
713.697 54.6834 -0.13362
701.585 2.60839 -0.699101
288.789 30.6172 0.429963
597.551 5.94866 -0.122015
24.0549 5.43572 -0.586575
131.814 40.02 0.17173
502.359 15.9079 0.176834
696.049 41.4486 0.492969
192.94 29.4584 -0.243824
44.0875 35.3444 0.342654
483.866 1.29521 0.140719
233.061 8.66579 -0.443001
670.401 54.1418 -0.380265
688.126 40.818 0.26213
357.02 21.6509 -0.263629
160.695 28.1967 0.447428
532.465 45.4289 -0.400454
376.379 15.8598 -0.514131
410.852 31.4482 -0.0926064
374.485 4.57851 0.39008
535.338 11.5964 -0.19474
717.295 12.778 -0.349467
79.7627 40.4652 -0.388943
332.425 4.93972 -0.225846
548.043 10.1479 -0.558512
357.904 45.3552 0.466692
25.4634 25.6678 0.470669
30.0178 5.85468 0.298918
550.884 36.2989 0.432913
496.464 27.9438 -0.145113
26.3129 37.6249 0.365712
93.1819 32.6969 0.23956
322.84 16.5372 0.287353
576.273 25.903 0.141101
468.294 40.2461 0.305267
661.144 8.51671 -0.673266
655.265 6.06269 0.24292
384.624 37.8161 -0.0996715
598.543 43.5311 -0.135777
236.324 17.3129 0.542669
327.861 3.85594 0.468272
102.697 32.8538 -0.403979
115.264 25.4433 0.25462
528.788 47.4779 -0.0894679
304.328 18.5728 0.532614
655.037 42.7292 0.104851
632.412 81.4862 -0.107785
474.741 22.9974 -0.40677
686.995 9.13504 0.437076
425.063 25.4294 -0.216933
276.417 24.2929 -0.303929
636.183 67.6707 -0.295413
277.57 29.3664 0.393172
561.942 15.6115 -0.236568
330.744 37.4445 0.220616
496.638 12.835 0.554419
364.697 32.6113 0.0869935
427.61 18.0371 -0.113046
316.631 43.0608 0.433634
189.154 30.8722 -0.133781
695.661 66.9811 0.17228
715.362 16.4838 -0.373814
5.89566 12.6918 0.423987
430.346 24.5008 -0.455071
38.2668 23.1052 -0.0761385
375.215 32.3214 0.483538
393.677 24.9708 -0.272571
74.3641 11.9653 -0.502531
51.5253 33.9149 -0.466306
224.798 13.5619 0.455549
588.44 66.8166 0.394953
564.536 24.2292 -0.492959
75.1689 21.1569 -0.504687
661.33 61.5623 0.452771
676.968 5.25561 -0.514129
624.478 72.0227 -0.507173
635.945 4.14739 0.614742
536.036 30.6532 0.426971
561.575 55.1471 -0.607033
504.883 20.0767 -0.489983
710.369 3.81754 0.270862
222.948 25.1005 -0.125165
127.501 37.3748 -0.215253
246.451 6.71625 -0.43434
93.9872 4.68123 0.288442
64.2343 10.1773 -0.23316
275.342 36.3775 -0.338167
17.0534 25.3843 -0.387725
545.411 21.5108 0.408845
577.176 64.4636 -0.185073
460.057 23.0138 -0.35793
715.613 84.6246 -0.118934
406.306 8.65615 -0.126378
432.453 41.4873 0.412131
529.502 3.33948 -0.19296
22.141 25.0456 -0.404966
564.322 6.0684 0.547099
538.799 4.4686 -0.279514
205.585 11.2643 0.497486
423.713 16.7296 -0.194456
311.615 6.58369 0.31785
387.56 19.1936 -0.335702
688.85 75.8029 -0.103359
192.173 26.1329 0.485919
695.628 10.14 -0.421723
686.545 70.9625 0.332148
382.771 10.5872 0.185816
646.262 4.27113 0.562093
579.022 37.3449 -0.455581
662.448 25.5459 -0.44268
427.955 48.449 -0.283649
491.439 13.4432 0.480215
461.44 46.2941 -0.236368
444.426 8.80552 -0.18017
626.586 74.4401 0.275141
626.323 67.1573 0.331043
191.716 40.0175 -0.34488
702.215 20.6675 -0.0921352
562.476 56.4608 0.249664
11.8993 16.7516 0.185857
409.492 25.1452 0.389269
187.117 23.8557 0.406929
93.5146 41.419 -0.216264
692.421 34.204 0.482956
619.493 73.91 -0.235641
319.882 26.743 0.358755
525.997 10.0509 0.329476
82.2266 45.8138 -0.180424
247.221 26.0591 -0.472383
545.792 26.7077 0.4182
484.198 20.8708 0.4351
262.896 0.884903 -0.343354
541.198 43.9578 -0.572288
523.601 52.8544 -0.446484
479.651 36.0959 0.408178
495.711 1.93495 -0.662341
639.042 29.4566 -0.382677
179.147 12.5618 0.171368
498.282 41.782 -0.458187
549.026 45.6545 0.111991
73.1353 0.973657 0.274267
251.687 4.80795 0.179529
714.813 18.3813 0.315154
704.788 22.1318 -0.476655
718.951 19.6914 -0.577377
304.19 8.64228 -0.233713
671.265 31.7332 0.428595
404.348 43.8184 0.321878
448.644 0.816764 0.462948
614.488 63.6187 -0.532935
27.0786 31.4931 -0.304242
331.185 43.5023 0.588039
252.535 2.94097 0.354227
709.437 70.7444 -0.190255
658.837 83.61 0.237558
287.939 10.9549 0.268795
629.394 58.7774 -0.0981189
549.443 2.70797 0.242025
535.251 7.95425 0.6036
96.9549 18.654 -0.535003
304.09 1.04535 -0.231886
343.513 2.27556 -0.360513
13.8925 7.55966 -0.473016
4.46425 32.5818 0.261185
161.732 18.8709 -0.361787
68.4276 42.4085 0.207411
67.3215 29.3988 -0.324821
424.018 14.882 -0.47062
367.973 36.0125 0.473408
689.413 53.4573 0.12613
19.4917 4.0885 0.283942
70.8809 7.07092 0.149796
591.824 54.2355 -0.155004
295.521 0.933589 0.392118
365.445 16.3599 -0.106475
235.731 4.63875 0.398656
617.357 45.7619 -0.177134
451.273 8.34933 0.533941
672.818 31.8982 -0.380871
599.98 47.4388 0.306403
633.711 41.6021 0.105624
421.832 29.2372 0.485256
102.384 47.2996 -0.310012
533.46 49.3609 0.083109
661.383 18.4546 0.381742
238.51 31.6527 -0.260729
31.9992 17.1605 0.189584
336.887 14.088 0.493046
107.535 42.4573 0.458733
268.419 42.7541 -0.221887
427.016 2.13381 -0.296014
698.506 45.7209 0.420847
630.821 0.745755 0.652785
332.904 3.42321 0.585608
300.81 27.083 0.155807
460.465 43.0546 0.232734
82.0076 8.20678 0.493668
197.973 45.9493 0.379226
690.94 46.5903 -0.374618
493.233 43.6647 -0.0815777
200.316 41.8745 -0.291766
160.896 43.2904 0.196118
716.354 49.9665 0.412652
716.765 15.2831 -0.593928
590.44 4.22674 -0.612169
190.443 26.1258 -0.0966794
535.036 32.3261 -0.0958522
539.106 30.7868 0.252772
410.749 5.62532 -0.148067
478.798 1.26745 0.302499
686.623 55.5595 0.471646
85.747 32.2922 0.228794
620.492 41.751 -0.541539
275.508 15.8397 -0.349935
9.42826 2.39573 0.326503
126.038 38.9816 -0.194856
67.7106 23.4555 0.501599
651.722 49.2698 0.398904
704.915 78.4155 0.181671
185.337 29.5485 -0.174426
710.468 16.9301 0.449596
45.6059 37.4626 -0.265784
91.9587 31.0963 0.156614
603.439 26.7031 -0.456043
416.026 17.5719 -0.458856
514.124 17.6043 0.146694
238.925 29.7413 0.197725
601.445 8.27 0.484258
718.47 11.5127 0.424508
30.0284 32.5186 -0.280347
271.264 7.83278 0.186292
222.619 15.5701 -0.275464
1.07071 37.2057 0.145839
225.842 14.3601 -0.443582
212.067 11.1083 0.123001
214.578 26.5211 0.271013
133.724 29.3522 -0.127448
540.278 16.878 -0.345435
167.056 14.2601 0.381053
704.151 66.9984 0.231698
174.29 3.85409 0.506922
47.7505 38.6261 -0.453457
697.03 81.2207 -0.426135
282.503 32.6653 -0.391601
635.674 47.9864 0.460016
705.303 47.4103 -0.5506
302.241 9.27513 -0.103025
662.502 44.095 -0.33985
329.876 2.47646 -0.44241
417.61 26.5975 0.363594
625.992 25.8356 -0.515968
106.172 12.3173 -0.421739
480.759 3.84431 -0.62561
674.301 27.3257 0.22411
88.7016 7.82727 -0.31132
283.229 14.8348 0.192838
425.113 12.3872 -0.240241
710.34 5.50559 0.618075
399.576 2.02205 -0.524561
176.944 39.9358 -0.331591
664.778 16.6618 -0.390992
129.312 38.3561 0.20499
264.17 31.6964 -0.430015
402.834 21.5683 0.219866
564.532 17.1454 -0.390493
388.601 10.0041 -0.4962
455.213 29.1466 -0.412984
690.964 68.5461 -0.374698
47.8219 10.9279 0.115192
300.602 40.1075 -0.316497
380.856 26.6042 -0.413133
412.154 21.2433 -0.268755
513.118 58.8031 0.356112
679.743 52.0096 0.263172
631.212 68.5046 0.353455
226.387 35.4432 0.347515
13.6206 32.8334 0.152221
624.932 68.5085 -0.14603
508.121 46.9435 0.523321
230.323 40.5672 -0.117546
642.894 62.8833 0.109445
151 9.54569 -0.193858
367.29 21.853 0.282889
462.162 44.2634 0.116748
416.264 20.2592 0.207741
687.734 67.1224 -0.343219
428.228 4.56078 0.585433
49.8031 26.3313 -0.328211
468.677 33.8188 0.32618
434.402 46.4788 0.36053
709.742 64.6474 -0.257621
666.548 60.0622 0.218986
535.598 19.1581 -0.168916
699.836 60.9415 -0.452731
295.158 2.19964 -0.499765
380.033 30.8018 0.59174
29.3891 39.601 -0.310171
662.128 49.3805 -0.201774
584.965 28.4138 -0.536186
462.149 0.785184 0.453435
125.981 4.77088 -0.3563
425.672 45.9272 0.101618
11.8245 0.900205 -0.317188
709.755 9.89348 0.0815583
372.007 39.8834 -0.446113
[...]
POINT_DATA 13483
TENSORS Strain_matrix float
-0.477056 0.65019 -2.91941 
-1.00365 0.715798 -0.0705629 
0.0342912 -0.0322299 0.140881 

-0.142426 0.298651 3.83279 
0.0451542 0.170071 -2.20941 
0.0107719 -0.0133959 0.189097 

-0.0142902 -0.00995027 0.00497343 
0.00467341 0.00445672 -0.0867638 
-0.00596024 -0.00789167 0.433946 

0.023703 0.0358322 -0.101886 
-0.115597 0.00465648 -0.0387899 
0.00347718 0.00445627 0.000546839 

0.000418571 -0.0148544 -0.0464915 
0.0389587 0.0507089 0.0289156 
0.00238506 0.0022887 0.0359021 

-0.00591525 -0.0320071 0.234161 
0.0112559 -0.00314167 0.0130486 
0.000390957 0.000456431 0.00136305 

-0.00765755 -0.00373058 -0.0371954 
-0.00772644 -0.00261902 0.521589 
-0.00101193 0.000371337 0.131645 

-0.15968 0.0693182 0.288753 
0.106886 0.0498526 -0.148883 
0.0342572 0.0396111 0.330889 

0.054747 0.216044 0.357859 
0.0428929 0.00348803 -0.189739 
-0.00985955 -0.0254783 0.0328286 

-0.151307 -0.00854914 -0.11278 
-0.23662 0.108028 0.104452 
0.0250181 -0.00359523 -0.0176124 

-0.0110064 -0.0123354 0.0122849 
0.0192316 0.000231559 -0.00778761 
-0.000441254 -0.000385978 0.0218913 

-0.00793745 -0.00358973 0.00574637 
-0.000181764 0.00384239 0.000879233 
0.000581246 0.000464157 -5.75902e-05 

-0.572443 -0.121854 -0.150001 
-0.0313397 0.349406 -0.0525689 
0.0367755 0.0481695 0.289286 

-0.0574843 -0.392089 -0.468679 
0.342108 0.0927995 -0.422089 
-0.0393334 0.0398495 0.45339 

-0.0246106 -0.00557398 -0.275776 
0.044955 0.0192243 -0.281294 
0.000917714 3.53765e-05 0.0970383 

-0.0396316 -0.0143733 0.154423 
0.0428397 -0.00695157 -0.0284009 
0.000139806 -0.00179324 0.0355905 

-0.0114353 -0.0110015 -0.00101586 
0.00363644 0.00240205 -0.00664012 
0.000200424 0.0012372 0.0103972 

-0.0173447 0.00344279 0.0111034 
-0.00246845 0.00528215 -0.0129255 
-0.000317442 0.000651123 0.0188078 

-0.106839 -0.0205055 -0.850219 
0.0605076 0.033423 -2.03514 
-0.0299676 0.00596513 -0.023129 

-0.0676855 -0.0865179 -0.304024 
0.0143739 0.036288 0.0311174 
0.0221196 0.012974 0.0455544 

-0.0133854 -0.0944693 -0.0169344 
0.103957 -0.000702483 0.00403211 
0.00227674 0.001198 0.0514838 

-0.0476806 -0.205689 0.343321 
0.452929 0.273269 -3.35382 
-0.0335631 -0.0812768 0.0466499 

-0.0890139 -0.102119 1.00593 
0.079654 0.134094 -0.858453 
0.00177123 -0.00248498 0.151089 

-0.0685311 0.231893 3.08694 
-0.22462 0.0727461 0.467897 
0.0397532 -0.00274988 0.422178 

-0.0162643 -0.0838165 0.112574 
0.106572 -0.00969488 0.0932237 
-0.00133932 -0.00162782 0.0714089 

-0.0205464 0.00236548 0.0713298 
-0.00718679 0.017273 -0.0517293 
-0.00454268 -0.0187806 0.0491417 

-0.0401119 0.0878881 -0.493731 
0.0430338 0.0242064 -0.832049 
0.000833964 -0.000871594 0.112193 

-0.09907 -0.289924 -0.774043 
0.26339 0.170846 -0.625542 
-0.019813 -0.0270519 0.0662075 

-0.0100088 -0.00287953 0.00397237 
9.35672e-05 0.00600433 0.0863338 
-0.000280418 0.000274321 0.0185115 

-0.0819328 0.422813 0.008526 
-0.222774 0.164459 -0.584871 
0.0427068 0.036811 0.109566 

-0.00586384 -0.00386139 -0.0210545 
-0.00999972 -0.00408796 0.0124074 
4.70823e-05 0.000390445 0.00425594 

-0.00218068 -0.00138 -0.0215338 
-0.0198764 0.0179161 0.00482851 
0.000338625 -4.28877e-05 -0.0240948 

-0.103792 -0.190761 -0.732328 
0.07771 0.112162 0.330245 
-0.00391776 0.00634643 0.107956 

-0.00967376 -0.00708022 -0.0150809 
0.0147264 0.00909017 -0.0134682 
-0.000702527 0.00306404 0.0040073 

-0.00631049 -0.0163539 -0.00364665 
0.0150694 0.00213411 0.00117502 
0.000280078 -9.05002e-05 0.00550004 

-0.337939 0.165229 -0.64688 
-0.251308 0.247004 0.966499 
0.0232409 -0.000469985 0.126562 

0.00287669 -0.0159913 0.127732 
-0.0604461 -0.0207915 0.0791659 
0.0127956 0.00782957 0.10519 

-0.0507805 0.0124478 -0.217039 
0.0365982 0.0949836 0.16197 
0.0131506 0.0213044 0.00421988 

-0.019371 -0.130674 0.0354808 
0.098216 0.0206481 0.121929 
0.00777391 0.000504058 0.0492479 

-0.0389544 0.00937224 1.29316 
-0.0313498 0.0462304 -2.15752 
-0.00265159 9.55137e-05 0.154412 

-0.0486871 -0.015108 0.0353278 
0.0170451 0.048113 -0.109555 
-0.00434223 0.0027182 0.0801341 

-0.0678369 0.0446013 -0.000555324 
0.0180757 0.0183652 -0.0692553 
-0.00699493 0.0107758 0.249436 

-0.32957 0.553239 -0.826551 
-0.545078 0.494294 0.240233 
0.0411966 -0.0465356 0.124408 

-0.038099 0.0524653 0.202328 
-0.0511369 0.0220016 0.977637 
0.00934792 0.00665464 0.282259 

-0.0101815 -0.00275587 0.00406266 
0.00274377 0.00184239 0.00697278 
0.000680455 0.000851191 0.0143255 

-0.00957523 -0.00302488 -0.00512075 
0.0157011 0.00228963 0.00998112 
-2.8674e-06 5.46035e-05 0.00725559 

-0.0185377 -0.217602 0.425247 
0.103271 0.086699 1.37213 
0.00217893 0.000157576 0.0811036 

-0.00263309 0.000639514 -0.00197507 
-0.0050511 0.000239011 0.00753334 
-0.000105712 0.000588758 0.00187063 

0.0802304 -0.092273 0.177417 
0.238335 -0.03313 0.515239 
0.0569976 0.0539556 0.0188232 

-0.177199 -0.402246 1.86714 
-0.104642 -0.0135146 -0.55814 
0.00606637 0.0308383 -0.0593869 

-0.00391325 -0.00874493 0.0124407 
0.0277229 0.00471781 0.0119209 
0.000394871 0.00187302 -0.00135255 

-0.0448352 0.0310545 0.091585 
-0.0672072 0.0767576 -0.304719 
0.00294084 0.000957704 0.057978 

-0.0130964 0.0656361 0.0801474 
-0.027756 0.0447328 0.116607 
-1.0286e-06 -0.00188373 -0.00234356 

-0.00198341 -0.0399653 0.0484247 
-0.019623 -0.0165828 0.041757 
-0.00285308 0.00405427 0.040604 

0.00579462 -0.00373226 -0.29781 
0.0264736 -0.0342809 -0.34722 
-0.00360734 -0.00590956 -0.0158186 

-0.0636857 -0.188433 -1.84328 
0.353951 0.153547 -1.48692 
0.0254395 -0.00134706 -0.266715 

-0.0785419 0.350313 -0.561784 
0.0844205 0.0320839 -0.331851 
-0.0265137 0.000575161 -0.0339849 

-0.00394272 0.0897138 -0.0345134 
0.00293364 0.0140143 -0.00973764 
-0.00654548 -0.0572232 0.132256 

-0.00597319 -0.00236609 -0.0195805 
-0.000160451 0.000136131 -0.013549 
0.00040351 0.000358393 0.0115056 

-0.048038 -0.0719558 0.370909 
0.0433095 0.0978774 0.350433 
-0.0412436 -0.00039087 0.161584 

-0.0287584 -0.460725 -0.322216 
0.0703772 -0.431581 -5.82696 
0.000140253 0.00201105 0.169045 

-0.00623547 0.0317222 0.000140079 
-0.0333185 0.0090901 -0.00599736 
-0.000376266 -0.000760213 0.0184256 

-0.00149159 0.0108796 0.00507244 
-7.13181e-05 0.00381985 0.00518755 
6.09952e-05 -0.000345641 0.00162866 

-0.0484025 -0.0856968 -0.131549 
0.0520217 -0.00865467 0.44445 
0.012108 -0.0201527 0.0544395 

-0.00346844 0.000973743 0.00555499 
0.00359088 -0.00122029 -0.0142784 
-8.44397e-06 6.29341e-05 0.00222269 

-0.00998988 0.00699509 0.0352188 
-0.00384697 0.00121337 0.0285916 
5.32731e-05 -0.000666086 0.00960049 

-0.120148 0.0099026 -0.0145477 
-0.320471 0.136478 -0.0260715 
-0.0304067 0.0982237 0.367799 

-0.21983 0.75416 6.58721 
-0.110782 0.125326 -0.276745 
-0.00124032 0.000813595 -0.0609926 

-0.013087 -0.00611226 0.29752 
-0.0187008 -0.00995064 0.0325123 
-0.0014131 -0.000211177 0.0480146 

-0.243288 -0.0223886 -0.122852 
0.281933 0.109152 0.48244 
0.0155681 0.0479205 0.389228 

-0.0308056 -0.0489077 -0.222062 
0.0325408 0.018735 -0.513558 
0.00871422 -0.00293514 0.0589308 

-0.0134078 -0.00290643 0.0457502 
-0.00174844 0.00549981 -0.0444005 
2.55904e-05 0.00021549 0.0243552 

-0.154365 0.0968386 0.02319 
-0.0456351 0.117384 0.133943 
0.000280636 -0.00379891 0.0493803 

-0.0165704 0.00377106 0.0173359 
-0.00781476 0.00619725 0.014126 
0.000313076 -0.00299196 0.0336669 

-0.00954519 0.00518783 -0.0158221 
-0.000744465 -0.00109105 -0.0380246 
2.74822e-05 -0.000612766 0.0246422 

-0.0173363 0.0156967 0.00200763 
-0.00189513 0.00885359 -0.0107284 
-0.000990879 -0.00151502 0.00900652 

-0.200253 0.439571 -0.931989 
-0.102049 0.43679 -0.94198 
0.00509217 0.00648439 0.167561 

-0.00983188 -0.0583583 0.0615865 
0.0693022 0.00111173 0.00574735 
-0.000170704 0.000287816 0.0346612 

-0.193411 0.0501871 -0.232887 
-0.0861671 0.108621 -0.714554 
0.0131639 0.00961202 0.126443 

-0.200838 -0.302828 -0.333905 
0.162881 0.281843 0.706634 
-0.00703029 -0.0164741 0.15268 

0.0447613 0.112123 -0.0230227 
-0.0833324 0.0127128 0.0641035 
-0.00571929 -0.00071442 -0.0377829 

-0.00269147 0.0298178 0.0965134 
-0.0338906 0.00107144 -0.0210009 
1.32544e-05 0.001084 0.00942023 

0.00859501 -0.0119991 0.0119349 
0.0130064 0.00556313 0.0921199 
-0.0210165 -0.0141291 -0.0691931 

0.0435726 0.18954 -0.18454 
-0.267947 0.0217532 0.475333 
0.0184169 -0.0112163 0.043445 

0.0183179 -0.191322 -0.056203 
0.210571 0.0167497 -0.0134382 
-0.000245728 0.00305196 -0.0116626 

-0.00771056 -0.0200196 -0.0322937 
0.00761802 -0.0289045 0.32836 
-0.00211534 0.0149517 0.170522 

-0.00978346 -0.0107047 1.40416 
-0.0527845 0.0631767 -0.566554 
-0.0038718 0.00162049 -0.109673 

0.00185994 -0.00789903 0.0124133 
0.0132318 0.0065527 0.00762722 
0.000827741 1.12607e-05 -0.0139322 

-0.0475821 -0.292915 0.337843 
-0.0111218 -0.179086 0.0609742 
0.00336786 -0.0151814 0.144707 

0.0115932 0.336568 90.343 
0.00227546 0.024691 4.33134 
-0.000128181 -0.0020463 -0.323979 

-0.0127974 0.00158926 -0.0322942 
-0.0141607 0.00412643 -0.034904 
-0.00761862 -0.00671558 0.083167 

-0.042473 0.142246 -0.0929717 
-0.221845 0.045907 0.169005 
-0.00329047 -0.0052186 0.00636997 

0.00800896 -0.0565978 0.63979 
-0.0361448 -0.00322416 0.569844 
0.00216175 8.49908e-05 0.0290292 

-0.00205978 0.0189886 -0.00765117 
-0.0253639 -0.00169126 -0.00734458 
0.000298179 0.00123344 0.0119586 

-0.00999415 0.0089454 -0.0143263 
-0.0148746 -0.000420291 0.00829019 
7.21958e-05 -0.000908359 0.0179554 

-0.00509322 0.00727121 -0.0260146 
0.00454493 0.0214786 -0.0184144 
0.000128024 -0.00354987 0.00390578 

-0.0172996 -0.00162484 -0.0362436 
0.0079462 -7.77633e-05 -0.115618 
-0.00213288 0.00186438 0.0330019 

-0.0439956 -0.0156783 -0.0215306 
0.0164702 0.0304664 -6.46223e-05 
-0.00239123 -0.00103349 0.00755347 

-0.0668234 0.136202 0.126858 
-0.201846 0.0487092 -0.217535 
-0.0113502 0.00142173 0.0463264 

-0.0253836 0.0609937 -0.547638 
-0.0828056 0.0555132 0.641472 
-0.0233051 -0.00793793 -0.0367578 

0.000827454 -0.0492184 0.158865 
-0.00317606 -0.0124151 -0.0349211 
-0.00114271 0.00182198 0.010828 

-0.00924895 0.244829 -0.25271 
-0.320839 0.151955 0.0930263 
-0.0228033 0.00659316 0.109569 

-0.00475061 -0.00458646 -0.138375 
-0.01132 -0.00152026 0.0928717 
0.00032013 0.00104844 0.00473631 

-0.0464201 -0.00166816 0.194751 
0.0125519 0.0622011 0.127443 
-0.0108572 -0.00957171 0.0568266 

-0.0462909 -0.0209675 -0.0215824 
-0.1208 0.0194651 0.245558 
-0.010852 -0.00262834 0.097073 

-0.048154 0.0663316 -0.0444065 
-0.0601585 -0.0257747 -0.114277 
-0.0144598 -0.0221686 0.226239 

-0.0312375 0.0869025 0.00568526 
-0.149238 0.0324227 -0.174169 
-0.00135162 -0.0159948 0.0233296 

-0.00821091 -0.0131313 0.0340926 
0.0124493 0.00240478 -0.0122058 
-6.97298e-05 0.000751689 0.00303836 

-0.0196051 0.00766896 -0.00535896 
0.0190271 -0.00900923 0.00515533 
0.00255893 0.000229764 0.0481939 

-0.104718 0.0652799 -0.134161 
-0.0947541 0.0440165 -0.937851 
-0.0154507 0.00482464 0.272509 

-0.0310103 0.0123787 -1.89552 
-0.020678 0.00609342 -1.77061 
-0.0100964 0.00853194 -0.139831 

-0.0125697 -0.00216384 -0.0155602 
0.0061341 0.00150595 0.0688929 
-0.00226043 -0.00247801 0.0410954 

-0.00926844 0.00241826 0.0146426 
-0.00356145 0.00317366 0.0122879 
-0.000814627 0.000368236 0.00300425 

0.215715 -0.307065 0.0466023 
0.24596 -0.0521284 0.672537 
0.0154388 -0.00190195 0.0893847 

0.0486481 0.0388562 -0.000179117 
0.215462 0.0138146 -0.0412348 
0.0108125 0.028921 -0.0311223 

-0.00431061 -0.0012221 0.00422708 
0.00766196 -0.00194999 0.038461 
1.58563e-05 -0.000493333 0.0132472 

-0.000190055 -0.0241087 0.00703316 
0.0299474 -0.00899966 -0.00188332 
0.00113915 0.000997559 0.00815314 

-0.0030372 0.0231568 -0.14667 
-0.0113491 0.00180932 -0.0856771 
0.00594687 -0.00170908 -0.00823599 

-0.1927 -1.12218 1.52919 
0.398155 0.0873822 -0.439428 
0.00588217 -0.0156719 0.123869 

-0.00393871 -0.00406046 -0.0217825 
0.00942992 0.00208124 0.0156444 
0.000385602 9.18396e-06 0.00147572 

0.00775281 -0.01775 0.259228 
0.0246224 0.0216397 0.901348 
0.00055806 -0.00174293 0.106589 

-0.0228643 -0.0352412 0.100872 
-0.0407753 0.0215634 0.0234638 
-0.00663163 -0.00459732 -0.0397188 

-0.000336035 0.0110397 0.0303327 
-0.00319859 -0.00215106 -0.024743 
1.60895e-05 0.00216032 0.021437 

-0.0324286 -0.0596604 -1.11262 
0.137468 0.0384599 -1.11776 
0.00781934 0.00208841 0.0888696 

-0.0240979 -0.00221009 0.452389 
0.00944631 0.0205224 -0.341572 
0.000237339 -0.00244293 0.147628 

-0.0122649 -0.000839513 0.0604207 
-0.0151902 -0.0138172 -0.0216467 
0.000702967 -0.00252346 0.0525818 

-0.0364435 0.0352403 -0.0746478 
-0.0448803 0.00227905 0.00639996 
0.0476648 -0.0172802 -0.094486 

0.012723 -0.00995587 -0.0252948 
-0.0429943 -0.0319174 0.115432 
0.00454298 -0.00638148 0.0419224 

-0.0043868 0.27022 -0.101665 
-0.300053 0.135607 -0.225364 
-0.00109835 -0.00559361 -0.055213 

-0.0413241 0.0308452 -0.114092 
0.0674877 0.00452633 0.0944515 
-0.00195532 -0.00134507 0.0746491 

0.0160012 0.162986 -0.0215246 
-0.194578 0.0273324 0.0406526 
0.00246478 0.000251614 -0.0488503 

0.0743295 0.0893747 -0.0667969 
-0.0363745 -0.048488 0.189529 
0.00746587 0.017422 0.0574012 

-0.0198511 0.0311077 0.0951648 
-0.0215574 0.0281922 -0.68136 
-0.000834841 0.00192202 0.0227429 

-0.324827 0.268489 0.00221303 
-0.301281 0.244695 -0.0626458 
0.00298725 -0.0201259 0.0692912 

-0.17676 0.218645 0.121796 
-0.0658256 0.243885 -1.28054 
0.0110467 -0.0119836 0.0187345 

0.0076286 0.00888091 -0.00711093 
0.00447735 0.0101991 -0.00148029 
0.000339753 0.000455107 0.00538804 

-0.00783591 0.173094 0.395013 
-0.169808 -0.0404229 -0.517855 
0.011785 -0.00476433 0.045775 

-0.000763395 0.0156661 0.162578 
0.00698568 0.0155343 0.0205721 
-0.000483776 0.000227653 0.000123562 

-0.141392 -0.0341539 -0.102326 
0.23062 0.106334 -0.0724379 
-0.0141533 -0.0640812 0.496498 

0.000241802 -0.0551862 0.017354 
0.0643532 4.38647e-05 0.0114044 
-0.0122645 -0.00438327 0.0389469 

-0.0547692 -0.0105373 0.548761 
0.037018 0.00559838 -4.24172 
0.0297221 -0.038522 0.301823 

-0.00412176 0.0921937 -0.0336911 
-0.104572 0.0104961 0.014083 
0.0380906 -0.0334658 0.172559 

0.0782759 -0.198572 0.201042 
0.209871 -0.103286 -0.310579 
0.00902667 0.0271176 0.042997 

-0.0132973 -0.0203655 -0.0935067 
0.0209636 0.0144044 0.260853 
-0.000120772 -0.000862228 0.0137868 

-0.00127412 0.0320531 -0.0172013 
-0.012939 -0.00214229 -0.0992843 
-1.03323e-05 -0.0012012 0.0313288 

0.0164226 -0.0728876 -0.0767939 
-0.0592236 -0.0710922 -0.416575 
0.000681677 -0.00220494 0.0204434 

-0.00728588 0.000857398 0.123294 
0.000449731 -0.049264 -0.119944 
0.00017351 -0.0047282 0.0876627 

-0.00798784 0.00385632 -0.0171544 
-0.00473713 0.00340504 -0.00648151 
-0.000221675 0.000352163 0.00521341 

-0.0459423 0.0809652 -0.0962254 
0.042267 -0.0242823 -3.04331 
-0.00020173 0.00180205 0.0822655 

-0.00717658 -0.0182187 -0.0434155 
0.0149106 0.0177295 0.0148384 
-0.000205356 0.000364587 -0.00369139 

-0.0180226 0.0543541 0.332235 
0.0134393 0.00190812 0.430626 
-0.000544642 0.000500046 0.0401551 

0.019042 0.0507169 -0.0200067 
-0.0179735 -0.0167875 0.00894335 
-0.0272108 0.00825237 0.00441304 

-0.00917262 0.00269578 0.0587933 
0.00367475 0.00178399 0.307761 
0.000535108 0.00107678 0.0274104 

-0.0123064 0.00604001 -0.0425516 
-0.00453677 0.00103324 -0.0480048 
0.000406083 -0.000219784 0.013972 

-0.00125935 -0.00862224 0.00649314 
0.00864299 0.0107499 -0.47171 
-0.000274004 -0.000543787 0.109547 

0.0603162 -0.420442 0.172084 
-0.0611973 -0.0347433 -0.184714 
-0.0686903 0.109862 0.516487 

-0.275586 -0.0662776 1.70139 
0.02229 0.251682 -0.123057 
-0.020554 -0.0192858 -0.132052 

-0.00149384 0.0113863 0.0501606 
0.00369049 0.00348546 0.218736 
-0.000269307 0.000170183 0.054958 

-0.129383 0.184202 -5.13421 
-0.0297774 0.0834732 1.81149 
0.00421653 -0.0133896 -0.307022 

-0.0127323 -0.0810869 -0.216869 
0.400509 0.0523997 -0.57265 
0.0101666 -0.0119347 0.10848 

-0.105442 0.217114 -9.55811 
-0.0346687 0.29412 -6.1957 
-0.0101472 0.00703084 -0.327144 

-0.291046 0.203366 -0.223615 
0.131829 0.13636 -0.582221 
-0.00614032 -0.0459647 0.244575 

0.0450987 -0.818565 1.32233 
0.188904 0.344599 -0.0279466 
0.0196902 -0.00473031 0.124261 

-0.127801 -0.135834 6.1002 
0.154625 0.103426 30.178 
-0.00919317 0.00272406 1.62885 

-0.205836 -0.090697 -0.784905 
-0.0531236 0.122878 0.0628701 
0.0066354 0.00421637 -0.0233731 

0.0233118 0.0340403 0.0111649 
-0.0249881 -0.0318279 -0.155948 
-0.0210771 -0.0510522 0.278342 

-0.000447718 0.0659093 -0.029362 
-0.0731663 0.00842924 0.0289661 
0.000908185 -0.000265381 -0.00321356 

-0.017317 -0.00743274 -0.00663183 
0.0261499 -0.00117743 0.00530324 
-0.000820459 0.000161216 0.0237641 

-0.0205406 -0.00421453 0.04855 
0.00747393 0.00847192 -0.0344156 
-0.000324401 0.00813614 0.0221289 

-0.0110437 -0.00413192 0.0238477 
-0.0033184 -0.0018681 -0.00794846 
-1.0204e-05 0.000616368 0.0183012 

-0.00720655 -0.000987819 -0.0289046 
0.00839251 0.000331771 0.00641146 
0.000664575 0.000115807 0.00954198 

-0.00547874 0.00226753 -0.00498291 
0.00501302 0.00096145 0.0041616 
0.000294008 0.000143957 0.00809789 

0.00148527 -0.0141426 -0.141058 
-0.00989384 0.0145832 0.132064 
0.00120078 -0.000364732 -0.00651997 

0.0493197 -0.185606 -0.753274 
0.107627 -0.0345599 -0.138625 
-0.0121841 -0.0152718 0.0527124 

0.0738389 -0.211113 -0.0866274 
0.23973 0.0315392 0.0988948 
-0.0461557 0.00880925 0.209492 

0.00403933 -0.00145074 0.0526441 
-0.010036 -0.00101232 0.022285 
-0.000820792 -6.46101e-05 -0.00010115 

0.00590664 -0.0351654 0.00558102 
0.0508729 -0.00082525 0.0121625 
0.000121495 -0.000293462 0.00116812 

-0.00908895 0.0103629 0.00307187 
-0.00885854 0.00634551 0.000574769 
0.000596674 0.000381756 0.00150613 

-0.0250908 0.0977579 0.30902 
-0.12899 0.0321943 -0.785492 
0.0129723 -0.00914347 -0.105091 

-0.00677831 -0.0965489 -0.0542628 
0.0450668 0.0268869 0.00620249 
0.00150999 -0.0023642 -0.0451242 

-0.0216766 -0.00616419 -0.0686452 
0.0601546 0.00031209 -0.0405594 
-0.00101034 -0.000147015 0.0254255 

-0.2808 0.172449 0.409002 
-0.0550847 0.209264 -0.00601541 
-0.059223 -0.0173484 0.451245 

-0.219637 -0.205998 -0.0299987 
-0.094473 0.139772 -0.0764491 
-0.00959593 -0.000858973 0.137843 

-0.0146251 -0.0139206 0.439981 
0.01862 0.00584044 -0.289713 
-0.00122066 -0.000778136 0.188357 

0.00270412 -0.237652 0.30259 
0.0483658 -0.00645609 -0.299275 
-0.00178884 0.0142212 0.0212006 

-0.0232798 -0.0175964 -0.0173472 
0.0685273 0.0199013 -0.0510562 
0.0209896 -0.0200517 -0.0010924 

0.00868207 -0.00786127 -0.0283035 
-0.0163737 -0.0138428 0.00959998 
0.000255968 0.000439768 -0.0023294 

-0.18759 0.266381 -0.583452 
0.261142 -0.0404053 0.56472 
0.0110085 -0.00290727 1.23989 

-0.0219452 -0.0125312 -0.577934 
-0.0246411 0.0218095 3.22502 
0.000806391 -3.72205e-06 0.707648 

-0.0423114 -0.0173522 -0.986565 
0.0620065 0.0528446 -0.746082 
0.00331497 0.00091071 0.0327994 

-0.456737 -0.0146691 -3.29407 
-0.002123 0.0775033 -0.539495 
-0.00490114 0.0235831 0.166479 

-0.0278655 0.0117474 -0.00777438 
0.00668581 0.0137017 -0.00586187 
-0.000382531 -0.00132039 0.0145256 

-0.115116 0.00210412 0.234938 
-0.206955 0.0960627 -0.774953 
-0.0020665 0.0562056 0.204326 

-0.207649 0.186321 -15.9552 
-0.400001 0.088025 -4.3947 
-0.00746393 0.00929506 0.142138 

-0.149149 0.319041 -0.12762 
0.0256419 0.148783 -0.0739338 
-0.035675 0.0363277 -0.146678 

0.0541375 -0.00350276 0.099444 
0.00969312 -0.0243426 0.0702419 
0.00160029 0.000455557 -0.0375232 

-0.0415029 -0.0555106 0.0561639 
0.0533473 -0.0173956 0.035137 
-0.000778277 -0.00324177 0.12838 

-0.034598 0.073366 -0.0557963 
-0.0276804 0.0137907 -0.162879 
-0.0173999 -0.00228697 0.123798 

-0.0170562 0.0555137 0.00741649 
-0.0424606 -0.00360526 -0.0050066 
-0.0028025 0.00158612 0.0386291 

0.0189476 0.015519 0.0835189 
0.0195496 -0.0103718 -0.411161 
0.00239528 -0.0175254 0.0237024 

-0.0884527 0.0712162 0.0422647 
-0.133525 0.0129926 0.305272 
-0.0115537 -0.0149305 0.132864 

-0.00790071 0.00379743 -0.00199809 