# vtk DataFile Version 3.0
Output file generated by Yade's KinematicLocalisationAnalyser
ASCII
DATASET UNSTRUCTURED_GRID

POINTS 13483 float
396.687 47.6587 0.517098
488.387 81.0795 -0.494954
101.463 6.03666 0.508243
510.609 11.4481 0.564802
350.018 11.9616 0.549232
235.033 59.5713 0.50337
127.479 8.87449 -0.479346
386.962 11.9238 0.267135
344.344 44.953 -0.2215
465.174 18.0274 -0.551322
170.098 9.01598 0.112705
204.673 8.50414 0.270559
422.255 65.0808 0.15516
418.65 26.53 -0.192827
114.068 22.931 0.470653
174.369 37.5037 0.403277
176.952 12.9289 -0.355647
226.578 15.8246 0.579894
258.942 49.0995 0.47273
359.713 14.7953 0.673017
318.281 69.9478 0.110138
386.344 77.6506 0.34995
507.639 57.4417 -0.497589
458.285 77.2982 -0.325268
327.318 21.4914 0.416978
186.128 55.6478 -0.138374
341.677 49.473 -0.517752
395.777 23.2913 -0.312805
37.3415 18.7673 -0.477284
459.156 62.6042 -0.388664
342.613 9.5197 0.555831
14.798 25.6829 0.326484
501.238 84.8513 0.252056
348.506 2.46856 0.676678
65.3114 48.8663 -0.113518
354.881 52.5381 -0.484764
366.27 26.7274 -0.495746
259.167 35.6614 0.211165
363.525 42.1986 -0.355679
265.867 55.5563 0.409335
193.537 18.1897 0.35426
337.812 81.9186 0.0713053
434.363 7.72011 0.220427
154.19 6.0877 0.46278
47.2496 7.20835 0.148274
56.788 9.73441 0.324294
448.101 7.19428 0.575884
20.1317 12.8207 -0.330888
398.891 91.7285 -0.346501
438.306 65.7017 0.365794
151.238 48.6956 0.291762
490.647 66.9293 -0.140441
27.2159 33.1667 0.113909
363.068 3.17359 -0.479323
118.337 10.2236 -0.555994
394.091 69.8535 0.453069
345.549 49.0906 0.143605
141.373 2.19955 -0.606233
27.6234 2.49925 -0.286403
265.674 26.3982 0.305062
411.357 99.7244 0.0568044
313.996 43.9945 -0.181345
284.664 1.01368 0.208131
451.177 16.499 -0.681746
21.2037 53.9549 0.23582
204.125 46.7828 -0.369935
463.558 12.716 -0.426138
428.276 96.5332 0.374232
298.627 10.2357 -0.648449
386.94 5.38735 0.659302
473.678 54.1546 0.493603
111.052 10.5568 0.457326
345.427 46.8915 -0.145475
336.854 24.7401 -0.139084
231.022 24.1496 -0.428972
17.7135 14.9237 0.371576
510.176 79.0058 0.383431
252.911 57.5563 -0.289241
443.758 58.3414 0.342948
447.123 11.6962 0.445993
504.278 27.9242 0.307372
316.938 47.1262 0.188274
80.1838 46.1751 -0.307477
446.218 84.3873 -0.260414
413.668 70.7348 -0.105786
508.56 68.9119 -0.106978
500.735 2.79872 -0.670251
232.059 37.3038 0.483128
425.926 10.6473 0.292861
21.2268 6.73048 -0.66205
118.162 44.6725 0.192923
355.699 27.729 0.238097
493.912 54.018 0.57185
156.769 38.7426 -0.243543
36.2268 41.6997 0.290328
349.074 1.28433 -0.181588
190.194 11.8058 -0.484024
469.355 65.8739 -0.361643
487.143 52.2327 0.220057
270.288 38.6921 0.27308
142.417 42.9234 0.43328
371.046 63.4892 -0.448185
283.466 39.7357 -0.546135
309.755 57.8162 0.0914527
286.729 26.6719 0.418308
373.615 12.8909 -0.203621
514.237 16.9918 -0.287702
68.2378 44.4351 -0.425303
261.776 6.58929 0.156167
382.326 10.5649 -0.493755
268.135 72.895 0.450945
21.7365 29.0622 0.481238
26.5238 6.31688 -0.340157
382.48 46.275 -0.489447
348.212 42.8205 0.187769
22.2901 47.6758 0.412857
82.1318 37.5497 0.232119
253.378 19.8463 0.352083
401.718 26.9116 -0.179971
326.591 54.2592 0.328233
475.421 8.27198 -0.672688
469.739 6.38042 0.285406
296.948 72.0269 0.0932709
415.287 49.3655 -0.119995
193.109 22.5385 0.586064
259.127 4.62377 0.490417
90.4486 38.7859 -0.336527
97.8762 30.0313 0.268789
368.103 67.3708 0.0806552
240.909 21.5882 0.50568
456.478 54.2479 0.140727
433.774 96.538 -0.107877
333.834 37.3277 -0.445973
489.846 14.9439 0.46494
304.076 30.9567 0.250415
217.289 34.1477 -0.332478
437.13 84.067 -0.336636
221.819 38.7978 0.40601
394.489 14.8785 -0.270019
252.816 54.093 0.20672
349.473 26.1713 0.570442
279.989 62.5938 0.0958111
308.795 19.2678 -0.225187
241.868 67.1553 0.438817
153.343 38.5949 0.121978
492.81 81.7245 0.175195
511.32 20.5305 -0.317054
5.46728 13.2576 0.422315
307.678 30.4653 -0.509467
32.1612 28.0893 -0.0798772
287.875 66.0535 -0.501673
293.678 56.3669 -0.268675
63.0992 12.5047 -0.482493
42.4921 37.4105 -0.519916
182.576 17.9118 0.466846
413.974 91.0889 0.376316
392.064 25.4449 -0.545267
65.725 23.5565 -0.486576
462.66 76.4108 0.447378
487 9.85705 -0.503486
424.338 87.3504 -0.44934
454.225 4.71128 0.513756
374.772 43.6157 0.49763
387.331 76.7986 -0.651705
356.924 33.4466 -0.409887
507.652 6.66591 0.256306
182.514 30.0437 0.125149
114.002 41.8888 0.191529
199.9 9.66292 -0.486733
79.8795 5.03322 0.292025
53.704 12.1382 -0.230664
221.766 46.2956 -0.404459
15.2625 27.3189 -0.390262
381.73 25.5997 0.495272
402.044 87.3869 -0.190512
324.152 32.4922 -0.416051
510.523 101.703 0.324597
292.411 11.0844 -0.200625
343.085 85.1227 0.384538
370.208 2.93253 -0.469098
18.6541 28.7125 -0.367924
397.018 5.64848 0.644266
376.041 5.75539 0.677005
168.638 11.4409 0.554401
305.795 17.3534 -0.243155
245.551 7.08339 0.399048
289.789 44.5895 -0.398583
487.478 91.4401 -0.00349096
155.664 33.9051 0.49272
498.383 15.592 -0.451391
485.317 86.2857 0.30437
290.249 35.5305 0.299271
461.202 3.96742 0.496321
396.515 40.4456 -0.532501
468.011 34.3487 -0.353488
337.027 88.8117 -0.263193
345.483 28.6267 0.526224
319.818 59.5052 -0.241413
323.663 11.7261 -0.127524
426.496 90.1937 0.255584
427.617 83.4941 0.369815
172.622 58.9811 -0.331783
502.872 29.6012 -0.12657
388.27 77.9516 0.290733
10.1846 18.7283 0.178965
295.065 49.6951 0.387464
151.83 32.2197 0.429816
81.7188 47.3424 -0.215712
494.156 45.2868 0.437404
419.3 86.8784 -0.246291
251.938 37.6959 0.375558
367.941 12.3082 0.690676
70.1794 49.7245 -0.214072
197.915 31.3927 -0.481816
378.155 31.9483 0.426466
340.225 38.7626 0.480765
211.679 0.85616 -0.520105
378.184 57.9749 -0.50253
367.82 74.7614 -0.467369
338.393 56.781 0.380844
354.684 2.15541 -0.756403
452.486 31.6857 -0.417495
146.595 15.8033 -0.280198
350.588 70.6244 -0.440446
374.066 72.2494 0.116057
61.8801 0.987156 0.358533
203.321 5.26901 0.233907
510.486 22.3026 0.272052
505.657 28.5268 -0.598449
513.973 25.8098 -0.607781
239.597 11.6374 -0.2517
476.444 40.6632 0.477592
316.045 75.9748 0.357988
325.934 1.49874 0.598305
419.263 74.4328 -0.552947
21.8234 39.416 -0.423785
255.786 59.1162 -0.454836
204.356 3.43067 0.647544
505.834 87.0317 -0.199266
459.496 99.5173 0.226759
228.74 16.9448 0.283463
434.136 73.2369 0.0875321
384.135 2.62332 0.37643
374.306 9.1352 0.599317
81.6602 20.8188 -0.529799
240.456 0.967788 0.297599
269.844 4.73952 0.528124
11.9408 8.58907 -0.645792
4.98961 33.6748 0.257127
133.839 23.3577 -0.350617
57.9936 44.4542 -0.27332
58.0791 31.2405 -0.345895
306.233 15.6315 -0.63111
281.379 67.1695 0.45905
488.226 67.518 0.128608
17.2806 4.76172 -0.279568
59.5479 7.66111 0.245258
403.363 55.265 -0.189385
233.435 2.29997 0.448611
275.374 35.9818 0.0772607
192.475 7.91223 0.407919
429.187 55.5138 0.168289
327.466 9.07991 0.686557
477.695 40.021 -0.466326
414.636 53.554 0.317253
448.857 49.3402 0.129159
299.749 34.8531 0.553265
90.5063 53.484 -0.305448
373.212 66.7398 0.0842248
475.48 18.6738 0.268019
193.137 43.0819 -0.254811
26.9965 19.0645 -0.17462
262.078 17.6454 0.641911
95.4896 48.4219 0.459918
218.559 54.7277 -0.209299
310.888 2.3952 -0.35027
494.793 58.6742 0.370988
449.386 0.806701 0.606964
262.543 3.71508 0.653428
239.281 32.2879 -0.17753
319.326 55.279 0.215251
69.4143 8.88017 0.619099
179.964 64.871 0.376945
487.776 58.2875 -0.34751
345.285 69.3006 -0.0742475
181.776 61.1919 -0.248005
141.545 58.6605 0.280224
511.27 64.2466 0.408763
512.738 19.4928 -0.606548
420.259 5.59743 -0.552067
153.7 31.7745 -0.10042
373.917 45.3746 0.133781
376.945 43.3161 0.269481
296.34 7.33965 -0.168817
345.243 0.862703 0.471804
485.229 69.3912 0.485491
75.5457 36.7814 0.240287
433.861 53.0766 -0.577859
217.732 20.5772 -0.355311
8.19684 2.65687 -0.478117
112.705 43.4845 -0.231756
59.0486 26.3446 0.484361
455.213 63.7174 0.312905
500.834 94.4229 0.178527
155.12 39.9202 0.175608
506.542 19.7812 0.549699
38.1401 43.0413 -0.270551
81.591 35.6688 -0.153136
424.504 33.094 -0.495781
300.345 19.0086 -0.652273
364.416 26.9302 0.1221
194.231 41.4099 0.197287
428.099 15.562 0.600219
515.644 15.9178 0.500063
24.0382 39.8343 -0.363134
218.443 9.42748 -0.211911
180.679 20.1789 -0.276301
1.10962 37.4036 0.174286
183.702 18.4918 -0.462046
174.577 11.2695 0.130024
173.136 28.0944 0.305927
118.737 34.7691 -0.121932
377.187 20.8616 -0.469796
137.076 16.7194 -0.509304
501.051 82.8316 0.235004
142.384 5.57369 0.616782
40.8146 43.2954 -0.388998
493.421 99.4013 -0.42659
227.484 41.0966 -0.383003
444.363 61.7378 0.496365
500.055 60.9236 -0.526044
237.907 12.7476 0.129097
465.607 52.3426 -0.352235
260.848 2.69845 0.497648
299.989 32.5415 0.525327
444.859 37.3949 -0.553972
90.7697 12.8059 -0.498058
345.971 4.439 0.566358
478.782 36.145 0.213849
75.0139 8.23863 -0.322265
223.765 20.635 -0.197583
307.681 13.1218 0.372382
508.508 8.32795 0.592573
289.327 1.88037 -0.602112
157.161 57.0081 0.034129
473.326 22.5892 -0.349413
115.871 42.8998 0.20315
211.279 43.9439 -0.373921
297.18 39.3709 -0.236545
396.736 16.5874 -0.4859
280.727 10.8017 -0.663437
320.12 39.2047 -0.449582
487.96 82.585 -0.404188
41.009 12.5558 0.155686
226.61 58.9363 0.253487
285.83 54.931 -0.414355
296.885 23.6324 -0.342229
368.581 86.7725 0.34346
478.817 65.0774 0.272096
432.409 85.7125 -0.357513
181.098 41.3952 0.432659
13.003 38.1162 -0.159911
425.839 84.1616 -0.167704
355.683 83.7978 -0.507688
182.595 47.8495 -0.140881
444.173 78.0181 0.119411
124.866 11.7119 -0.217511
279.525 46.5623 0.267871
319.964 57.2906 0.101996
300.969 22.6483 0.206006
485.055 80.9543 -0.347587
310.729 5.25135 0.494027
41.3954 30.3776 -0.348778
329.771 49.3746 0.496886
345.128 89.9752 -0.346975
506.939 80.8708 -0.23331
466.696 72.0648 0.222324
373.966 24.8805 0.146999
497.599 76.4252 -0.494927
233.573 3.56748 -0.588879
292.872 63.1845 0.435379
24.7349 50.2207 0.437681
461.72 60.5332 0.13988
408.448 31.7103 -0.565643
337.024 0.753406 0.535575
108.223 7.86866 -0.404877
336.066 85.5072 0.0986831
10.3855 0.898904 0.448487
507.124 12.5543 -0.130827
283.293 73.5343 -0.428771
423.891 14.741 0.469042
[...]
POINT_DATA 13483
TENSORS Strain_matrix float
-0.0151995 0.0936139 -0.0852194 
-0.0799355 -0.000301654 -0.271002 
0.00484494 -0.00151239 0.0701416 

0.00928862 0.00797824 0.0570622 
0.00169207 -0.00117199 -0.0401962 
0.001106 0.000298271 -0.00812339 

-0.0880198 -0.0728197 -1.17337 
0.129475 0.0886874 2.57491 
0.0276006 -0.0151159 0.222181 

0.00929933 0.00570399 -0.0119271 
0.00448347 0.0185616 -0.00502181 
-0.000850245 0.000567231 -0.00263186 

-0.0598122 -0.0596867 0.282194 
0.0100116 0.0800199 0.064842 
0.0129641 0.0145575 0.0856326 

-0.0640273 -0.23501 25.5769 
0.31268 -0.0427993 -22.3827 
-0.0472806 0.0174147 2.37037 

-0.217765 0.0628412 -0.400865 
-0.0749276 0.256863 -0.122672 
0.00128259 -0.0148948 0.159621 

-0.0342917 -0.0205504 -0.0287704 
0.01859 0.00786877 -0.0155469 
-0.00303158 0.00220413 0.0275572 

-0.00469986 -0.0359765 -1.08874 
-0.00872491 -0.0152061 -0.641165 
-0.000852807 0.00233484 0.0316233 

-0.00611223 -0.0518508 -0.0145389 
0.0414654 0.0146435 -0.000638019 
-0.000344482 -0.00109448 0.00597997 

-0.0479231 -0.0170634 -0.119189 
0.0218486 0.0252191 -0.0819959 
0.00524767 0.00338515 0.0652863 

-0.107013 0.032448 -0.333531 
0.0848191 0.142883 0.0911167 
-0.00793884 -0.018617 -0.0991207 

-0.0505891 -0.134146 0.0497938 
-0.0322165 0.0331383 -0.812606 
0.00385047 -0.00950941 0.0329013 

-0.000315966 -0.0457158 -0.0150653 
0.0426621 -0.00705072 0.00167015 
0.00350157 -0.00326408 0.00747396 

0.00274057 -0.0982263 -0.255186 
0.108268 -0.00388692 -1.95209 
-0.00776424 -0.0039767 0.214275 

0.0179297 -0.136543 -0.135866 
0.137706 -0.00707196 -0.084445 
-0.00161498 0.00153423 -0.00880179 

-0.00782099 0.0538938 -0.0177383 
-0.104051 -0.0528623 0.0996051 
-0.00547553 -0.00261786 0.0809003 

-0.0513237 0.183562 -0.342231 
-0.159598 -0.0278899 0.553401 
0.00758412 -0.0124376 0.0282308 

0.0571104 -0.125612 -10.3504 
-0.0915462 -0.0157148 12.4778 
-0.0801521 0.0652044 -0.858672 

-0.172398 0.0722134 -2.38969 
-0.0987098 0.135519 -2.4748 
0.0282453 -0.00716112 0.0820051 

0.0325642 0.0383374 0.0267932 
-0.0163627 0.000734288 -0.0390855 
0.036355 -0.00606639 -0.0455687 

-0.00230172 0.0345818 -0.0381256 
-0.0487593 0.00388041 0.0618732 
0.000724239 0.000282814 -0.00392881 

0.00550504 -0.0115615 -0.0315978 
0.0158567 0.0118686 0.264413 
0.000602719 -0.000123568 -0.00913814 

0.0165729 -0.00336178 0.0453349 
-0.0258937 0.00315519 -0.100779 
0.00398121 0.0006932 0.0261295 

-0.172339 -0.159709 -0.0987248 
0.104422 0.0199868 -0.0923537 
0.00318786 -0.0380876 0.0643179 

-0.988922 1.60772 -6.46595 
-0.160057 0.468043 -2.17934 
0.148594 0.00565326 0.583715 

-0.070759 0.0928687 0.480457 
-0.0290198 0.0608641 0.132118 
0.00192627 0.00550182 0.172716 

-0.0316899 -0.292318 1.2445 
0.0134193 0.0589596 0.0391896 
0.000476941 -9.44322e-05 0.0603965 

-0.153043 0.0246619 1.13358 
-0.0354578 0.135494 0.351481 
-0.00893943 -0.0178128 0.253665 

-0.0120498 0.0392388 0.125713 
0.0151016 0.0485767 0.0186333 
0.000483933 0.00247901 -0.017649 

-0.0985459 -0.144149 -0.254863 
0.0381694 0.0224756 0.458807 
0.0160468 0.00886964 0.132911 

-0.0121987 0.0179899 0.0681281 
-0.0185947 0.019201 -0.00804505 
0.020134 0.00913735 -0.0735892 

0.0166563 -0.00462565 0.0644473 
0.017071 -0.00297169 -0.0283851 
0.00789371 -0.00717109 -0.0848979 

-0.187181 -0.0527144 0.896139 
0.0266701 0.177373 -1.03409 
0.00299572 0.0477495 0.217541 

-0.018011 -0.0500292 -0.0511507 
0.0681456 0.0302244 -0.0545733 
-0.000923326 -0.000949743 0.00724037 

-0.0201918 0.0688301 0.0251625 
-0.0397892 0.0200556 -0.289632 
0.00188494 -0.00176194 0.0852749 

0.0200801 -0.0810482 1.81385 
-0.0477752 -0.0188218 2.33445 
-0.0043702 -0.00477002 0.106309 

-0.308746 0.583028 0.01187 
-0.253835 0.303924 0.283722 
0.0333006 -0.0381517 0.125599 

0.0319885 -0.0550112 0.00468634 
0.0410036 -0.0157148 0.350324 
-0.00303337 0.00450054 0.0818746 

-0.159179 -0.499141 -0.154534 
0.392603 0.414114 -0.359207 
0.0152251 -0.0181812 -0.363187 

0.0092479 0.0629552 0.163543 
0.025751 0.00134856 -0.288655 
-0.0230573 -0.0138796 0.0196034 

-0.00182832 -0.18383 0.0448031 
0.16853 0.0327663 -0.020121 
0.00771748 0.00963921 -0.092077 

-0.00937497 0.0371547 0.0216786 
-0.0322006 -0.0262299 0.0435319 
0.0209807 0.00636968 0.0564081 

-0.024917 0.0119017 0.066319 
-0.0101601 -0.00544505 -0.0409501 
-0.00044195 -0.000479517 -0.017323 

-0.167813 -0.211615 0.057468 
0.261669 0.126207 0.021326 
0.0185463 -0.0208496 0.258532 

-0.0441786 0.0383048 0.00991582 
-0.0472817 0.000816143 0.0249618 
0.00873218 -0.0158156 0.0787785 

-0.010535 0.0042019 0.00615341 
0.00536574 -0.0133694 -0.0285386 
0.00163873 0.00241981 0.0100878 

-0.0119143 -0.00299032 0.000840807 
-0.0238887 0.00373318 -0.0014881 
0.00172742 0.00159472 0.0116694 

0.00761021 -0.099246 0.00821121 
0.0998379 0.00216635 0.00987408 
-0.00111189 0.000131187 -5.39305e-05 

-0.00818229 0.0121064 0.451352 
0.0210814 -0.0224975 0.0951353 
0.00549188 -0.00273592 -0.017267 

-0.320155 0.166348 -8.54614 
-0.158974 -0.0600583 -5.84508 
0.0292652 -0.0316462 0.487543 

0.0205387 -0.0180874 -0.085227 
0.0082389 -0.00557344 -0.0714847 
0.00135971 -0.00814062 -0.0325202 

0.110176 -0.185758 0.0769897 
0.145563 -0.0937108 -0.179758 
0.0080864 0.029034 0.213684 

-0.030187 -0.0518126 -0.306221 
0.0273802 -0.145212 -0.753961 
0.030526 -0.0229482 -0.145328 

-0.41681 0.112088 0.816128 
-0.00836444 0.467985 -1.74659 
0.084354 0.0162244 0.0155571 

-0.0145812 0.0762038 -0.922815 
-0.0458836 0.0648245 0.219843 
0.00705067 -0.00356016 -0.0406242 

0.00578934 0.0109061 0.23204 
0.0407683 0.00507765 -0.0140361 
-0.0174285 0.0013738 -3.10705e-05 

-0.0328351 -0.0534905 -3.23868 
-0.0201576 0.0222706 2.74153 
-0.00100382 0.0105777 0.770559 

-0.0132907 0.0077652 -0.0057319 
-0.00457482 0.00740615 0.00569702 
-0.000524916 0.00203014 0.00720229 

-0.0381479 -0.0991568 -0.359052 
0.246298 0.00430478 -0.827873 
-0.00158662 0.0141397 0.119441 

-0.16069 0.674044 0.710365 
-0.0160124 0.0382367 0.892651 
0.00505889 -0.0577255 0.0376023 

-0.105211 0.0763948 -0.0525136 
-0.0489932 0.131844 0.121764 
0.00826277 -0.0331047 -0.0812914 

0.0146473 0.0299826 -0.0407892 
-0.000136498 -0.0276156 0.0409195 
-0.00130512 -0.000623705 -0.00643947 

-0.0187465 -0.0174238 0.266642 
0.0219228 0.00365371 -0.240238 
0.000672618 -0.000294008 -0.0366654 

-0.030406 0.0267012 0.479074 
0.162762 -0.0968608 -0.863553 
0.0298921 0.0641753 0.911103 

-0.061139 0.0440042 0.0254623 
-0.0301304 0.0350963 -0.227387 
0.0409696 0.0127007 -0.121992 

-0.0106342 -0.0218505 -0.0109057 
0.0217301 0.00964753 -0.024115 
0.0023758 -0.00040607 -0.00656776 

-0.126271 0.138512 1.40299 
-0.139106 0.27757 1.35939 
-0.0306805 -0.0518996 0.0183692 

-0.00340863 -0.0213075 -0.0433048 
-0.00761898 -0.00681795 0.0318311 
3.48884e-05 -0.000920634 0.00645034 

-0.0295851 -0.00581737 -0.0258127 
-0.0110577 0.0082427 -0.095063 
0.000627155 0.0029548 0.00459171 

-0.0349384 -0.0276925 -0.478901 
-0.0503821 0.0162481 0.212246 
0.00117028 0.000395566 0.014883 

-0.311108 -0.146522 -0.236015 
-0.126254 0.113898 -0.0831379 
0.0370926 0.0506105 0.163843 

-0.0463029 -0.0667294 -0.73078 
0.0479041 -0.0101005 -0.451095 
0.0113567 0.00925583 0.0077223 

-0.0647275 -0.178347 0.193952 
0.0302738 0.00915839 -0.125594 
0.00143472 0.00293213 0.0938298 

-0.0931919 -0.187031 1.14157 
0.0161 0.040398 1.65596 
-0.0202971 0.00668826 0.198832 

-0.0217325 -0.00198317 -0.000398541 
-0.0121337 -0.00365652 -0.028322 
-0.00253775 -0.00249736 0.0304413 

0.0149564 -0.0147688 -0.0278921 
-0.00129687 0.00142217 -0.00785045 
0.000521009 0.000242663 -0.0208577 

0.121578 -0.0541142 0.406482 
-0.326792 0.00201594 0.323156 
0.0299049 0.0023107 0.981644 

-0.05274 -0.166937 -0.12439 
0.0579078 0.0523265 0.111898 
-0.000581411 -0.00058418 0.0572776 

-0.0156625 0.0106827 -0.0247925 
0.0133163 -0.0178792 0.0381325 
-0.00264501 -0.00275319 0.000223298 

-0.00235012 0.00392271 0.00928856 
-0.0381531 0.0190686 0.00206611 
0.00681261 -0.000538086 -0.0407297 

-0.0023211 0.0842452 0.236129 
-0.0923834 0.0144436 -0.167514 
0.00955726 0.0170585 0.0328627 

0.00349768 -0.10845 0.007366 
0.115583 0.0117389 0.00242579 
0.00119834 -1.98928e-05 -0.00479031 

0.00546089 -0.0132922 0.0269574 
0.0134459 -0.00158408 0.0282324 
-0.000478487 -2.20211e-05 -0.00152845 

-0.00649222 -0.0957455 0.0434101 
0.0873987 0.0100697 0.0322466 
-0.0206862 0.0197973 0.138725 

0.010545 0.0209984 -0.0187549 
-0.0304161 -0.00355463 0.0269035 
0.00109726 0.000819983 -0.0314372 

0.00638252 -0.0395763 -0.367632 
-0.00974895 0.0254083 0.0972133 
0.00167729 0.00975922 0.0314789 

0.0227355 0.529915 -1.36815 
-0.144373 0.0108986 0.307426 
0.00162948 0.00271426 0.0368854 

0.0125004 0.0131618 -0.023962 
-0.0338463 0.0464427 -0.0109739 
0.00466604 -0.00677411 -0.13671 

-0.0301703 -0.00462951 4.62521 
-0.00552008 0.0213585 4.99883 
0.000438678 0.000401475 0.171986 

-0.00503812 -0.0291689 0.0335529 
-0.0183724 -0.0112744 0.0755023 
0.00422348 -0.00339449 -0.00478191 

-0.00252877 -0.085672 -0.0797546 
0.0798538 0.0237654 0.0561626 
0.00637185 0.00732812 0.0122714 

0.000505067 -0.01816 0.265239 
0.0121968 0.00144354 -0.228189 
-0.000199801 0.000318746 -0.0117878 

-0.728993 0.2069 1.72013 
-0.261062 0.2835 -0.0686083 
0.009581 -0.0757861 0.891032 

-0.00549783 0.12957 -0.00847609 
-0.148347 0.0292883 0.108074 
0.00554472 0.0148683 -0.0936739 

-0.413058 -0.270661 -0.043018 
0.0777362 0.356111 -0.327683 
-0.0380554 -0.0114739 -0.0971067 

-0.14702 -0.128888 -1.18905 
0.0828832 0.132257 0.844116 
0.0616941 -0.0207419 -0.194603 

0.0142164 0.0331908 0.0172174 
-0.042637 -0.00196478 -0.000516735 
0.000435846 -0.000676634 -0.0109654 

-0.00719764 0.00292004 -0.086546 
0.0132854 0.0138217 -0.0191079 
-0.0131792 -0.000407594 -0.0115996 

0.0544308 -0.0332354 0.264351 
-0.0891812 -0.137639 -0.355397 
-0.0202925 -0.00618753 0.133885 

-0.263087 0.208191 -11.505 
0.0108434 0.248265 -4.83233 
0.000858282 -0.00656584 -0.000665369 

-0.0103964 0.0405476 -0.385816 
-0.0492365 0.0102096 1.06142 
-0.00102135 0.000826814 0.000511098 

-0.153632 -0.23941 -1.17975 
-0.0443384 0.135937 6.13135 
-0.00224419 0.00410878 0.158595 

-0.265157 0.173005 -0.131139 
-0.331522 0.256988 -2.02524 
-0.0613861 -0.00497854 0.0791063 

0.0416678 -0.106445 -0.652374 
0.0731979 0.0434602 -0.506481 
-0.00446052 0.00919719 -0.051732 

0.00593386 -0.0566517 -0.0470543 
0.0588458 -0.0215966 -0.0639297 
-0.00336047 0.0114537 0.0105231 

0.0131546 -0.00464653 0.0139369 
-0.00352698 0.0166767 0.0161921 
0.00354495 -0.000913185 -0.0346723 

0.00761014 -0.0965342 -0.0389815 
0.0889798 0.00210736 0.0106471 
-0.00509798 0.000770498 0.0350611 

-0.27498 -0.227997 -0.179874 
0.144651 0.262656 -0.372261 
-0.0232587 0.0566538 0.0508533 

-0.0116455 -0.0199311 -0.0179455 
0.0247002 -0.00228246 -0.00104797 
-0.00205939 -0.000834196 0.00414491 

-0.0541317 0.160693 0.495916 
0.0173162 -0.0641505 -0.100911 
-0.00861755 0.0218626 -0.103816 

-0.0531399 0.0210356 -0.041973 
-0.0279869 0.0558845 1.67014 
-0.000446784 0.00118354 -0.0414604 

-0.0241596 0.0125062 -0.00565916 
-0.00503874 0.00878655 0.00784016 
0.000300221 -0.00171418 0.0210148 

-0.0284224 0.128403 -0.301941 
-0.172218 0.026789 -0.498584 
-0.0131842 -0.00429339 -0.0105112 

-0.0156912 -0.0485311 0.062789 
0.0587136 0.00856207 -0.0661845 
0.00421302 0.00334542 0.0308404 

-0.0481815 -0.121236 -2.20999 
0.0959769 0.0797044 -1.11567 
0.02711 0.003032 -0.131809 

0.0059051 -0.0853833 -0.0677313 
0.124577 0.0249981 -0.0322635 
0.00922475 0.0231694 0.0950907 

-0.178722 -0.00740014 -0.00999545 
0.0233842 0.0418701 0.166401 
-0.0225498 0.0384183 0.204869 

-0.00355141 -0.0740852 -0.139674 
0.0866356 -0.0112208 -0.109046 
-0.00572926 0.0260816 0.0375696 

-0.00189671 -0.0360508 -0.0921096 
0.0744975 0.00891126 0.00388856 
-0.000460938 0.000179745 -0.0362866 

0.00598844 -0.0219862 0.0238744 
0.0248965 0.0164935 0.320355 
0.00186413 0.00181327 0.0304938 

-0.0125458 -0.00527939 -0.00656549 
-0.00138571 0.0130194 -0.0113979 
-0.000852603 -9.5425e-05 0.00281356 

0.0265856 0.201182 0.192314 
-0.206425 0.0357334 -0.0511439 
0.000356427 0.0100788 -0.00817568 

-0.0104418 -0.0495685 -0.00159925 
0.0341181 0.00125477 -0.00671723 
0.000262355 -0.000267201 0.0150249 

-0.0700586 0.0289517 -1.44712 
-0.0997847 0.0974891 -0.107591 
-0.0077862 -0.0019152 0.177618 

-0.00835889 -0.100819 -0.349767 
0.142093 -0.00222494 -0.0439955 
0.0321404 -0.0299799 0.0302112 

0.0217497 -0.0507431 0.19697 
0.141463 -0.0296655 -0.202969 
0.000114981 -0.00534953 -0.0397206 

-0.286275 0.58673 0.881625 
0.271732 0.0438383 -0.580882 
0.000867146 -0.00419037 0.00446345 

0.000570298 0.0405294 0.00686305 
-0.0637046 -0.0157885 -0.0111883 
0.00220433 0.00063357 0.00902525 

0.0211386 -0.0846278 -0.0669718 
0.0964671 -0.0432813 0.0914137 
0.00224252 0.00852043 0.0241696 

0.0245851 -0.289586 0.282878 
0.049241 0.0185059 -0.725483 
-0.000213238 0.0215795 0.169538 

0.00715938 -0.0299147 0.00592264 
0.0327254 -0.0019284 0.00269683 
0.00191523 -0.000651226 -0.00291348 

-0.0383911 -0.0388443 0.187608 
-0.00226805 0.0207628 -0.0248048 
0.00131541 0.000188289 0.10507 

-0.00413242 -0.0191802 0.00536359 
0.000654437 0.00898697 0.0782512 
0.00144677 0.00441158 -0.0105794 

-0.222768 -0.150804 0.908327 
0.035073 0.208565 -0.143737 
0.00172845 0.00346051 0.0869096 

-0.181646 0.00252259 1.10427 
-0.0517379 0.223685 -0.530632 
-0.00213087 0.00261048 0.0558307 

-0.0216288 0.0114098 -0.0395808 
0.0132415 0.0210754 0.0415704 
0.00376521 -0.0013583 -0.0389302 

-0.0731088 0.321335 -1.84797 
-0.154799 0.0963596 -2.3228 
-0.00123034 0.00188012 0.00363077 

-0.0242309 0.00148747 -0.00593782 
-0.0211501 -0.00690019 0.00621166 
0.00200055 -0.000318853 0.0283358 

0.060743 0.295503 -0.0628959 
-0.324075 0.0516391 0.0340585 
-0.00753378 0.00143058 0.0368951 

0.0368955 -0.0406516 -0.184956 
0.0228531 -0.0153761 0.0531083 
-0.002929 0.00530191 -0.0434232 

-0.00139604 -0.0239342 -0.014762 
0.0134276 0.00569766 0.0574607 
0.00671576 -0.0152243 0.00186104 

-0.00155145 -0.0366475 0.00392524 
0.0285761 -0.0438806 -0.16365 
0.00832247 -0.00341941 -0.00246791 

-0.0118665 -0.173048 17.7063 
-0.0108641 -0.0712184 -9.44679 
-0.0160059 0.0307216 2.02882 

-0.470885 1.03206 -0.190558 
-0.438822 0.958266 -0.419554 
-0.0230285 -0.0073124 -0.100723 

-0.00503812 0.00595482 -0.011095 
0.0228873 0.0254218 0.0158467 
-0.000737755 -0.000235747 -0.0333689 

0.0116841 0.00743831 0.0104027 
-0.0181942 0.00481438 -0.0151759 
-0.00720467 -0.00872827 -0.0104557 

-0.0452598 -0.023919 -0.018985 
0.0589787 0.00734668 0.0130089 
0.000460684 -0.00193802 0.054738 

-0.1839 -0.118916 -1.18963 
0.0683415 0.214678 -1.47374 
0.00228359 -0.00224 0.268431 

0.0141668 -0.00476286 0.0504444 
0.0689702 -0.0018512 0.14802 
0.0453351 0.00923294 0.118619 

-0.101305 0.0240745 0.849204 
-0.126081 0.039679 0.758392 
0.0184065 -0.0247452 0.0285408 

0.0352447 0.193782 -0.121819 
-0.192922 0.0102825 -0.0150139 
0.000376284 0.00996979 -0.0429024 

-0.0534503 0.0103977 0.151194 
0.0268461 0.00875789 0.264216 
0.016981 -0.00370442 0.0733989 

-0.0215265 0.0505912 -2.93906 
-0.0693544 0.0028087 3.54037 
0.00248227 -0.000396417 -0.391508 

-0.0649393 -0.075727 -0.445336 
0.0215253 0.0797217 0.194798 
-0.0429653 -0.0312029 0.0115305 

0.00659093 -0.0631843 -0.192876 
0.0410154 0.00734664 -0.0346255 
0.00210516 0.00123116 -0.00544742 

-0.0506553 0.123323 0.194193 
-0.0342104 0.00823134 0.197989 
0.000141536 0.0041033 0.059755 

-0.0606218 0.0744939 3.39282 
0.00845556 0.0381953 1.97315 
0.00186481 0.0024973 -0.0590641 

-0.0145436 -0.0115606 -0.195553 
-0.0557629 0.00105129 0.0784004 
0.000251053 -0.000945452 -0.048757 

-0.0729389 0.0489531 -0.142196 
-0.00305948 0.0330423 0.260054 
-0.0030227 -0.00430621 -0.0111974 

-0.0518011 0.0636438 -7.75501 
0.02485 0.108187 -7.35634 
-0.00730282 0.00625204 0.0202144 

-0.00855527 -0.0111381 -0.00309352 
0.00944856 -0.00465819 0.00622974 
-0.000252856 -0.000678521 0.00797652 

-0.111958 -0.229853 -2.00976 
-0.0906186 0.118294 1.00002 
0.00287092 0.00507047 0.232624 

-0.0529461 0.13072 -31.2005 
-0.0184764 0.0375851 4.99255 
0.000164737 0.000411472 -0.669757 

-0.013596 -0.114014 -0.402326 
0.0733112 0.0181985 -0.251322 
0.00376644 0.00149321 -0.00696477 

0.0129828 0.0063689 -0.0197169 
0.00251449 0.000748504 0.0207492 
0.00431687 -0.00329224 -0.0133475 

0.0811092 0.0316226 0.315141 
-0.012365 -0.0389579 0.144863 
-0.000213272 -0.00524294 0.0300651 

-0.114529 -0.0168325 0.200301 
0.0990921 0.107185 -0.474149 
-0.0256278 -0.00908674 0.0376494 

-0.0603691 -0.0253744 0.0256864 
-0.133339 0.123467 0.545791 
-0.00947441 -0.0305442 -0.0725031 

-0.0753769 -0.162576 -0.126328 
0.116138 0.017794 -0.0856842 
0.00490737 0.013456 0.154996 

-0.0601359 0.0977911 -0.00767945 
-0.141111 0.0302946 -0.00785373 
-0.0193553 0.0266004 -0.00744301 

-0.0124532 0.151701 0.00784788 
-0.147144 0.0128257 -0.0728906 
-0.000474597 0.00119346 0.043432 

-0.0638863 0.064408 0.493253 
-0.0382189 0.0171863 1.03341 
0.0142987 -0.00262872 0.0627537 

-0.06048 -0.096898 -0.45467 
0.0858049 0.0471491 0.426859 
0.00376574 0.00725364 0.0467174 

0.00730745 -0.0971898 0.00515052 
0.0968422 -0.00292184 -0.00324018 
-0.000314686 0.00102488 0.00482837 

-0.0248104 -0.315654 -0.0313508 
0.340388 0.123733 -0.0797122 
-0.0114626 -0.00649132 0.126238 

-0.000738401 0.0101842 0.00256786 
-0.000913551 0.00327912 -0.0188275 
-2.00434e-05 0.000619139 -0.0033788 

-0.00956694 -0.0229147 0.00384792 
0.00180709 0.00429071 0.00761593 
-0.00100886 0.000348947 0.00618238 

0.00245371 -0.0241904 -2.04548 
0.171027 0.0682117 -0.679646 
-0.00737765 -0.00694671 0.61456 

-0.0730468 -0.0233996 0.0181052 
-0.0048358 -0.010012 -0.00257459 
-0.00801944 -0.0149843 0.0684728 

0.0220141 0.0634121 0.355237 
-0.0501515 0.000278847 0.53538 
-0.0145664 -0.00995111 0.107072 

-0.0488865 0.00643278 -0.0317779 
-0.0179394 0.00774066 0.0851505 
-0.0027897 0.00113326 -0.0025421 

-0.0180995 -0.0314089 0.157419 
0.00419719 -0.00748521 0.00367406 
-0.00321287 0.0021747 0.000290834 

-0.0306781 -0.0151731 0.223478 
0.0498195 -0.00706339 -0.290147 
-4.68631e-06 0.000199814 0.0209693 

-0.00253725 -0.0403967 -0.00388346 
-0.00613234 -0.0256928 0.012293 
0.000672091 -0.00219395 0.038299 

-0.0355565 -0.0122034 -0.0390158 
-0.0483899 0.0655519 -0.0100139 
0.0134495 -0.00262394 0.0190167 

-0.0205287 -0.510614 4.37093 
-0.0324574 0.152791 2.0159 
-0.00090378 0.00126121 0.0802199 

0.00883849 0.00118142 -0.00531995 
0.0192268 0.000579157 -0.0308265 
-0.000469076 -0.00267597 0.00557043 

-0.262255 -0.102062 0.531558 
-0.061465 0.22538 -0.603437 
-0.00786183 0.0392895 -0.143483 

-0.00332706 0.0347895 -0.0014005 
-0.0465131 0.0212675 -0.0808187 
0.00434168 0.00383134 -0.0278545 

0.00459253 -0.00338153 -0.002932 
0.00113953 -0.00299107 0.00538629 
5.99978e-05 -2.59338e-05 -0.00756751 

-0.0382933 -0.134446 -0.0210904 
0.0800523 0.0359653 -0.59931 
0.0230232 -0.00671763 0.163156 

-0.0203669 -0.0125202 0.0162054 
0.00575821 -0.00446947 0.00340816 
-0.000673455 -0.00187964 -0.00568657 

-0.00436306 -0.0206535 -0.123309 
0.0492456 0.00113651 -0.137897 
-0.000473816 0.00107367 0.038399 

0.0139408 -0.0298202 0.202404 
-0.00361824 0.0440357 -0.0553675 
0.00415545 -0.00196766 0.0594197 

-0.020222 -0.136667 -0.0529478 
0.137844 0.0549104 -0.174403 
0.010085 0.0171168 0.242524 

-0.0194961 -0.00884592 -0.0152122 
0.0153591 0.0121504 -0.076964 
-0.00117041 -0.00224402 0.0163604 

0.00704858 -0.0296912 -0.224489 
-0.253137 0.016863 0.163446 
-0.00420894 -0.0388471 0.0801374 

0.0467779 -0.0581238 0.060952 
0.108154 -0.025409 -0.139644 
0.00502863 0.00285586 -0.0577412 

0.00662239 0.0349351 0.243703 
0.03449 -0.000718224 -0.0380086 
-0.0196049 0.0413267 0.334224 

-0.00313733 -0.0730257 -0.0230716 
0.0457626 -0.00469106 0.0397019 
0.0229037 0.00833194 0.211945 

0.0871406 0.0152772 -0.279376 
0.0375713 -0.00850337 -0.582833 
0.0188962 0.0231584 -0.223524 

0.0179557 0.00523423 0.0281386 
-0.00294254 0.0104058 0.0479402 