# vtk DataFile Version 3.0
Output file generated by Yade's KinematicLocalisationAnalyser
ASCII
DATASET UNSTRUCTURED_GRID

POINTS 13483 float
546.223 47.0865 0.427128
651.029 70.2355 -0.488639
115.441 6.08731 -0.434005
673.404 9.45667 0.488823
471.479 8.40807 0.329404
304.741 36.9311 -0.406277
150.921 7.03046 0.475986
525.627 11.8921 0.217514
473.197 29.9943 -0.133789
615.106 18.2357 -0.530724
204.062 8.93947 -0.0914494
249.31 6.25868 -0.256027
576.896 58.9516 0.15366
563.875 24.0894 -0.154581
131.983 18.2037 0.490187
214.695 35.0626 0.393263
211.373 13.1118 -0.306999
280.183 9.75129 0.407519
329.962 35.5632 0.5042
492.704 9.49817 0.500025
397.884 39.6025 0.111309
528.52 63.5574 0.343321
671.498 46.2831 -0.495353
618.719 66.0011 -0.421859
438.133 18.6446 0.329788
233.715 46.5339 -0.128773
469.199 33.1175 -0.536523
539.111 23.1153 -0.291534
42.3692 15.907 -0.469304
620.578 52.8523 -0.37549
458.464 4.87584 0.483599
15.966 24.2649 0.331705
664.141 72.7988 0.2601
469.044 2.50965 0.604294
75.0134 45.8056 -0.100048
491.165 41.2449 -0.324993
496.683 18.9823 -0.477582
332.914 24.1504 0.183796
498.783 32.7363 -0.370604
339.712 36.1806 0.569197
234.371 14.7727 0.30675
417.227 47.5603 0.0846549
582.128 7.92336 0.263625
186.584 6.22575 0.360379
52.5542 7.34485 0.0819942
65.5399 9.02468 -0.308602
596.094 7.11259 0.636653
22.1764 12.219 -0.304782
542.142 78.8559 -0.355015
596.384 56.8026 0.346105
166.451 33.1304 0.306614
652.666 55.8692 -0.131867
33.2518 29.7843 -0.112751
500.197 3.1138 -0.464155
137.073 7.40837 -0.497608
537.866 56.0956 0.412045
479.916 34.8521 -0.118901
169.388 0.958247 -0.277013
31.1021 2.35161 -0.344044
337.704 18.0059 0.275257
556.336 84.561 0.128815
439.644 35.1073 -0.229995
385.877 1.01647 0.207068
600.688 15.6724 -0.653999
26.052 46.506 0.235568
248.649 32.9585 -0.3455
613.139 12.1716 -0.29639
590.298 86.9502 0.34736
403.724 9.26229 -0.620687
525.72 5.41175 0.644088
633.191 45.8085 0.532101
126.085 7.81653 0.286617
475.089 32.8874 -0.129794
454.993 16.0481 -0.147381
286.514 16.8387 -0.359341
19.5036 14.1187 0.328203
672.578 66.7041 0.351961
323.242 41.3877 -0.319631
596.852 48.6596 0.382897
595.871 11.5298 0.461206
664.284 21.5503 -0.251576
443.169 37.0315 0.174115
89.68 40.9762 -0.284373
606.866 73.0401 -0.264231
569.688 67.743 -0.109763
672.576 57.686 -0.110897
663.151 2.61341 -0.699073
283.93 31.1527 0.406685
567.693 7.5361 0.197934
23.5727 6.03923 -0.642906
129.164 40.0259 0.176415
484.459 16.4454 0.374781
656.827 44.1326 0.503067
189.726 29.4927 -0.242591
42.2028 36.5768 0.309172
467.807 1.44683 0.19478
229.583 8.92645 -0.449713
630.926 56.1414 -0.339456
649.594 43.8596 0.271986
349.991 22.0845 -0.265943
157.692 28.4227 0.465572
507.018 53.3867 -0.409818
368.604 16.3294 -0.512836
404.245 34.2644 0.101481
367.047 5.36702 0.48407
511.595 13.3531 0.128708
677.092 14.3928 -0.364412
77.6308 40.8321 -0.383949
325.68 4.98352 -0.240268
520.817 10.4411 -0.469626
350.883 46.7733 0.447969
23.8998 26.2685 0.482476
29.1043 6.02887 -0.319497
524.011 40.7747 0.407442
478.818 30.411 0.148523
26.1058 40.2018 0.415931
91.2082 33.246 0.233919
316.379 16.7991 0.29956
546.741 26.7026 -0.133422
454.451 41.045 0.329055
625.662 8.49709 -0.676319
619.722 6.38358 0.208763
377.266 38.1121 -0.116889
564.81 46.8564 -0.117144
233.204 17.6318 0.483657
321.2 3.92316 0.468536
100.065 32.9616 -0.374399
112.662 25.4758 0.254553
503.464 56.3809 -0.071741
298.435 19.0691 0.526173
616.181 44.4652 -0.126553
595.387 86.5658 0.104026
461.319 24.3991 -0.425801
648.838 9.7828 0.407079
412.75 28.2811 -0.239106
271.564 24.6546 -0.331188
597.638 72.5595 -0.308207
272.462 29.7777 0.426716
533.848 15.5155 -0.256913
324.524 38.2068 0.224828
479.063 13.1055 0.567762
357.278 33.6978 0.0917986
416.27 19.7139 -0.111667
310.647 44.0323 0.437052
185.966 30.954 -0.137838
655.446 70.6076 0.181781
674.951 18.0309 -0.337144
5.89158 12.7199 0.423206
417.83 27.9668 -0.421612
36.0403 24.2685 -0.0883944
367.733 32.883 0.486243
385.989 25.3253 -0.279081
71.9654 11.7828 -0.514005
49.7316 34.576 -0.475735
221.457 13.7379 0.466325
557.581 75.3225 0.10521
535.336 25.1484 -0.488977
73.0935 21.3471 -0.488819
623.087 65.2762 0.443072
640.84 5.54781 -0.507081
585.736 78.3682 -0.455851
602.268 4.63916 0.628208
512.096 35.6382 0.385273
529.624 62.8169 -0.644447
487.086 22.5271 -0.380193
671.785 4.84217 -0.301245
219.733 25.2802 -0.12308
124.888 37.3964 -0.219565
242.409 6.6832 -0.456461
91.5193 4.72785 0.281764
61.9377 10.3231 -0.235131
270.354 36.9853 -0.348541
16.6362 25.8264 -0.367668
520.79 25.2702 0.412919
544.636 74.3344 -0.197569
446.601 23.4831 -0.349834
674.751 88.4023 -0.0854
397.265 8.78031 -0.132203
422.936 48.9138 0.605425
507.498 3.18995 -0.38071
20.8467 26.4175 -0.378037
536.234 6.03121 0.571776
513.603 5.6933 0.594675
202.46 11.2806 0.500708
413.263 17.376 -0.195459
305.754 6.49913 0.370592
378.859 19.3326 -0.427803
648.851 78.7434 -0.0981145
189.017 26.2112 0.487771
657.196 10.0028 -0.442515
646.268 73.9775 0.33115
374.687 10.6381 0.186523
611.256 4.10238 0.444
545.64 40.3894 -0.407257
625.808 27.3752 -0.491934
418.192 54.7755 -0.269632
474.883 14.5205 0.574882
448.791 47.6674 0.278919
431.378 10.4926 -0.232725
588.345 80.5611 0.255907
587.627 73.5821 0.316453
188.542 40.1069 -0.346285
662.228 22.0515 -0.169393
530.468 64.0319 0.286977
11.4582 17.2925 0.187841
400.24 25.6874 0.345016
184.05 23.8432 0.418085
91.32 41.971 -0.217334
653.535 36.9468 0.489212
580.67 80.1856 -0.222751
314.116 27.5204 0.353193
504.483 12.5074 0.548107
80.0588 46.2654 -0.182127
243.866 27.1297 -0.455677
519.699 30.4937 0.386623
469.209 23.2633 0.429376
258.722 0.878746 -0.344764
515.706 50.2009 -0.570608
501.497 64.2076 -0.32043
466.089 39.1868 0.383466
479.227 2.50492 -0.635709
603.551 30.294 -0.427278
176.166 12.5842 0.175018
481.144 48.9782 -0.446639
516.754 57.0951 0.147613
70.7155 0.965404 0.274576
247.589 4.74177 0.188943
674.223 19.8613 0.297782
664.933 23.4345 -0.472558
678.02 21.9597 -0.61255
298.481 8.83154 -0.22827
633.531 33.3172 0.515727
395.467 45.5989 0.326736
434.791 0.862052 0.607016
576.264 68.8958 -0.522737
26.4364 33.5826 -0.520067
325.075 44.2623 0.592402
248.42 2.86581 0.362263
668.971 74.5311 -0.19291
620.326 88.3773 0.221136
282.717 11.089 0.262768
591.315 64.0063 -0.083237
522.684 2.56474 0.315909
512.037 9.02 0.589676
93.9037 18.6775 -0.492569
298.427 1.13067 -0.251066
336.559 2.27702 -0.36178
13.7505 7.52074 -0.503379
4.6532 32.6269 0.233723
158.831 18.7695 -0.361355
66.4807 42.5357 0.209674
65.4257 29.4991 -0.321765
413.346 15.5222 -0.471114
360.724 36.8965 0.475921
650.122 56.6474 0.131476
19.3635 4.12705 0.291329
68.4557 6.99548 0.152418
555.153 55.9512 -0.156763
290.023 0.929033 0.416618
357.672 16.7934 -0.100142
232.034 4.88285 0.373685
581.04 49.8757 -0.174863
436.349 8.8966 0.652043
634.872 33.6922 -0.482118
565.228 51.0785 0.329581
599.787 44.646 0.123034
412.735 32.3217 0.499945
100.291 47.5636 -0.312722
508.516 57.0379 0.0743294
626.008 18.0368 0.459621
234.774 32.7087 -0.254528
30.8241 17.8168 0.186717
330.109 14.1418 0.497551
105.179 42.4956 0.464841
264.39 43.6473 -0.235394
416.737 2.17367 -0.328201
658.888 49.2652 0.372876
597.463 0.792714 0.612967
326.153 3.48416 0.599492
295.386 27.7344 0.159194
447.651 44.2845 0.240199
79.6656 8.18124 0.487742
194.627 46.005 0.381448
651.543 49.5961 -0.425987
475.701 49.0145 -0.0783062
196.978 41.9142 -0.302303
157.98 43.4245 0.221847
675.28 52.9471 0.414764
676.307 16.8565 -0.590756
561.671 4.74598 -0.723343
187.284 26.185 -0.0929985
510.619 37.2252 0.13681
513.858 36.28 0.289277
401.629 5.83912 -0.139167
463.151 0.878968 0.354712
647.244 58.6884 0.49554
83.7281 32.7375 0.225311
584.879 47.0719 -0.520481
270.559 16.3589 -0.346652
9.27462 2.3987 0.322352
123.432 38.9818 -0.19456
65.78 23.7246 0.472596
614.597 52.643 0.337468
664.298 82.1859 0.185817
182.15 29.6926 -0.176242
669.919 17.5582 0.512245
43.7521 38.5019 -0.266947
90.0197 31.6521 0.155374
570.998 29.2942 -0.479462
406.224 18.1539 -0.514251
494.166 19.4867 0.105009
235.306 30.8146 0.197925
570.775 11.7104 0.547413
678.396 13.3152 0.481329
28.7301 33.8296 -0.317271
266.756 7.99144 0.188269
219.368 15.7258 -0.28273
1.05296 37.1039 -0.150555
222.511 14.503 -0.461785
208.905 11.1463 0.121693
211.347 26.6073 0.270719
131.045 29.3272 -0.125276
515.59 21.0195 -0.447573
164.129 14.2998 0.378152
663.795 70.8195 0.24275
171.352 3.86644 0.507462
46.0884 39.3842 -0.442843
656.306 85.0708 -0.426161
277.522 32.8014 -0.395363
600.363 51.8508 0.484721
664.011 50.5864 -0.575658
296.541 9.46656 -0.0925923
624.025 45.3816 -0.342784
323.184 2.49156 -0.446755
407.941 29.2904 0.370438
592.611 29.9494 -0.467358
103.672 12.3439 -0.42425
464.876 4.04297 -0.490719
636.986 29.4632 0.22931
86.5311 7.68448 -0.311714
278.191 15.1177 0.184743
414.429 12.6965 0.346037
671.348 6.31308 0.597986
390.792 2.02041 -0.532942
173.896 40.062 -0.341802
629.13 18.0452 -0.325732
126.69 38.3779 0.209969
259.316 32.4483 -0.422453
393.31 21.6137 0.211977
536.328 17.0324 -0.440547
379.939 9.66123 -0.530634
442.286 29.9274 -0.431921
650.751 71.7446 -0.376456
45.8322 11.8767 0.131286
294.803 41.3305 -0.342086
373.217 27.2251 -0.398488
402.371 21.8665 -0.285889
491.888 71.8102 -0.355422
640.609 54.9085 0.261783
592.93 74.5278 -0.343527
222.797 35.7508 0.374614
13.8141 34.1368 0.172549
586.13 74.8362 -0.144456
487.178 58.5139 0.459356
226.491 41.1207 -0.128963
604.566 66.7626 0.115213
148.2 9.54098 -0.19427
359.599 22.433 0.273297
449.188 45.5127 -0.152012
406.526 21.1316 0.205181
647.592 70.2021 -0.360043
417.712 4.68757 0.644702
47.5279 27.1943 -0.336223
455.6 34.8226 0.342507
425.231 52.9385 -0.341918
669.212 68.3382 -0.270996
627.332 62.1852 0.223433
510.694 22.4224 0.13685
659.825 64.8966 -0.496041
289.722 2.14739 -0.522052
372.495 31.1821 0.576242
29.1312 42.3051 -0.294624
623.036 50.8252 -0.177775
554.529 30.8455 -0.562303
447.69 0.772235 0.465028
123.325 4.77563 -0.36238
416.24 51.9701 0.0977264
11.6387 0.893822 -0.318898
670.033 10.9108 -0.15277
364.859 40.5629 -0.454937
[...]
POINT_DATA 13483
TENSORS Strain_matrix float
-0.374861 0.195824 0.142537 
-0.695477 0.307295 0.074564 
-0.0193984 0.0132727 0.0628603 

-0.00566571 -0.0362271 -0.299048 
0.0551383 0.000451304 -0.454643 
0.00254064 -0.0029698 0.012045 

-0.00603143 -0.00373733 -8.49762e-05 
0.00567664 0.00107412 0.02317 
0.000121403 -0.00151488 0.0186072 

-0.155219 0.00440668 -0.452621 
-0.0348004 0.0984875 -0.711627 
0.0313649 0.0137385 -0.140077 

-0.449895 -0.0561628 0.353004 
0.29513 0.255975 -0.313865 
-0.0672331 -0.0461616 0.297123 

-0.00275636 0.0102353 0.14863 
-0.00901215 0.00818839 -0.264917 
-0.00473286 0.00352346 0.0114839 

-0.00520092 -0.000775127 0.000528869 
-0.000526992 -0.00218049 -0.0347732 
0.000293544 0.00018274 0.0305055 

-0.0789766 0.120418 0.056135 
-0.111718 0.0843701 0.0668902 
0.0128862 -0.00492257 0.0426557 

-0.442356 0.105165 -0.549471 
0.204913 0.235296 0.048968 
-0.00320713 -0.000563043 0.000677228 

-0.001407 0.0446561 -0.12141 
-0.0739715 0.0433821 -0.0154081 
-0.00197486 -0.00216359 0.00150753 

-0.0052289 -0.00394943 0.00259348 
0.00520197 0.00179734 -9.37283e-05 
-0.000292928 -0.000118179 0.00613393 

-0.0132233 -0.00534163 0.00684651 
-0.00392691 -0.0150409 -0.0162598 
0.00146363 0.000559006 0.0438451 

-0.0374837 -0.168184 0.46767 
0.109827 0.064761 -0.135572 
0.0156638 -0.0145458 0.10919 

0.00454529 -0.121841 -0.0351105 
0.16012 0.0220425 -0.00183808 
0.00248056 -0.00334142 0.0240188 

-0.00394251 0.00987015 -0.0291243 
-0.0013982 -0.000148901 -0.0520237 
0.000278386 -0.000422307 0.022408 

-0.0157273 -0.0231441 0.0750559 
0.0175545 0.00110058 0.0129795 
0.000611436 -0.000203507 0.0291507 

-0.0052673 -0.00120377 -0.00116992 
0.00285968 0.00194032 -0.0027542 
0.000318491 7.00135e-05 0.00295049 

0.0118064 0.00772125 0.0928926 
0.000159451 0.00550669 -0.108817 
0.000899937 -0.00139668 0.00845264 

-0.0439386 0.00428104 0.362466 
-0.00727623 0.0155633 0.367466 
0.0210844 0.0140492 -0.135383 

-0.103779 0.133818 -0.189262 
-0.114617 0.0596422 0.460184 
-0.00380583 0.0198658 0.204279 

0.0145364 -0.185207 -0.0231305 
0.184044 0.021765 0.00314183 
0.00174123 0.000615532 -0.00142218 

-0.0221795 -0.117048 0.357808 
0.0644609 0.00847188 0.308616 
-0.00256838 -0.00333448 0.0439417 

-0.113064 -0.131377 0.51012 
0.0613413 0.0815726 0.0461971 
0.00114075 0.000999997 -0.00516098 

-0.034505 0.000219578 1.64898 
0.00748027 0.00806476 2.45983 
0.0153539 -0.00619906 0.487634 

0.0325247 -0.166894 0.388473 
-0.095246 0.119404 -0.208201 
-0.0060499 -0.00258539 -0.0524599 

-0.00601599 -0.0498717 0.00428724 
0.0536343 0.00642405 -0.00576168 
0.000339719 0.000224615 0.00487823 

-0.128363 0.0490726 8.74182 
0.102181 0.121126 3.84457 
-0.00210007 -0.00129359 0.520423 

-0.0142288 -0.171199 0.155571 
0.0684314 0.0375484 -0.194649 
0.000823827 0.0426744 -0.0703435 

0.000738823 0.0147387 -0.190361 
0.00844376 -0.00594594 -0.432765 
0.000431273 0.000381167 0.649226 

-0.428634 0.460815 -0.166205 
-0.375526 0.448273 0.0922747 
0.0136466 -0.00498293 -0.0924568 

-0.133214 -0.0653569 0.316513 
0.0962866 0.0256515 0.178872 
-0.010901 -0.0167611 0.602689 

-0.0456266 0.00487428 0.250643 
0.106144 0.0603308 0.374813 
-0.00613008 -0.0142401 0.0681262 

-0.0174792 -0.0270231 -0.0585059 
0.00653259 -0.000634363 -0.0139435 
-0.000423489 0.00124439 0.0311238 

-0.0511073 -0.0474674 2.16728 
-0.0184247 -0.0221019 -3.23523 
-0.000310339 -0.0211707 -0.31465 

-0.00706364 -0.0255915 -0.0189804 
0.0332894 0.00490706 0.00543276 
0.000213945 -0.000282016 0.00273091 

-0.159637 0.465859 -0.373367 
-0.178316 0.18968 2.09517 
-0.00685145 -0.058933 -0.160244 

-0.228859 -0.199156 0.607373 
0.111263 0.181089 1.53248 
-0.0180404 0.00536913 0.18331 

0.0179154 -0.00628805 0.132588 
-0.0299399 -0.0237275 0.0167016 
0.000293324 0.00151596 0.0198019 

-0.213418 0.132752 -0.0696372 
-0.122182 0.193967 -0.682534 
-0.00133604 0.000452019 0.0422238 

-0.024238 -0.00812596 -0.0171378 
0.0364979 0.0242601 1.93799 
0.00147233 -0.000369774 0.258035 

-0.0932786 -0.0522427 -0.00202306 
0.0678149 0.0409271 0.0173674 
-0.000701446 -0.00655539 0.0676454 

-0.0335908 -0.0441928 0.091426 
0.0975595 0.0113988 0.0606009 
-0.00429504 0.00517515 0.0833451 

-0.238635 0.270548 0.761246 
-0.201892 0.280353 0.507364 
0.0246066 0.00965978 0.0260312 

-0.00460856 0.0012642 0.00281955 
-0.000520407 -0.000137372 0.0196161 
-0.000191052 0.000296266 0.0049694 

-0.0391805 0.0739495 0.163365 
-0.0767283 0.0328385 -0.00802922 
0.0605536 -0.0528073 0.326081 

-0.0105026 0.0232381 -0.00863356 
-0.032693 0.00649296 -0.0231154 
-0.00047538 0.000371651 0.000824721 

-0.0730868 -0.014036 -1.24834 
0.0672272 0.0153723 0.610164 
0.0261081 -0.00819324 -0.298139 

0.0183226 0.00323273 0.0150839 
0.0564276 -0.0471055 -0.00309818 
-0.000707582 -0.00390498 0.0454243 

0.00818091 0.0950176 -0.174878 
0.0383112 -0.100988 0.459247 
-0.0851084 0.00816512 0.328259 

-0.0387944 -0.0952947 1.51802 
-0.191075 -0.0932046 0.90594 
-0.00660498 -0.0188276 0.100018 

-0.00688563 0.000345643 0.00623984 
-0.00412153 0.00436797 0.000138567 
-0.00383444 -0.000463948 0.0066511 

0.00244464 -0.0886566 0.223964 
0.111145 -0.0165016 -0.091843 
0.00152608 0.00108832 0.0562191 

-0.00389198 0.181972 0.216147 
-0.00742765 0.0352997 0.24278 
0.000151958 0.000557975 -0.005625 

-0.404918 0.112488 0.166545 
0.00417247 0.239162 0.167771 
-0.0149813 0.0231384 0.311178 

-0.00542016 0.00194428 -0.0173767 
-0.000673543 -0.00186599 -0.00491528 
1.33553e-05 -0.000168396 0.00633978 

-0.105477 -0.0537956 1.77756 
-0.00711658 0.137419 -1.05714 
0.00372791 -0.0010838 0.187006 

-0.843151 0.154352 -0.855495 
0.491897 0.282521 0.47476 
0.0182699 -0.0215365 0.233685 

-0.0060664 0.00353227 -0.0065519 
0.00088671 0.00139604 -0.000768887 
0.000183344 0.000757128 0.00806838 

-0.0126866 -0.0039409 -0.335108 
-0.0266509 0.0122204 -0.460923 
-0.000585035 0.0013173 0.0409999 

-0.0289095 -0.00665012 0.0978748 
-0.00763286 0.0406839 0.204 
0.00188842 -0.0011791 0.00926678 

-0.0589618 -0.116812 -2.16322 
0.00674662 -0.0341563 0.0822387 
-0.000941019 0.00831952 0.349789 

-0.00402936 0.0353424 -0.434964 
-0.0838486 0.0330615 -0.236861 
-0.0140725 -0.0120014 0.0900587 

-0.0105651 0.0132718 -0.000525618 
0.00176132 -0.0111641 0.0302575 
-0.000327912 0.000449958 0.0263821 

-0.0376264 -0.0556123 -0.313523 
0.155172 -0.00728529 0.684999 
0.00555546 0.00599421 0.150805 

0.0483981 -0.0578452 0.00848185 
0.0861676 -0.00793229 -0.0170177 
-0.000875623 0.000905091 -0.0276344 

-0.0597924 0.00566699 0.0943606 
0.0378279 0.0264056 0.338042 
0.0243007 -0.0318993 0.168394 

-0.0730464 -0.0174559 -0.0575358 
0.0116176 0.133638 -0.249199 
-0.00945494 -0.0112378 -0.046435 

-0.207408 0.948652 5.0086 
-0.107684 0.068907 0.581307 
0.00574702 -0.0339067 0.0144914 

-0.0676391 0.0199495 1.46026 
0.0102541 0.0294305 -0.056008 
-0.00369043 0.00705849 0.339802 

-0.0803742 -0.0247174 0.268549 
-0.0549282 -0.0417225 0.0450729 
-0.00253874 0.0243798 0.0756359 

-0.123784 -0.129245 0.883159 
0.158597 0.0872254 -0.0227796 
0.0285347 -0.0518566 0.107523 

-0.0054806 0.00150848 0.000476441 
-0.000157952 0.000589366 0.00607252 
9.85462e-05 0.000287181 0.00875424 

-0.299734 0.525478 -1.01339 
-0.0938669 0.275126 0.981632 
-0.0557081 0.00885708 0.331944 

-0.0234946 0.109664 0.011594 
-0.0195679 0.0209101 0.00948659 
-0.0532389 0.0152428 0.15225 

-0.0209116 0.040834 0.178044 
-0.0238122 0.0354906 -0.358349 
-0.0301521 0.0346706 -0.050748 

-0.0430483 0.0216531 -0.0267102 
-0.059351 0.00265179 0.0284307 
-0.0214559 0.0310126 -0.0348017 

-0.0538199 0.0228621 -0.0210584 
-0.099732 0.0322449 -0.0773524 
-0.00148125 -0.00511114 0.0179716 

-0.00917445 0.0199902 0.0158816 
-0.0224801 0.000850304 0.0131141 
0.000284781 -1.85977e-05 0.0179019 

-0.223112 -0.30488 -0.65161 
-0.219227 0.0357052 0.0449071 
0.0373708 -0.0436105 0.090593 

-0.204247 -0.283236 -0.180116 
0.213626 0.146754 0.123722 
-0.018009 0.0124386 0.0549443 

0.0213146 0.0167984 -0.108409 
0.00133323 0.0171807 -0.0200405 
0.00840945 -0.0021368 -0.0568659 

-0.0143666 0.0708957 -0.567042 
-0.0889261 0.0227266 -0.930072 
0.0136333 0.0161685 -0.175568 

-0.0107126 -0.00849675 0.0278599 
0.0118316 0.00542298 0.0448585 
0.000377312 0.00288194 0.0271951 

0.0220849 0.0946586 0.0982175 
-0.0536531 0.00912216 0.0875059 
-0.0081619 -1.63444e-05 0.610353 

0.00648595 -0.133446 0.0357651 
0.131527 0.0100884 -0.00739227 
-5.16587e-05 -0.00106477 0.0100206 

-0.074843 -0.0448578 -0.403398 
0.0404967 0.0797337 0.31783 
0.0129181 -0.0271796 0.0265491 

-0.0459985 0.0276562 1.12165 
0.00378403 0.112682 1.23687 
0.000350477 0.010214 -0.140116 

0.026695 -0.092926 0.0282867 
0.0737541 0.000454965 0.06662 
0.00238679 -0.00192766 -0.0123047 

-0.220055 -0.223355 0.442895 
0.44459 0.238121 -0.339233 
0.064263 0.0381503 0.301279 

-0.00794725 -0.103858 129.612 
0.00873877 0.0550119 -15.3972 
-0.000366837 -0.00535123 1.50707 

-0.00767547 -0.00169943 -0.0110477 
-0.00204354 0.00238339 -0.00624818 
0.000584358 0.000565602 0.0134186 

-0.276453 -0.153754 -0.17691 
0.351472 0.188537 0.197788 
-0.00882995 -0.0253376 0.215254 

-0.0505897 -0.0620238 -2.07802 
-0.114763 0.0660756 -1.65544 
0.00889536 0.00541651 0.159095 

-0.00127656 0.00135784 -0.0222097 
-0.00811844 0.00133805 -0.00251294 
-0.000277821 0.000261063 0.00283822 

0.0135944 0.0198977 0.39765 
-0.0939595 -0.00133738 -0.236324 
-0.00162488 -0.00317098 0.0676871 

-0.0372199 -0.0674419 0.137453 
-0.0401397 0.0658692 -0.129209 
0.00669893 -0.0155395 0.165719 

-0.0383826 0.00567212 0.0511228 
0.00678326 0.00794166 -0.135616 
-0.00189662 0.00283644 0.0867168 

0.03694 -0.0914408 0.032941 
0.10945 -0.0610179 0.0296971 
-0.00197267 -0.0071758 0.0413515 

0.0329962 -0.0689601 0.0197371 
0.049481 -0.0175269 0.170341 
-0.0177799 -0.000490827 -0.0961917 

0.0294965 0.00514363 0.451798 
0.156529 -0.0254775 0.255382 
0.00062406 0.00216572 0.00634112 

-0.000236951 -0.0114452 0.103741 
0.00185912 -0.00178384 -0.299515 
-0.00019809 2.38734e-05 0.0344501 

0.0741928 0.147406 1.06062 
-0.302244 -0.0315972 -2.91278 
0.00055709 -0.00186586 0.181462 

-0.0489202 -0.00892229 2.03366 
-0.0315228 0.0470933 -0.485193 
-0.0183457 -0.000502954 -0.852873 

-0.284081 0.185597 0.556392 
-0.0220585 0.195563 -0.111549 
-0.00967447 -0.00168539 -0.0342733 

-0.0898382 -0.0352383 0.0468498 
-0.0117872 0.00393754 0.00675279 
0.0170321 0.0124458 0.373904 

-0.218189 -0.244683 -0.247796 
0.335357 0.285358 0.272396 
0.0230893 -0.0529188 0.133504 

-0.0964362 -0.0258754 0.319823 
0.0161621 0.0468262 0.155126 
-0.00101179 0.00570461 0.0471417 

-0.0128907 -0.0125376 0.0292712 
0.0235435 0.00520757 -0.00179197 
0.000526948 0.000995793 -0.0022671 

-0.0217321 -0.00343301 0.000569018 
0.0180188 -0.00195974 -0.000972573 
-0.00113266 0.0014074 0.0375452 

-0.251899 -0.0206308 -1.46552 
-0.20701 0.128758 -1.38746 
-0.0188629 -0.0148385 0.265858 

-0.00059043 -0.167785 -4.00343 
0.00591111 0.0500039 -1.11299 
-0.00303224 0.00104772 0.255432 

-0.053647 0.0495029 1.70741 
-0.00687487 0.138666 0.0881449 
-0.0171816 0.00303576 0.0743668 

-0.0519377 0.0380676 0.0087388 
-0.0848011 0.0506574 -0.165699 
0.010712 0.0423584 0.0504844 

0.092985 0.0607117 -0.0562745 
-0.22366 -0.0529072 0.0991222 
0.0221527 0.0223203 -0.107195 

-0.224561 0.456032 0.118266 
0.242885 0.384602 1.54891 
0.0362166 0.0119497 0.0284151 

-0.00475354 -0.0497592 -1.94567 
0.089411 0.0223101 -1.99657 
0.00666468 -0.0178843 0.692837 

-0.0149533 -0.0525 -0.0695816 
0.0127562 0.00760001 0.0373857 
0.0103902 -0.000845137 0.0172162 

-0.0153414 0.0405409 0.142285 
-0.0411135 -0.00106274 -0.0119107 
0.00037485 0.00104974 0.0267849 

-0.13732 -0.471994 -0.469041 
0.356341 0.364565 -0.51516 
0.000147371 0.0308303 0.0190806 

-0.0735473 -0.098542 0.0433079 
0.0685618 0.00122796 -0.193284 
0.00412864 0.0338748 0.100654 

-0.00255567 -0.037016 -0.483434 
0.00931527 0.00930548 -1.87893 
-0.00235872 -0.00243149 0.0621182 

-0.0857267 -0.103456 0.111826 
-0.156479 0.0414925 0.0030683 
-0.020846 -0.000959115 -0.00979008 

-0.0705404 -0.0450582 0.206568 
0.0316819 0.0262973 -0.115966 
0.00594844 -0.000628019 0.102506 

-0.0423126 -0.151642 -0.00595983 
-0.00509553 0.0219142 0.201947 
-0.0134133 0.0231054 0.0967226 

-0.0802579 0.0930825 -0.0199814 
0.0598546 0.119793 0.0165232 
0.00257446 0.000672831 0.039954 

-0.018927 -0.0133904 0.515373 
-0.0171346 0.0149598 -0.14872 
0.000748717 -0.00146628 -0.0137209 

0.0109278 0.0565641 -0.15599 
-0.0512355 0.00694201 -0.0571248 
0.00164576 -0.00129031 0.0299268 

0.00203412 -0.00146253 -0.00500626 
0.00181615 -0.0054809 -0.00346503 
-0.000182603 -0.000423398 0.00233317 

0.0458301 0.188776 0.145641 
-0.249483 -0.0145821 -0.0245267 
0.0474281 -0.0388825 0.173955 

0.0070189 0.0553043 0.234301 
0.0258051 -0.00411042 -0.101471 
-0.00021702 0.00106925 -0.0412595 

-0.0864956 -0.181058 -0.114061 
-0.124019 0.154863 0.0181354 
-0.000946429 -0.00144075 0.127631 

0.0114206 0.137291 -0.0128009 
-0.0960043 0.0131658 0.0174031 
-0.0234217 -0.0635422 0.0501997 

-0.227944 0.177283 -2.23689 
0.0455747 0.149486 -0.433855 
0.00710192 -0.00611869 0.0970546 

-0.148235 0.217197 0.207668 
-0.419755 0.16099 -0.0032309 
0.0113315 0.0134177 0.0641924 

-0.433413 0.408463 0.223335 
0.2256 0.123044 0.829522 
-0.00952839 0.0118356 0.0564271 

0.00264866 -0.0515535 0.110753 
-0.0365511 -0.0246157 -0.0538638 
-0.00137426 -0.00452014 0.0637364 

0.00530611 0.221938 -0.167428 
-0.215068 0.0164278 0.140851 
0.00217418 -0.00235854 -0.00889879 

0.00198399 0.000513063 0.40838 
-0.022572 -0.0137604 0.0476694 
-0.000552481 0.00587071 0.123426 

-0.0192824 -0.0371414 0.0147102 
-0.0388883 -0.0339652 -0.0381477 
0.0322789 -0.0272941 0.0798092 

-0.00953496 0.0199944 0.00797531 
-0.0225411 0.00233168 0.0074018 
-0.000283124 2.63071e-05 0.0108487 

-0.0333836 0.0300848 0.230341 
-0.0481332 -0.0263241 0.0415174 
-0.00337667 0.00827084 0.225955 

-0.0053536 0.0664732 -0.0220852 
-0.0593017 0.00164833 -0.0115056 
0.00182528 0.00217547 0.00981951 

-0.157399 -0.101955 -0.472544 
0.248979 0.273957 0.0215419 
-0.0369029 -0.054951 0.0512286 

-0.0104028 0.0107007 -0.00108109 
-0.00219665 -0.00284072 -0.138108 
-0.00188704 -0.00223849 0.0243536 

-0.00693075 0.0111887 -0.0166762 
-0.0139838 0.0038801 -0.0111984 
0.000668857 -0.000314613 0.00767817 

-0.0261163 -0.0376 0.00570289 
0.0701385 0.0147292 -0.00309116 
-0.000260215 -0.00212372 0.0120752 

-0.04105 -0.0791078 0.0707621 
0.0953747 0.0634895 -0.0223416 
-0.0117154 -0.00689662 -0.0186337 

-0.00929683 -0.000271288 -0.0419453 
-0.00646814 -0.00723615 -0.110577 
0.00313108 -7.95998e-05 0.0645629 

-0.0595489 0.174823 -1.07629 
-0.0197648 0.0535843 1.33757 
0.00445325 -0.000664761 0.0895974 

-0.0161063 -0.0755091 0.0364142 
-0.0552499 -0.0714331 0.29789 
-0.00929069 -0.0408546 0.132212 

-0.0125125 0.0442793 0.674857 
-0.0279345 0.00247244 0.230219 
-0.00113539 8.10564e-05 0.0476998 

0.0667233 0.155528 -0.27174 
0.023462 -0.0101984 -0.250441 
0.0165143 -0.0462846 0.445417 

-0.00846136 0.000345153 -0.0766651 
-0.0201952 0.0113529 0.0397745 
0.000231496 -0.000215107 0.0364378 

-0.00427904 0.0461297 -0.688286 
-0.0595333 1.74243e-05 0.173847 
0.00874836 -0.0115039 0.250514 

-0.0169005 0.0147518 0.0584664 
0.0195645 0.000582675 -0.183808 
0.00522541 0.00502421 0.141355 

0.0165003 0.0619565 0.270672 
-0.493934 0.2713 0.406111 
-0.00363429 0.0295724 -0.119127 

-0.303059 0.0139051 -1.51804 
-0.323461 0.154334 -0.77016 
0.0188855 0.0043346 -0.074888 

0.00569761 0.0658984 0.296994 
-0.03152 0.0083393 -0.00841154 
0.00276415 -0.00258765 0.00364814 

-0.0678766 -0.0224069 -0.193417 
-0.121735 0.154396 -0.793212 
0.00384789 -0.00196998 0.061434 

0.0165858 0.0509704 0.254934 
0.0652349 0.0144246 -0.0132162 
-0.0567071 0.0144485 0.0875149 

0.0786296 0.0459287 0.190397 
0.0289861 -0.0805681 4.49851 
0.0278344 -0.0398384 1.47748 

-0.022873 -0.232719 -0.183929 
0.40189 0.00697592 0.131704 
0.0103653 -0.0197774 0.0755896 

-0.291802 -0.401329 -0.392469 
0.18844 0.293831 -0.473416 
0.00436258 0.0429493 -0.148144 

-0.0742464 -0.546892 136.251 
-0.00179722 0.0410484 -2.07106 
0.000858555 -0.00490726 1.5705 

-0.338244 -0.25256 2.10946 
0.176941 0.329762 -1.02918 
-0.00199562 0.0367875 -0.0022841 

-0.00474562 -0.232037 -0.0355002 
0.257799 0.0949126 0.0565764 
-0.0317283 -0.0194004 -0.0102905 

0.00481624 -0.0166529 0.0155617 
0.0140572 -0.00198072 -0.00829728 
-0.000701891 0.000600372 -0.00287264 

-0.00716923 0.000212491 0.00636066 
0.0075113 0.00143668 -0.00215159 
9.41344e-05 -0.000231075 0.0112119 

-0.0179406 0.0111898 0.0448457 
-0.00369179 -0.00515724 -0.0544041 
-0.000133942 0.000529221 0.0304219 

-0.00673722 -0.0295878 -0.00197874 
0.0221749 -0.0130617 -0.206561 
0.000154189 0.00237016 0.0344403 

-0.0139335 0.0355191 0.0173704 
-0.0263668 0.0132621 0.0847785 
0.00113425 0.000139287 -0.00886897 

-0.0229589 -0.00273248 -0.0993175 
-0.00637031 0.0352821 0.15788 
0.01215 0.0319433 -0.119135 

-0.119868 0.0603457 -0.704793 
0.119002 0.136444 -0.195513 
-9.55949e-06 -0.0173075 -0.154623 

-0.0258567 -0.0128584 -0.390217 
-0.0414912 0.000616568 0.453611 
0.0189686 0.0083985 0.178903 

0.0584213 0.0205782 0.00126939 
0.0921017 -0.0652847 0.0535157 
-0.0289236 -0.0286412 0.00934966 

-0.107089 0.11913 0.207503 
0.173087 0.112159 -0.545515 
-0.00373855 -0.00280384 0.0363132 

-0.00859063 -0.00384114 -0.0126312 
-0.00712354 0.00736679 0.00549586 
0.000363475 -0.000905711 -0.0018643 

-0.014631 -0.0104722 -0.00723314 
0.00589779 0.000111389 -0.0119376 
0.000460735 -0.000346085 0.0207143 

-0.0605074 -0.496907 -36.9837 
-0.0112447 0.0251245 -30.6665 
0.00460307 -0.023881 -3.93943 

-0.151342 -0.0547986 0.0392015 
0.106035 0.0235791 -0.438498 
-0.0325306 0.00682727 0.466495 

-0.0270168 0.0184569 -1.58186 
0.0592885 0.0488565 -1.13502 
0.0271408 -0.0166163 0.15583 

-0.0353747 0.0344433 -0.0217861 
-0.0134856 0.00396957 0.017306 
-0.00199336 -0.00176507 0.00525872 

-0.470403 0.276191 -0.422939 
-0.14131 0.315515 -0.817817 
-0.0325265 -0.0173849 0.181164 

-0.00525183 -0.00209084 0.0189987 
0.00387538 0.000668809 -0.0383604 
-0.000144437 -0.00034108 0.0220952 

-0.0981815 0.0583865 -0.102328 
-0.313969 0.0250041 -0.090486 
0.0953561 0.0678148 0.238289 

-0.0311362 0.0142434 -0.211484 
-0.0271743 -0.0191014 0.139901 
-0.00411294 0.0036582 0.0603743 

-0.196197 -0.0494787 0.0972963 
0.25539 0.0133416 0.183552 
0.106626 0.00884578 0.664831 

-0.0620836 -0.0136472 0.0732089 
0.103409 -0.00896461 0.204405 
0.00782338 -0.0426925 0.134094 

-0.00733561 -0.00910768 -0.0258442 
-0.00172809 0.00105828 0.0357613 
0.000507909 -8.75807e-05 0.0312756 

-0.0616686 -0.00440983 0.173913 
0.045723 0.0269407 -0.129939 
0.0105655 0.00217498 0.0698955 

-0.0144772 0.00443947 0.328075 
0.0283271 0.0112959 0.285091 
-0.000686671 -0.000743125 0.0126213 

-0.030777 0.0775986 -0.11088 
-0.0448803 0.0262207 0.0266778 
0.00681683 0.00639621 0.153002 

0.0261642 -0.298635 -0.120057 
0.00595038 0.0586362 0.304482 
-0.0138121 -0.0160883 -0.0756211 

-0.219316 -0.497572 -2.15152 
-0.437066 -0.0187489 0.587059 
0.00752136 0.00218293 0.114104 

-0.109167 -0.305686 0.306789 
0.0241109 0.101636 0.164132 
0.002126 -0.00216423 0.128866 

0.0558733 -0.144713 0.152463 
0.138254 -0.00946068 -0.0128755 
0.0252505 -0.0141814 0.0704826 

-0.150598 0.128902 -0.0198455 
-0.346427 0.0475821 -0.0769823 
0.0750296 0.0557596 0.113018 

-0.481239 -0.687067 -0.407075 
-0.0527675 0.196277 -0.337619 
-0.0139285 -0.0799422 0.325548 

-0.257187 -0.0142114 -0.057275 
-0.142296 0.120688 -0.0930782 
0.00355295 -0.0828478 0.391148 

0.102492 0.163015 0.0111265 
-0.114578 -0.0145349 -0.408902 
0.0175374 0.0472407 0.375295 

0.0333582 -0.0462098 0.00559814 
0.02341 -0.00956871 -0.181357 
0.00748049 0.0150855 -0.0945804 

-0.0143842 0.00309827 -0.00798038 
-0.0151621 0.00333203 0.012588 
0.000512967 0.00254228 0.0153421 

0.0191409 0.0833932 0.114785 
-0.0903824 0.0420928 0.131007 
-0.018751 -0.0126307 -0.101363 

-0.0238621 -0.0842151 0.0705256 