# vtk DataFile Version 3.0
Output file generated by Yade's KinematicLocalisationAnalyser
ASCII
DATASET UNSTRUCTURED_GRID

POINTS 13483 float
602.345 35.9634 0.413886
730.442 64.2208 -0.486972
119.566 6.10287 -0.442257
754.073 7.65974 0.502617
498.545 7.72168 0.364686
315.415 35.6029 -0.454015
155.911 7.0167 0.460752
568.574 10.4944 0.164736
497.089 25.9992 0.135451
687.632 16.9597 -0.544241
210.502 8.94872 -0.094661
257.332 6.33722 -0.255676
643.579 44.7881 0.133011
624.331 18.3037 -0.13251
136.614 18.0126 0.467145
221.518 34.8108 0.361527
217.949 13.0224 -0.296555
289.637 9.55371 0.431007
341.763 33.8311 0.493956
522.684 8.62617 0.346328
412.886 36.9133 0.109981
583.573 46.0891 0.570443
752.072 43.0214 -0.463356
690.274 58.8516 -0.464367
459.75 17.3137 0.314583
241.397 45.2794 -0.129451
491.356 29.6395 -0.468024
586.21 20.6441 -0.226948
44.8479 14.9202 -0.475073
697.928 50.7059 -0.36014
482.731 5.11204 0.405127
16.7977 23.6128 0.345258
743.634 66.2232 0.253888
494.349 2.58533 0.461136
77.9729 45.2694 -0.100695
522.235 33.1623 -0.355537
528.581 16.5779 -0.42746
344.623 22.7018 -0.186924
534.599 27.2291 -0.319857
351.99 33.9089 0.467098
241.282 14.5092 0.368632
434.403 38.5778 0.0920283
649.235 8.0623 0.233265
192.77 6.22805 0.375924
55.4568 7.03508 0.0843761
68.6282 8.97852 -0.297871
664.157 7.6358 0.56172
23.119 11.9326 -0.267859
599.555 56.0487 0.367466
666.472 43.4377 0.331674
172.079 32.7148 0.31536
730.231 50.1334 -0.15172
35.0317 28.4324 -0.115101
532.762 3.01832 0.335482
141.611 7.3427 -0.491633
589.123 37.0597 0.428952
505.005 29.8094 0.134317
174.6 0.950137 -0.276936
32.4048 2.36942 -0.33507
350.23 17.9378 0.251182
611.668 60.3752 0.132852
461.951 33.8309 -0.206795
401.455 1.02884 0.200928
672.653 12.3685 -0.411907
27.0582 43.6806 0.236159
256.418 31.1974 -0.302812
686.674 11.3183 -0.25921
657.849 70.1329 0.348864
420.004 8.69143 -0.487425
569.447 3.82527 -0.410242
710.442 40.3739 0.433996
130.414 7.75015 0.285764
500.151 27.6138 -0.131696
479.408 15.7352 -0.085735
295.685 16.774 -0.356513
20.3627 13.847 0.287972
752.208 58.7926 0.334883
334.372 39.5851 -0.30985
663.901 35.2278 0.340375
663.639 12.259 0.406069
744.5 19.2617 -0.330676
465.249 36.0086 0.185235
92.6374 39.978 -0.293192
676.607 61.768 -0.279273
638.446 54.3929 -0.107331
754.757 52.1766 -0.114358
742.026 2.6097 -0.729684
292.786 30.4223 0.439887
618.991 6.44526 -0.124441
24.3216 5.42062 -0.574132
133.538 39.2987 0.163911
512.546 15.2812 0.208137
736.265 40.298 0.549912
195.867 28.9024 -0.239833
44.485 35.1378 0.336356
493.218 1.28685 0.138166
236.626 8.69415 -0.431504
708.708 52.0844 -0.337604
727.729 38.4004 0.269666
363.746 20.8713 -0.249853
163.299 27.615 0.446877
549.484 41.6808 -0.447198
383.008 15.5778 -0.51001
417.6 30.3423 -0.10793
380.967 4.49229 0.414834
548.541 10.5736 -0.118975
758.244 13.4277 -0.315356
80.5371 40.2079 -0.388358
337.859 4.97605 -0.210804
562.366 9.28293 -0.467286
363.364 44.2118 0.4419
25.5968 25.3549 0.464202
30.3419 5.84506 0.306789
568.032 34.3455 0.449126
507.284 26.8453 0.146797
26.515 37.297 0.352814
93.9494 32.2626 0.234808
327.549 16.1427 0.289387
598.878 21.0981 -0.103778
477.388 40.0089 0.30725
699.253 8.29654 -0.676394
693.462 5.8769 0.190821
391.052 37.6223 -0.100828
628.604 37.0882 0.112614
239.913 17.3177 0.537296
333.239 3.86527 0.460041
103.914 32.5837 -0.389956
116.625 25.0358 0.264047
545.067 42.6189 -0.0932822
308.866 18.5577 0.512754
693.631 40.5811 0.112309
662.454 70.875 -0.105741
484.14 22.7892 -0.398411
727.268 9.68619 0.34541
432.615 24.9419 -0.244853
280.332 24.1983 -0.302439
668.282 57.652 -0.273164
281.573 29.1661 0.390983
578.906 13.0904 -0.216158
335.523 36.3486 0.210342
506.981 11.7569 0.485532
371.091 31.8513 0.101467
435.51 17.3735 -0.0977271
321.537 42.5484 0.430348
192.056 30.3045 -0.131165
735.107 64.3705 0.162119
756.017 16.6676 -0.348539
5.94258 12.6224 0.42573
439.134 23.4276 -0.431018
38.7101 22.9545 -0.0823884
381.486 31.9083 0.394995
400.222 25.0448 -0.287629
75.1374 11.8435 -0.501557
52.0502 33.7737 -0.458241
228.255 13.4386 0.467008
612.552 52.2226 0.403877
581.219 21.5515 -0.476858
75.8789 21.008 -0.509084
693.801 58.3626 0.515123
716.152 4.12458 -0.567473
655.606 60.9394 -0.542586
671.045 3.83757 0.543304
551.889 29.225 0.396322
584.456 46.775 -0.629852
516.546 19.0504 -0.392134
751.807 3.31525 0.244978
226.27 25.191 -0.12078
129.174 36.6044 -0.205539
250.237 6.67715 -0.417303
95.0691 4.67907 0.283569
64.9118 10.145 -0.228366
279.327 36.1867 -0.333863
17.1646 25.2333 -0.384094
559.132 19.8309 0.467913
601.005 50.5801 -0.199933
469.231 22.7804 -0.353983
756.674 80.3939 -0.194262
413.149 8.66841 -0.122059
440.793 39.3253 0.38127
541.152 3.30088 -0.221915
22.2764 24.7756 -0.398674
581.435 5.47815 0.519912
550.997 4.33858 -0.290696
208.862 11.3341 0.487079
431.39 16.2899 -0.19764
316.044 6.35122 0.359172
394.169 19.0107 -0.341521
722.834 70.9347 0.0704412
195.084 25.5398 0.463656
736.137 9.9508 -0.399669
720.615 67.4031 0.314763
389.478 10.3689 -0.151677
684.334 3.69835 0.534865
606.109 30.1933 -0.412755
701.392 24.6708 -0.486651
435.952 45.6577 -0.307106
501.514 12.6836 0.43218
470.326 46.0466 -0.225667
452.788 8.75376 -0.163757
657.779 63.2257 0.2981
657.974 56.4227 0.360613
194.531 39.434 -0.344448
742.374 19.5564 -0.156328
585.616 47.6038 0.273189
11.9902 16.6571 0.180762
415.579 25.1699 0.345936
189.757 23.6002 0.397042
94.2379 40.8823 0.203392
732.226 32.2403 0.49293
650.922 63.0886 -0.227507
324.373 26.112 0.348995
538.27 10.15 0.317768
83.0713 45.4925 -0.178579
250.974 25.9105 -0.473149
561.007 25.4344 0.400067
493.96 20.4279 0.426822
266.833 0.888465 -0.343802
558.341 42.3011 -0.516363
538.729 45.548 -0.464918
488.694 35.6635 0.422668
505.309 1.69487 -0.668873
676.67 26.9424 -0.390121
181.763 12.2093 0.168378
507.487 39.5902 -0.481346
569.091 42.761 0.203148
73.9682 0.95642 0.269153
255.546 4.7696 0.177748
755.402 18.6117 0.261875
744.702 21.2472 -0.456305
759.926 20.0166 -0.631457
308.565 8.59856 -0.239681
709.121 30.3408 0.552942
412.127 43.1869 0.319511
457.348 0.826903 -0.400649
645.023 53.4236 -0.525775
27.3062 31.1425 -0.303644
336.371 42.3641 0.581681
256.402 2.90008 0.340927
749.483 67.1509 -0.231688
690.83 77.1761 0.230896
292.158 10.9295 0.261816
662.559 48.9392 0.0802426
564.258 2.5499 0.27926
548.673 6.28054 0.43512
97.9312 18.7709 -0.518715
308.481 1.03642 -0.228932
349.204 2.26833 -0.361269
14.0339 7.53562 -0.466252
4.49328 32.4478 0.258255
164.081 18.6901 -0.348029
69.0975 42.2491 0.207559
67.9538 29.2655 -0.325949
431.552 14.4464 -0.475673
374.108 35.549 0.469354
728.099 50.89 0.121786
19.7066 4.09393 0.279771
71.6222 6.97121 0.146399
620.826 48.575 -0.162279
299.819 0.930756 0.38216
372.02 16.091 -0.106592
239.422 4.60896 0.401877
648.317 38.0474 -0.193109
459.801 8.74264 0.463377
710.43 30.77 -0.472254
627.705 40.3885 0.322274
664.59 33.3477 0.0859193
428.552 27.7233 0.468366
103.67 45.9445 -0.322201
549.188 45.7276 0.071513
699.77 18.1651 0.32127
242.163 31.4175 -0.260172
32.3841 17.167 0.194211
342.584 13.8939 0.507092
109.08 41.6046 0.465279
272.351 42.5778 -0.216053
433.84 1.66055 -0.370689
738.416 44.1421 0.447471
665.051 0.78988 0.594386
338.371 3.433 0.567985
304.991 26.9166 0.13713
469.578 42.7815 0.22157
82.8989 8.15688 0.470648
200.867 45.3909 0.378277
730.401 44.458 -0.359367
502.787 42.0126 -0.0857494
203.226 41.3363 -0.280728
163.298 42.9692 0.0772182
757.349 48 0.437228
757.524 15.3114 -0.537879
610.998 3.94707 -0.631879
193.352 25.3466 -0.104493
554.098 29.9077 0.098807
556.083 29.2956 0.271929
417.636 5.69144 -0.140295
488.137 1.29269 0.303396
725.389 53.0696 0.473376
86.4336 31.962 0.223403
651.211 33.6425 -0.465968
279.575 15.7603 -0.344722
9.56736 2.38809 0.331085
127.698 38.2939 -0.193676
68.3371 23.3163 0.487314
689.913 45.6888 0.394994
745.753 74.8246 0.186176
188.274 28.8834 -0.17931
751.023 16.6927 0.42438
46.0022 37.292 -0.261368
92.7097 30.6972 0.154569
632.412 20.7562 -0.480442
422.667 17.5189 -0.57188
526.257 17.1233 -0.0953236
242.59 29.5096 0.197057
625.32 5.42179 0.566463
759.51 12.1071 0.364946
30.2646 32.1613 -0.277764
275.302 7.79049 0.184059
226.138 15.5219 -0.260223
1.08108 37.0737 0.145407
229.284 14.1587 -0.478958
215.432 11.0733 0.124212
217.907 26.4104 0.271042
135.468 28.8577 -0.137371
554.136 15.4537 -0.363052
169.484 14.1593 0.378089
743.158 64.2881 0.223734
176.642 3.83323 0.510095
48.1818 38.4671 -0.447588
731.427 75.1992 -0.426954
286.514 32.4775 -0.390515
665.927 39.9864 0.429532
745.373 46.1873 -0.480626
306.607 9.24732 -0.104055
700.946 42.7038 -0.356016
335.311 2.50089 -0.423515
425.037 24.4694 0.408653
657.805 21.9443 0.433819
107.077 11.8967 -0.429652
490.137 3.85851 -0.625208
712.643 26.6225 0.196505
89.7083 7.81487 -0.292746
287.352 14.7905 0.192516
432.472 11.9576 -0.258365
751.672 5.03486 0.616275
406.413 2.01843 -0.525566
179.638 39.431 -0.321137
703.161 16.0575 -0.360643
131.006 37.5853 0.197221
268.084 31.5883 -0.416044
409.194 21.4685 0.230016
581.481 14.6917 -0.382918
395.308 9.89025 -0.496122
464.51 28.9547 -0.422963
730.501 65.6507 -0.462127
48.3295 10.8946 0.114122
305.178 39.5387 -0.305866
387.469 26.3335 -0.403171
418.885 21.1463 -0.258275
527.825 48.768 -0.356399
718.352 49.7769 0.243969
663.029 57.7717 0.35301
229.903 35.0856 0.373907
13.7107 32.6106 0.152208
656.258 57.304 -0.12818
518.157 43.9214 0.3411
233.856 40.2227 -0.115115
676.258 54.7881 0.111312
153.189 9.53967 -0.198601
374.31 21.6428 0.28312
471.21 44.0733 0.114688
423.066 19.1705 0.211889
726.938 64.8116 -0.319147
435.187 3.89636 0.549699
50.3834 26.0327 -0.31698
477.763 33.5343 0.270108
442.338 44.5495 0.370921
748.65 61.1273 -0.259246
702.372 56.2097 0.239028
549.238 18.0346 -0.159711
738.812 58.3139 -0.499066
299.423 2.20416 -0.492154
386.591 30.6437 0.596068
29.6097 39.2505 -0.308763
699.977 48.0257 -0.164847
613.302 23.2205 -0.452393
471.265 0.77391 0.454435
127.638 4.72692 -0.335259
433.672 43.1722 0.104481
11.9893 0.899305 -0.317687
750.826 9.49768 0.104441
378.32 39.8865 -0.42281
615.984 7.94788 0.46761
[...]
POINT_DATA 13483
TENSORS Strain_matrix float
-0.144078 0.318966 -2.8423 
-0.399877 0.386742 -2.76768 
0.047568 0.0479125 -0.38125 

-0.106957 0.288771 -2.30079 
-0.0465977 0.104243 -3.07526 
0.00528529 -0.0244287 0.645197 

-0.0182226 -0.0222115 0.0412516 
0.0310025 0.0208409 0.0975475 
0.00100006 -0.00473054 0.0761385 

-0.0294836 0.0107503 0.012062 
0.00813726 -0.00889373 -0.0849579 
0.00307822 0.00110577 0.0133058 

-0.0889804 0.000159456 0.105562 
-0.0511908 0.0210708 0.121656 
-0.0107754 -0.0253472 0.568863 

-0.00618835 0.00132956 0.307229 
0.00188845 0.00396284 0.217275 
-0.000121756 0.000120724 0.0202711 

-0.00859042 -0.000520645 0.286535 
-0.00383753 0.0101702 -0.694238 
-0.000554378 0.000187616 0.109209 

0.000594269 -0.110213 0.0677268 
0.0880678 0.0311858 -0.0103984 
-0.014122 -0.0237321 0.156326 

0.0174836 -0.0421013 0.24665 
0.102201 0.0239266 -0.183758 
-5.06253e-05 0.000403747 -0.00148302 

0.0694128 0.214617 -0.229833 
-0.297657 -0.0301646 0.151865 
0.00764601 0.00403719 0.0227815 

-0.0153409 -0.0179205 0.0281492 
0.0358091 0.0128648 -0.0212145 
-0.0154473 -0.0633501 0.264059 

-0.00794224 -0.00948132 0.00799953 
-0.00105991 0.00258553 -0.00181749 
0.000639158 0.000419061 0.00397988 

-0.21363 0.04407 0.244387 
0.224609 0.189411 -0.563053 
-0.013982 0.0418386 0.240745 

-0.221488 -0.202075 0.162557 
0.265086 0.241271 -0.464759 
0.00212118 -0.00119557 -0.025088 

-0.0438009 -0.0379694 0.211757 
0.0722238 0.0342081 0.179301 
0.0312281 -0.0900985 -0.16344 

-0.0257391 -0.0357586 0.285318 
0.0589896 0.0111194 -0.0021857 
-0.00240523 -0.00320516 0.0951348 

0.00291433 0.0212325 -0.0103844 
-0.00209931 0.00158732 0.00212037 
0.000849099 -0.00091026 -0.0066844 

-0.00774209 -0.0081741 -0.013883 
-0.00601949 -0.0206117 -0.0051756 
0.0017227 0.00151169 0.0558861 

-0.0282987 -0.00807565 0.0819312 
-0.0234457 0.0331666 -0.0901099 
-0.00254846 -0.00238462 0.055382 

-0.0353461 0.0377966 -0.000742332 
-0.0581144 -0.00376436 -0.00990906 
-0.00838926 0.0201913 -0.0585814 

-0.000309395 -0.156731 -0.039377 
0.148709 -0.0190351 0.0908593 
0.00263459 -0.0191061 0.322435 

-0.231054 -0.0482072 0.222408 
-0.123007 0.269026 3.51196 
0.036196 0.0104242 0.551235 

-0.169048 -0.0687566 0.363951 
0.0392023 0.142708 -0.719966 
-0.0211571 0.0310751 -0.0919893 

-0.0202757 0.362242 3.80974 
-0.498683 0.223896 -2.50072 
-0.00253291 0.00239656 0.147059 

-0.019891 -0.0541289 0.152293 
0.00620212 0.000783836 -0.213096 
0.0102419 -0.0508479 0.0636492 

-0.0237003 -0.0321441 -0.0344531 
0.0344534 0.00952503 -0.034975 
0.0533249 0.0669407 0.206887 

-0.0225604 -0.0047605 1.59271 
-0.0129212 0.0317974 -2.78221 
3.00623e-06 0.000604045 0.201172 

-0.148157 0.262827 0.603329 
0.182536 0.023279 0.139171 
0.0176305 0.0107127 0.0494256 

-0.0152441 -0.0342925 0.0984454 
0.020553 -0.014019 0.00673008 
0.0427977 -0.0239193 -0.0289728 

-1.22786 0.279895 -1.90897 
0.335463 0.392158 -0.274615 
0.03293 0.0222724 0.240028 

-0.092684 -0.00953889 -0.0797967 
0.119107 0.0489909 0.145743 
-0.0724121 -0.0849821 0.652593 

-0.00536614 -0.0883751 -0.20693 
0.0479746 0.0428346 0.0445143 
0.0208026 0.0183257 0.158041 

-0.0221095 -0.0537753 -0.0725795 
0.0727636 0.0405165 0.00677942 
-0.00269049 -0.000275669 -0.00649758 

-0.0184818 0.037225 0.0576807 
-0.0501058 0.00582676 0.0493648 
-0.00535113 -0.0243741 0.191097 

-0.0194182 -0.0380141 -0.015857 
0.0508974 0.0167929 -0.0110255 
0.000599126 -0.000963123 0.010272 

-0.212339 -0.0362336 -0.602282 
-0.158346 0.140382 -0.220071 
0.0241793 -0.00590721 0.0894249 

-0.0655164 0.0875921 0.176186 
-0.0445894 0.0768005 -1.19535 
0.00280636 0.00558414 -0.036617 

-0.0104773 -0.00505394 0.00863963 
0.0116549 0.0162582 0.0198223 
0.00116689 0.0018165 -0.0112554 

-0.133931 0.0836245 -1.34828 
0.13596 0.105279 -0.373236 
0.026698 -0.0140056 0.291065 

-0.0112079 0.00750099 0.0752375 
-0.00788934 0.00275441 0.00685596 
-6.65427e-05 0.000667414 0.00811891 

-0.0241471 -0.00647906 0.0327105 
-0.0168385 0.00202142 -0.00445481 
0.00381414 0.00467573 0.0476891 

-0.00487951 -0.0252647 -0.0391709 
0.0177698 0.00951185 0.13823 
5.07613e-05 0.0244345 0.28792 

-0.51931 0.250906 -0.84901 
-0.197224 0.377933 0.405919 
-0.0169931 -0.0444189 -0.0262704 

-0.0034415 0.00496037 -0.0254413 
0.000826911 0.00189806 -0.0063145 
0.000379011 -0.000250194 0.00689944 

-0.0123216 -0.00427332 0.00161737 
0.0076383 0.00216211 0.00748507 
0.00085071 0.000482795 0.0172309 

-0.0115528 -0.00551326 0.00359891 
-0.00197691 0.00640465 0.00373042 
-0.000147008 0.000254882 0.00827033 

-0.044103 -0.0948242 -0.0785745 
0.0720875 -3.96627e-05 0.195984 
-0.000779654 0.00797819 0.0426968 

-0.00739301 -0.00619788 -0.00244335 
0.0211092 0.010333 0.00715126 
0.00142491 2.31692e-05 -0.00979124 

0.0306472 -0.176808 -0.0686967 
0.219966 0.0530161 -0.132217 
-0.0351419 0.023426 -0.194493 

-0.228565 0.00249275 -2.13806 
-0.267503 0.273161 -1.85841 
0.00735118 -0.00580314 0.0389416 

-0.04353 0.0246463 0.100782 
-0.0750345 0.0588596 0.185327 
0.0175195 0.00911122 0.0504291 

-0.0106383 -0.0268666 -0.0761052 
0.0350041 -0.00088038 0.02002 
-0.00019571 -0.00124219 0.0238695 

-0.033729 0.0437407 0.0502113 
-0.0234103 0.0378241 -0.0578247 
-0.00956935 0.00754811 0.0785181 

-0.030535 0.0159197 0.00729961 
-0.00210496 -0.00102085 -0.0681677 
0.00277273 0.00185065 0.0335925 

-0.0105998 0.0473986 0.198587 
-0.00815092 0.00614331 0.26724 
-0.0957022 -0.0284332 0.0864096 

0.0347473 -0.240003 -1.21371 
0.311195 0.0486279 0.801363 
0.03007 -0.0196933 0.0758643 

0.0259118 -0.103991 0.133511 
0.000876794 -0.0112143 -0.211336 
0.00886856 -0.012956 -0.0459052 

-0.00327259 0.00888159 -0.00250257 
0.000326887 0.0022714 -0.00163724 
0.000282082 0.00333643 0.00440584 

-0.00982923 0.00188047 -0.0290189 
-0.00326695 0.00702626 -0.0249843 
0.000729965 0.000104959 -0.00235733 

-0.0115231 0.00181206 -0.0053591 
-0.00430839 0.0180524 -0.0381453 
0.00015675 -0.00195227 0.00112441 

-0.10774 -0.0857206 0.222696 
-0.0227594 0.445058 -0.200723 
0.000343291 0.00195083 0.157306 

-0.010684 -0.0718351 -0.310027 
0.0586969 -0.00736253 -0.121134 
0.001819 -0.00268427 0.0276537 

-0.0108078 0.00498608 0.00544888 
-0.000394878 -0.00268141 -0.000168746 
-0.000107677 0.000454763 0.0155847 

-0.0232784 -0.112709 0.292314 
0.187944 0.0486616 -0.190118 
-0.00727652 0.0221412 -0.000835201 

-0.0260525 -0.00670052 0.0511539 
0.0107846 0.0119207 0.0511431 
0.000657658 -0.00191878 0.0160989 

0.0100567 0.050083 0.00301008 
-0.0423411 0.0146705 -0.148868 
0.00739439 0.00382129 -0.162334 

-0.221196 0.21116 -0.16871 
-0.451807 0.17205 -0.111265 
0.0225455 0.0916318 0.137849 

0.0550133 -0.157069 1.42138 
0.227225 -0.0174502 -1.39278 
0.0448542 -0.0203478 -0.26842 

-0.0172587 0.00572048 0.041234 
-0.000683472 3.92807e-05 0.0341426 
0.000216099 0.000161331 0.0299967 

-0.0873949 0.0434119 0.0916643 
-0.0313735 0.0173236 0.0591454 
-0.00396933 -0.000957453 0.10813 

-0.160792 -0.178436 -0.964952 
-0.119976 0.0377382 0.784822 
-0.0149646 -0.0225997 -0.028356 

-0.0156431 0.0259983 0.109333 
-0.0295597 0.00702376 -0.014833 
-0.000110612 -0.00116169 0.0334054 

0.0755107 -0.037552 0.270153 
0.0388051 -0.0554517 -0.200671 
-0.000225746 0.00148982 0.00581487 

-0.150979 -0.115828 0.345423 
0.0556995 0.124935 0.0329489 
0.0566275 0.0301038 0.436604 

-0.00832056 0.00876938 -0.0312738 
0.0204076 0.0208914 0.206384 
0.00197812 0.00311097 0.0642464 

-0.0181122 -0.008022 0.0036292 
0.0271651 0.00663101 -0.0202477 
-0.00478016 0.000687934 0.0122964 

-0.18749 0.312145 -0.84033 
-0.0477227 0.17659 -1.02718 
-0.0192553 -0.0350757 -0.0621665 

-0.0111099 -0.00793929 -0.0154365 
0.00210783 0.00538859 -0.0494314 
0.000658202 -0.00176901 0.0101608 

-0.530829 -0.531417 0.149655 
-0.336043 0.333182 -1.50064 
0.00320398 0.0506146 0.143352 

-0.224302 -0.16805 -0.697327 
0.152133 0.0408907 0.163289 
-0.0147896 -0.00285441 0.119192 

-0.026539 0.0390029 -0.0336339 
-0.0586969 -0.00796156 -0.00293578 
0.00189891 -0.00756634 0.0263847 

-0.00228106 -0.0128582 -0.0575251 
0.0316211 -0.00671625 0.0542184 
-0.00254903 0.00992526 0.0268191 

-0.00935448 -0.0125679 0.0317585 
0.00401371 -0.00379592 0.0282691 
-0.000932784 0.00442688 0.0513192 

-0.0697688 0.134404 0.648543 
-0.240797 0.0777091 0.288351 
-0.031745 0.0386329 0.622026 

0.0450008 -0.15346 -0.0817305 
0.162723 -0.00698667 0.0128205 
0.00576694 -0.00114427 -0.0591549 

-0.00604365 0.0334727 0.0022061 
-0.0409572 0.00204432 0.0559956 
-0.000913592 -0.00190086 0.00058579 

-0.0343884 -0.0357548 -1.95086 
-0.0102242 0.0805044 -1.4577 
0.00129309 -0.00657463 -0.0157967 

-0.00659361 -0.042338 0.0228348 
0.00631686 -0.0260105 0.0292404 
-0.000316814 0.0021904 0.0164994 

0.0208043 -0.0181867 -0.0655607 
0.00542128 0.00767383 0.0333883 
0.00041878 -0.00719397 -0.0518498 

0.0157228 0.824658 125.294 
3.85155e-05 0.0109938 -0.458873 
-6.0856e-05 -0.000663451 0.138298 

-0.00707638 0.00905396 0.000101834 
-0.0222284 0.00013593 -0.00509478 
9.67157e-06 0.000121349 0.00311068 

-0.0241038 -0.00387807 0.0917094 
0.0438298 0.00879543 -0.17409 
-0.00164191 -0.0521682 -0.118138 

-0.0459588 0.00297788 -1.05653 
-0.0283779 0.014837 0.744605 
0.000152231 -0.000488129 0.19972 

0.00136587 0.00564713 -0.0105731 
-0.00447031 -0.000497569 -0.00277558 
0.000210906 0.000227257 0.00180463 

-0.00675394 0.0120724 0.0599438 
-0.0136431 -0.00211287 -0.0186663 
-0.00140487 -0.0013614 0.00579682 

-0.0401658 0.085401 -0.0611307 
-0.00674084 -0.0338798 0.25622 
-0.0107884 -0.181936 0.451035 

-0.0291004 -0.0108449 -0.0452637 
0.0221294 0.00450804 -0.372295 
-0.000499799 0.00309589 0.113445 

-0.0122893 0.0499418 -0.0187832 
-0.024041 0.0046938 -0.00334535 
0.000605404 -0.00373308 0.0126649 

-0.0162658 0.106492 0.101229 
-0.0319896 0.0232301 0.238987 
0.0111764 0.00154493 0.0858127 

-0.00601066 -0.0158106 -0.0185571 
0.0271969 0.00569486 -0.0990777 
0.000349225 -0.000913641 -0.000777111 

-0.0106284 0.0324672 0.297443 
0.00391635 0.0151377 0.0564541 
-9.47027e-06 -6.33671e-05 0.0423669 

-0.0373521 0.110115 -1.21038 
-0.123961 0.0123271 2.89352 
0.000675326 0.00128955 0.161973 

-0.0193748 0.00838244 -0.255415 
-0.0111554 0.0018246 0.259304 
0.0144729 0.0248303 -0.241427 

-0.0177206 -0.0661369 0.209215 
0.09593 -0.0144577 0.215413 
0.0128163 0.00735772 0.0589945 

-0.0171808 0.00107961 0.0862274 
-0.0075477 0.0103552 0.0510891 
0.00146361 0.000102345 0.0215688 

-0.0201115 -0.0868346 -0.0557767 
0.0308075 0.0040685 -0.00766547 
-0.000688201 0.00251683 0.0124382 

-0.0547591 -0.00483088 0.0185826 
-0.0178105 0.0159567 -0.00473806 
-0.000423419 -0.000877971 0.0468482 

-0.0208587 -0.0259808 0.162115 
0.05443 0.0169322 0.140019 
0.0110489 -0.0215438 -0.000152966 

-0.0159328 0.0074233 0.0148257 
0.025185 -0.00310924 -0.0452078 
-0.00329551 0.00452942 0.0703694 

-0.0268315 0.00762621 0.52689 
-0.0253733 0.00266191 -0.880583 
0.000185268 -0.00883977 0.0143724 

-0.0175065 -0.00404018 -0.278291 
0.0087525 0.0104089 0.0290191 
-1.98604e-05 -0.000699576 0.00934491 

-0.00740819 -0.00587801 0.0372387 
-0.00616953 -0.0138543 -0.0193215 
-0.000202763 0.000243747 0.0426373 

-0.0167977 0.0123832 0.00923765 
-0.0071564 0.0143514 0.0075041 
-0.00111568 6.0376e-05 -0.00183849 

-0.0353582 0.238632 0.0310741 
-0.0803973 0.111664 -0.258123 
-0.082269 -0.0707685 -0.399006 

-0.067936 0.188002 0.321023 
-0.13404 0.110663 0.295244 
-0.00138117 -0.00166856 -0.0201155 

-0.00720912 -0.00985331 0.0489609 
0.0152798 -0.00079099 0.0857573 
0.000251333 -0.000134319 0.0156697 

-0.0388366 -0.0198668 -0.0976815 
-0.0452142 0.0430803 0.0601273 
-0.07594 -0.0372062 0.298194 

-0.0561148 -0.0549332 -0.0407268 
-0.0300424 0.103188 0.15084 
-0.000839766 0.00189718 0.075466 

-0.380291 0.0907783 -0.900041 
-0.0460995 0.245744 -0.528886 
0.041727 0.00841029 0.0648738 

-0.017305 0.00783615 -0.0882547 
-0.0266865 0.00182987 -0.0611714 
0.000222012 -0.00103988 -0.00477348 

-0.0201191 0.00497472 0.284097 
-0.00293277 0.00271224 -0.501367 
-0.00466777 0.00391145 0.110817 

-0.0208136 -0.0215917 -0.0216728 
-0.0666134 0.0203492 -0.0786401 
0.000840807 0.00449589 0.0328775 

-0.00242262 0.0324143 0.00742441 
-0.027657 0.000761643 0.001091 
-0.000250524 0.000496098 0.00232709 

-0.125183 -0.0950724 -0.196481 
0.361031 0.179108 0.575523 
0.00264802 -0.00291652 -0.0535514 

-0.021114 -0.00333238 -0.294129 
0.00232829 0.0195853 -0.0787791 
-4.34706e-05 -0.00072359 0.101041 

-0.0250327 -0.0283382 -0.105114 
0.00289918 0.0346678 0.0155143 
0.0278211 -0.090155 0.245639 

-0.0184377 0.00878338 -0.0210062 
-0.0114251 0.0093993 -0.0128702 
-0.000203821 -0.00135917 0.0207116 

-0.0446049 -0.0162303 -0.328266 
0.0296769 0.00546548 0.0603671 
-0.00227732 0.00431367 -0.00181393 

0.00389865 0.127377 -0.0280706 
-0.144019 -0.00104607 -0.0309137 
0.000342886 0.0013432 -0.00109382 

-0.0445538 -0.00114091 -0.296881 
0.0414179 0.0406472 -0.192637 
-0.00294445 -0.00505401 0.137257 

0.125089 0.509507 0.0452302 
-0.533326 0.183824 -0.0361145 
0.0102504 -0.0496629 0.130495 

0.0889897 -0.110365 -0.105549 
0.231039 -0.0850757 0.163565 
-0.00528973 0.0177929 0.701855 

-0.0410957 0.0104824 -0.676024 
-0.0511682 -0.0104794 -1.02293 
0.0236769 0.0166736 -0.10722 

-0.041506 0.0942768 -0.0235732 
-0.0497413 0.0227445 0.00721673 
0.0115338 0.00490299 0.0492 

-0.150549 -0.153674 0.412508 
0.185974 0.147459 -0.914558 
0.0348706 0.0150331 0.0787104 

0.0271682 -0.0502171 -0.15632 
0.00791105 -0.0216447 -0.199163 
0.00189151 -0.000331584 -0.00492699 

-0.26777 -0.294754 0.36282 
0.138385 0.302754 -0.0905693 
-0.0166334 0.0167785 -0.0340481 

-0.00447537 -0.0117053 0.119949 
0.017884 0.0104062 0.00130592 
0.000440949 0.00142549 0.00747335 

-0.0311941 0.0789507 0.0450935 
-0.006104 0.000905271 -0.00952862 
-0.0088862 0.0421093 0.179738 

5.16547e-07 -0.0253983 0.00585442 
0.0075862 0.00296268 0.0214346 
0.000164641 0.0015942 -0.00488273 

-0.0268245 -0.0323163 -0.0500425 
0.0141438 0.010341 -0.0558438 
0.000950698 0.00129977 0.031424 

-0.0124161 -0.00337186 0.000592369 
0.00815772 0.00798086 -0.0116749 
-0.000217788 0.000680801 0.0152386 

0.00743023 -0.023685 -0.0525694 
0.05203 -0.0294143 -0.108118 
0.00622279 0.000970197 0.0168002 

-0.00547862 -0.00334353 -0.0540633 
2.89493e-05 0.0027443 0.0636975 
-0.00031859 -0.000657731 0.0133841 

-0.000786437 0.0119068 -0.00312939 
-0.0113541 0.00181805 -0.00688608 
-0.000319749 -0.000303702 -0.00136562 

-0.0276734 0.0229343 -0.115064 
0.0452694 0.0100147 0.0213254 
0.0140529 -0.00421047 0.00513872 

-0.0223247 -0.00594851 -0.0451475 
0.0193821 -0.0148096 0.0164648 
0.00100405 0.00356349 0.0186459 

-0.0142507 0.0292353 0.0232505 
-0.0301337 0.0166954 -0.0135072 
0.00147921 -0.0180185 -0.154592 

-0.0967533 -0.200767 -0.76336 
-0.0508942 0.093682 0.0408876 
-0.00561943 -0.00176726 0.0866705 

-0.0136169 -0.0457578 -0.0424769 
-0.00301665 0.013208 0.106296 
-0.00269686 -0.000234378 0.02845 

-0.0157896 -0.0210211 -0.201712 
-0.0192977 0.0248992 0.100929 
-0.00029537 -0.0108797 0.229581 

-0.0110706 -0.0706378 0.0132964 
0.0128818 -0.0184083 -0.0107233 
0.0146952 -0.0243126 0.0657309 

-0.0148619 0.00421696 0.0930338 
-0.010218 0.000904647 -0.0164456 
-0.00117868 0.000340067 0.0466314 

-0.0224957 0.0225004 0.0799136 
-0.0486173 0.020922 -0.184329 
0.00201781 0.000169338 0.0447383 

-0.0176628 0.054689 0.206932 
-0.0407332 -0.028905 -0.16985 
-2.01442e-07 0.00428596 0.0161138 

-0.134652 -0.0622905 0.00038062 
-0.203552 0.150979 -0.193402 
0.0354578 -0.0819448 -0.0658398 

0.0227077 0.0377653 -0.364455 
-0.0576115 -0.0992145 2.35124 
0.00730221 -0.00104094 0.0929643 

0.00872191 0.0230858 0.398862 
-0.0113948 -0.0074755 -0.835499 
-0.000654363 0.00071544 0.29934 

-0.526025 0.323837 -13.6082 
-0.0360444 0.330931 8.48975 
0.00190519 0.00625083 -0.0461691 

-0.0546014 -0.0544632 -0.0254745 
0.106255 -0.0285772 -0.600878 
-0.0118251 -0.0260884 0.0194844 

-0.0318283 -0.110465 -1.27285 
0.167349 0.0683818 -1.47006 
-0.0148179 0.00579034 0.186926 

-0.0375488 -0.0349316 -0.304445 
0.0306591 0.0196746 -0.0756218 
0.015327 -0.0370292 0.145082 

-0.0324584 0.0819282 -0.300156 
-0.196103 0.049727 -0.402907 
0.0337112 0.00837538 -0.0401322 

-0.138587 -0.0924824 6.38254 
0.0907947 0.14667 -4.00351 
0.00878618 -0.000828222 -0.0201261 

-0.000226122 0.0723254 -0.241925 
-0.0178307 0.0178545 -0.210265 
-0.000561829 -0.000536213 -0.0460618 

-0.0271445 -0.00384199 0.00132015 
7.23092e-05 0.00550928 0.000445301 
-0.00259967 -0.00368979 0.0179116 

0.00642686 -0.0304167 0.0385143 
0.0503111 -0.0126907 -0.0268076 
-0.00190824 0.00153493 0.00715353 

-0.0052946 0.0120842 -0.0232536 
0.00601662 -0.000524346 -0.00341446 
0.00715457 -0.00638499 0.0280134 

-0.0113182 -0.0073696 -0.0127953 
0.00414625 0.00243533 -0.00771288 
0.000584946 0.000689329 0.0188942 

-0.0182787 -0.0473715 0.183894 
0.0124624 -0.00336005 0.0344413 
-0.0220315 -0.000708816 -0.0221206 

-0.0108216 -0.00321596 -0.00470391 
0.00176291 0.00626905 0.0156867 
0.000645408 0.000314199 0.00321674 

-0.0114046 0.00397424 0.0016561 
0.00541796 -0.000536615 0.00462757 
0.00032525 -0.000178302 0.0245002 

-0.0276637 -0.111127 -0.415461 
0.099333 0.0318252 0.0215356 
0.0204852 0.011723 -0.0489578 

-0.000784486 -0.0912145 0.524227 
0.0666976 -0.0240738 -0.177753 
-0.000226715 0.00363748 0.0640331 

-0.249323 -0.240112 -0.508099 
0.251381 0.265102 -0.290295 
0.0402034 0.00160403 0.118095 

0.019325 -0.0859676 0.143385 
-0.0448495 0.0442425 0.933663 
0.000848164 -0.000386655 0.00994076 

-0.0144673 -0.123277 0.11606 
0.138558 0.00880291 -0.0923787 
0.00944166 -0.00806756 0.0489481 

-0.013159 0.00499885 -0.00212017 
0.000349372 -0.00100406 -0.00893671 
-0.000339766 8.71397e-05 0.0254695 

-0.0629586 0.00514812 -1.45583 
-0.0204095 0.0621172 -0.370769 
-0.00306135 0.00858096 0.034625 

-0.0126194 0.00709689 0.0522214 
-0.0193115 -0.0390407 -0.00185435 
0.00220816 -8.48608e-06 0.0960622 

-0.000100992 -0.0173209 -0.268097 
0.0562838 -0.0311872 -0.207848 
0.0112516 0.0193823 -0.113955 

-0.102997 -0.0686401 -0.530118 
0.0600163 0.0120344 -0.484717 
0.011223 -0.044596 0.0937815 

-0.00887032 -0.0223026 0.0941505 
0.0193938 0.00181411 -0.0588773 
0.00159793 0.00221394 0.0294622 

-0.0142907 0.017814 0.112536 
0.00696332 0.00954909 -0.287937 
-0.0180057 -0.00804509 0.0823054 

-0.0930921 0.0241454 0.125949 
-0.0263951 0.112923 0.182253 
-0.00327573 0.00155258 0.0258598 

-0.0124885 -0.00361475 -0.0185778 
-0.000618384 0.00265469 0.00606194 
0.00129328 -0.000355959 0.0200413 

-0.0148132 -0.00523344 0.0896916 
-0.0170395 0.0283574 -0.00756484 
-0.000514445 -7.77176e-05 0.0163874 

-0.152597 0.112645 0.187254 
0.079552 0.117665 -1.01014 
0.0216173 0.0106877 0.161127 

-0.00174342 -0.00308223 0.109749 
-0.00243113 0.000379477 -0.0262665 
0.000216218 -0.000124104 -0.00242205 

-0.0263477 0.0795706 0.0156002 
-0.0344673 0.00126359 -0.175905 
-0.00120628 -0.00260645 0.0640674 

-0.037896 0.145504 0.0555644 
-0.135139 0.0642188 -0.0169775 
-0.00721859 -0.0235493 0.144894 

-0.0187404 0.00340498 0.01388 
0.00826684 -0.00238753 0.00401587 
0.00251186 0.000102176 0.0418451 

-0.26972 -0.0555136 0.105388 
-0.219905 0.190266 0.252064 
-0.0285442 0.0365729 0.606673 

-0.12008 -0.576845 0.0493074 
0.190038 0.274164 -1.8168 
-0.00584635 -0.00120995 0.105427 

-0.212587 0.162441 -0.592061 
0.0152379 0.186258 -0.534689 
0.0400012 -0.0133066 0.132284 

-0.022213 0.00615202 -0.263914 
-0.0106087 0.0191921 0.0655998 
0.00261851 -0.0131254 0.0663465 

-0.0596559 0.000786518 0.00145467 
-0.0365787 -0.00513419 0.129874 
0.0043313 -0.0243922 -0.015278 

0.000325757 -0.0233567 0.00197775 
0.0309081 -0.014437 0.0264443 
0.00116458 -0.000899211 0.00286871 

-0.0580895 0.000175913 0.0179988 
-0.0234942 0.0234785 0.0594691 
0.000472665 -0.000601955 0.0890228 

-0.00423861 -0.223852 -0.049677 
0.266099 0.0601012 0.355894 
0.0191101 -0.00496446 0.126492 

-0.0467878 -0.139 -0.361592 
0.0681366 0.0546078 0.327483 
-0.0132546 0.00792752 0.158704 

-0.015659 0.00968898 -0.0101929 