# vtk DataFile Version 3.0
Output file generated by Yade's KinematicLocalisationAnalyser
ASCII
DATASET UNSTRUCTURED_GRID

POINTS 13483 float
620.265 31.8845 0.42602
768.882 63.0694 -0.472996
121.282 6.00042 -0.46387
794.795 7.63937 0.474733
508.787 7.82183 -0.250317
319.564 35.2422 -0.453219
158.26 6.93709 0.457244
581.443 10.2696 0.172421
505.504 24.3999 0.135206
724.361 15.5475 -0.528855
213.218 8.87087 -0.111443
260.613 6.32417 -0.259008
667.438 35.5811 0.14376
645.725 15.5833 0.0966656
138.566 17.3811 0.459286
224.336 34.6643 -0.392452
220.572 12.9267 -0.298724
293.297 9.57949 0.392325
346.065 33.6802 0.486986
534.007 8.63794 0.345163
418.379 37.1864 0.0957657
601.733 45.3038 0.35092
792.273 41.5446 -0.493948
716.569 51.136 -0.488348
466.732 16.279 0.316451
244.506 44.5923 -0.125894
500.082 28.5267 -0.458876
598.864 20.0463 -0.250036
45.4126 15.3364 -0.460342
728.864 46.8898 -0.378275
491.272 4.9453 0.329931
16.7997 23.5347 0.301994
782.517 64.4106 0.250427
504.636 2.48717 0.482968
79.175 45.1068 -0.100389
531.647 30.593 -0.339873
540.558 16.6765 -0.425999
349.118 22.4097 -0.177911
545.718 26.3143 -0.333015
356.515 33.641 0.453173
244.425 14.5246 0.370044
441.439 37.0572 0.0755995
682.378 7.23341 0.133886
195.27 6.21504 0.377336
56.1242 7.0214 0.0859826
69.4725 8.93911 -0.296737
698.27 7.84903 0.547931
23.4366 11.849 -0.275026
620.822 48.3154 0.378623
692.917 32.0008 0.313075
174.486 32.8227 0.323882
768.831 48.773 -0.135806
35.3499 28.2701 0.11283
544.451 3.00857 0.322311
143.768 7.50657 -0.483356
604.743 34.8425 0.433883
513.16 28.181 0.127667
177.028 0.947914 -0.275666
32.864 2.36531 -0.332006
354.705 17.8227 0.253245
632.251 51.9575 -0.135872
470.37 32.6928 -0.209557
406.812 1.03292 0.197539
707.51 11.316 -0.387198
27.324 43.3875 0.23562
260.17 30.7856 -0.330392
724.001 9.80567 -0.203141
684.328 56.729 0.347682
425.615 8.69617 -0.475525
582.267 3.65616 -0.341451
747.135 39.069 0.404171
132.315 7.68268 0.286996
508.38 26.0398 -0.158083
486.753 15.1752 -0.13044
299.458 16.5537 -0.365883
20.6159 13.8079 0.283746
792.68 56.8614 0.308934
338.648 39.2581 -0.299491
687.895 26.3657 0.321242
697.655 12.7133 0.326532
784.876 19.1717 -0.329863
473.71 34.7244 0.178145
93.816 39.337 -0.2831
703.015 46.9796 -0.273226
662.619 45.4078 -0.120464
795.616 50.6532 -0.123331
782.412 2.61375 -0.716611
296.55 30.1644 0.417239
636.142 6.409 -0.144582
24.631 5.36443 -0.555204
135.187 38.6582 0.164649
523.589 14.8567 0.219343
775.378 40.1856 0.489718
198.368 28.8592 -0.239465
44.9875 34.6229 0.330237
503.545 1.15641 0.137864
239.66 8.86185 -0.395422
747.195 50.5472 -0.330694
766.988 37.6994 0.269784
368.454 20.7837 -0.255014
165.529 27.6149 0.434475
561.758 40.3839 -0.449245
388.034 15.3165 -0.444343
422.456 30.1636 0.0973892
386.018 4.48808 0.415188
561.027 10.5996 -0.11347
799.193 13.5007 -0.29987
81.5249 39.9296 -0.398181
342.19 4.80716 -0.198503
574.803 9.46967 -0.327381
367.947 43.9422 0.44523
25.7486 24.9899 0.47889
30.7347 5.78269 0.320598
581.882 33.8292 0.505914
516.098 25.4194 -0.144301
26.7752 37.0607 0.332446
94.9085 31.5738 0.228766
331.981 16.0338 -0.292332
615.293 18.8384 -0.124987
486.119 38.478 0.299921
737.405 8.49792 -0.669269
731.725 6.01345 0.220658
396.004 37.4195 -0.100624
651.546 30.7471 -0.0984408
242.87 17.2973 0.537913
337.314 3.69946 0.467129
105.341 32.2495 -0.379863
117.858 24.5234 0.251891
557.258 40.6965 -0.0957889
312.803 18.6295 0.501342
729.861 39.8441 -0.134119
688.439 56.614 -0.109722
492.49 21.1217 -0.351484
766.943 9.45455 0.331705
438.41 24.7054 -0.219761
283.894 24.125 -0.292362
692.066 43.5173 -0.327625
285.266 29.0663 0.398723
592.734 12.3702 -0.204555
339.75 36.0282 0.212544
517.825 11.5771 0.483036
375.827 31.6051 0.0935796
441.605 17.3286 -0.104528
325.732 42.1579 0.428947
194.547 30.2428 -0.130161
773.479 63.0566 0.152544
796.768 16.7053 -0.314394
6.00235 12.4368 0.434201
445.672 23.0016 -0.429256
39.0697 22.6889 -0.0920559
386.277 31.5449 0.46656
405.551 25.2502 -0.271396
76.0883 11.8306 -0.493674
52.8749 33.5618 0.300986
231.147 13.6261 0.439939
634.529 44.63 0.434898
594.847 20.942 -0.455032
76.6348 20.9776 -0.520647
719.778 52.7557 0.456465
755.307 4.11482 -0.553176
680.266 48.3484 -0.499031
704.881 3.21376 0.572574
565.637 28.383 0.404011
602.94 46.1981 -0.486182
527.374 18.8406 -0.393714
792.469 3.33876 0.245023
228.834 24.9707 -0.127534
130.834 35.9183 -0.205294
253.434 6.65255 -0.406673
96.2948 4.48221 0.275617
65.7186 10.0721 -0.224135
283.032 36.0807 -0.32477
17.1762 25.2122 -0.373192
572.364 19.51 0.438535
621.671 43.2527 -0.224057
476.545 21.2655 -0.359022
797.474 76.6577 -0.192557
418.666 8.66028 -0.11554
447.98 37.4706 0.361876
553.035 3.42689 -0.195511
22.5731 24.3913 -0.380964
595.201 4.57904 0.482946
563.131 4.34205 -0.290363
211.425 11.3167 0.480208
437.546 16.5761 -0.185603
320.017 6.36176 0.352921
399.33 18.9479 -0.339624
752.462 67.2225 -0.0980221
197.572 25.491 0.460807
776.192 10.138 -0.36285
750.86 63.6312 0.316433
394.627 10.3061 -0.155688
721.226 3.6567 0.546845
623.325 27.674 -0.396245
739.248 24.0098 -0.470142
443.433 44.0995 -0.303471
512.245 12.7798 0.429139
479.038 44.5309 -0.23016
459.096 8.64178 0.119293
682.884 50.0853 0.277519
681.799 44.1371 0.325202
196.872 39.3222 0.193772
782.677 19.2697 -0.124408
604.512 46.3588 0.257319
11.9999 16.4509 -0.170297
420.192 25.1358 0.344821
192.219 23.5819 0.39588
95.4392 40.2598 0.198253
771.701 31.3518 0.458255
676.173 51.6283 -0.248192
328.563 25.7325 0.347295
549.898 10.2194 0.319944
84.3072 45.0158 -0.174007
254.484 25.9163 -0.471859
574.744 25.1797 0.358182
502.596 19.0436 0.393011
270.148 0.889233 -0.342812
571.073 41.7287 -0.402407
550.56 42.8826 -0.460776
497.59 34.4582 0.409837
515.798 1.67117 -0.663394
711.499 23.5638 -0.342573
184.217 12.1892 0.168049
516.788 37.8055 -0.46491
582.978 41.8751 0.168724
74.8357 0.955177 0.269452
258.788 4.73928 0.176464
796.183 18.6785 0.236239
784.993 21.2293 -0.421736
800.852 20.0303 -0.627896
312.459 8.59738 -0.238178
747.33 30.0801 0.480856
419.254 43.0486 -0.386668
463.403 0.813515 -0.401857
668.635 43.3983 -0.543981
27.5617 30.8812 -0.306083
340.7 41.9449 0.569506
259.65 2.87064 0.328691
788.668 64.1786 -0.210946
718.281 65.6002 0.0804009
295.844 10.9296 0.237683
687.761 37.6473 -0.0797753
576.912 2.51186 0.267839
560.829 6.31533 0.431218
99.1544 18.5115 -0.500213
312.4 1.03535 -0.227744
353.854 2.27336 -0.358609
14.2613 7.52599 -0.458995
4.55989 32.1449 0.257525
166.4 18.6 -0.34514
70.0022 42.2865 0.217748
68.5421 29.5896 -0.35313
437.411 14.7034 -0.417159
378.849 35.2779 0.472451
766.668 49.5676 0.118979
19.9838 4.08332 0.27556
72.4957 6.93763 0.141022
642.567 41.7347 0.145652
303.666 0.915965 0.374238
376.835 16.0435 -0.0958746
242.487 4.61469 0.399619
670.888 28.4694 -0.169749
466.527 8.40293 0.417647
748.716 30.5817 -0.395285
650.407 33.9233 0.296397
687.454 24.481 0.0933674
434.097 27.3443 0.464189
104.935 45.5119 -0.319692
560.998 44.322 0.0728018
738.045 18.4308 0.279307
244.916 30.7628 -0.25682
32.7418 17.0137 0.199173
347.019 13.6973 0.50424
110.513 41.1585 0.47009
275.889 42.4697 -0.20214
439.671 1.63972 -0.329148
777.727 43.5065 0.388107
698.684 0.806113 0.603703
342.736 3.21173 0.54134
309.09 26.7754 0.135826
478.221 41.3067 0.219417
83.8723 8.18825 0.460157
203.406 45.2342 0.377631
769.473 42.9807 -0.3805
512.121 40.5416 -0.0789241
205.781 41.3259 -0.265338
165.368 42.7343 -0.0542891
798.38 46.6189 0.439886
798.331 15.2654 -0.509536
628.152 3.47173 -0.653977
195.84 25.2785 -0.107198
567.847 29.5766 -0.10134
569.866 29.0929 0.266958
423.217 5.69784 -0.135776
498.431 0.921807 -0.304044
763.93 51.7789 0.468988
87.4521 31.5154 0.223369
676.691 23.6901 -0.574364
283.02 15.6047 -0.349611
9.77951 2.34027 0.345275
129.324 37.6331 -0.200977
69.1394 23.2246 0.482651
723.859 41.342 0.344799
785.804 72.4163 0.164615
190.785 28.7544 -0.178944
791.707 16.743 0.397107
46.4968 36.8222 -0.261246
93.7514 29.933 0.151453
654.398 14.8012 -0.524648
428.107 17.5137 -0.595995
537.249 16.754 0.0936735
245.468 28.8576 0.191202
643.56 4.49164 0.424549
800.391 12.1164 0.362584
30.5247 31.8698 -0.283371
278.731 7.70312 0.18206
228.785 15.4453 -0.269833
1.08817 36.7731 0.146282
232.181 14.5506 -0.397057
218.103 10.9753 0.124412
220.448 26.2621 0.269829
137.287 28.2369 -0.117734
566.93 15.341 -0.344154
171.899 14.1233 0.376383
781.942 62.533 0.228389
179.083 3.82554 0.510329
48.7178 38.0205 -0.431179
761.765 70.5349 -0.425821
290.277 32.2803 -0.383981
693.472 30.2624 0.437064
785.951 44.6281 -0.481059
310.492 9.2324 -0.105034
737.868 42.8078 -0.337329
339.611 2.5619 -0.396389
430.671 23.997 0.39163
687.748 16.5692 0.481879
108.509 11.7962 -0.430366
500.107 3.87544 -0.49087
751.143 26.1633 0.173815
90.8203 7.75647 -0.249075
290.871 14.749 0.191339
438.385 12.0392 -0.232669
792.325 5.06564 0.614205
411.826 2.01843 -0.518281
181.936 39.2365 -0.315626
741.32 16.1895 -0.407341
132.656 36.9199 0.195692
271.75 31.4767 -0.416204
414.486 21.6505 0.221534
595.234 14.1171 -0.348818
400.554 9.89417 -0.481985
472.26 27.4706 -0.423518
768.702 64.6185 -0.379064
48.9405 10.9748 0.112756
309.207 39.2309 -0.295139
392.547 26.3051 -0.388586
424.502 21.1168 -0.259758
538.437 45.2104 -0.356796
756.918 48.4301 0.252961
686.988 44.7181 0.441812
232.757 34.5929 0.37727
13.8198 32.3953 0.161934
680.057 44.8797 -0.155309
527.951 41.4353 0.401928
236.755 39.7628 -0.112304
704.285 42.0603 0.103462
155.518 9.40934 -0.203942
379.119 21.5175 0.279417
479.897 42.536 0.11193
428.523 19.1475 0.202334
765.408 63.4104 -0.32347
441.137 3.87801 0.520481
51.2659 25.5673 -0.297022
486.633 32.1028 0.322067
449.753 42.6295 0.399096
787.378 58.9412 -0.238824
736.364 48.5428 0.219514
562.054 17.9313 -0.156689
777.365 56.8485 -0.486458
303.247 2.17565 -0.480102
391.614 30.2615 0.578829
29.9352 38.9481 -0.306668
736.988 46.5081 -0.136285
632.148 21.0913 -0.494528
479.484 0.778445 -0.471879
129.666 4.6362 0.268936
441.2 41.5094 0.119787
12.251 0.908517 -0.311545
791.465 9.48107 0.0910387
383.173 39.5091 -0.422092
[...]
POINT_DATA 13483
TENSORS Strain_matrix float
-0.220994 -0.196752 0.782015 
0.0223495 0.0967877 0.146708 
0.00893956 0.0111087 -0.109442 

-0.204618 0.581259 -8.77153 
-0.0292286 0.196589 -2.29667 
-0.00286226 -0.0210005 -0.431295 

-0.0106196 -0.00417977 -0.0979972 
0.0171601 0.0093704 0.072803 
0.00195153 -0.00174424 -0.062839 

-0.0728345 -0.0335506 0.085924 
-0.15423 0.102183 -0.624295 
-0.0389903 -0.0465404 0.442123 

-0.0482801 -0.00516669 -0.0103062 
0.000674885 0.0306632 -0.0695717 
0.00329936 1.77127e-05 0.0500831 

-0.00178517 -0.00423161 -0.229141 
0.00670734 -0.00072542 -0.0221268 
1.48128e-05 -0.000191714 0.0107586 

-0.0115734 0.00140937 -0.0208456 
0.00228249 0.00101244 -0.0687551 
0.000216615 -0.000291136 0.0524187 

-0.00967588 -0.0703426 -0.0334842 
0.0119716 -0.00518328 -0.00629498 
-0.00210789 -0.00746772 0.0427462 

-0.133879 0.0485525 -0.899667 
-0.046071 0.178689 0.760836 
-0.00142355 -0.0010468 0.00606944 

-0.0745994 -0.0118699 0.215268 
-0.0088869 -0.00102121 -0.0441367 
-0.00698836 0.0177474 0.127012 

-0.00904923 -0.00361036 0.00315007 
0.00483494 -0.00270929 0.00892869 
-0.00110675 -0.0219168 0.082779 

-0.00896497 -0.00285922 0.00388126 
0.00592846 0.00394626 0.00229227 
0.000327652 0.000306902 0.000458317 

0.0061016 0.248571 -0.677734 
-0.191723 0.040805 0.280192 
0.000102028 -0.00277412 -0.00480443 

-0.0722917 -0.0702778 0.00953221 
0.108118 0.0737561 0.0896333 
0.0554359 -0.0130982 0.186773 

-0.0244899 -0.00807961 -0.192678 
0.00288108 0.0309429 0.269122 
0.000183854 -0.000830684 0.0481703 

-0.00894316 -0.00607073 0.000637814 
0.00773242 0.0011836 -0.0194184 
0.00315459 -0.00161221 0.0216071 

-0.0091644 0.000361646 5.66397e-05 
-0.00309124 0.00124821 -0.0101953 
0.000151312 0.000284148 0.0100318 

-0.0168457 0.00246818 0.0123898 
-0.00936134 0.00341863 -0.00415696 
0.000392959 0.000372229 0.022398 

-0.0184525 -0.00885108 0.0012222 
0.00368936 0.00705592 0.139709 
0.000620546 0.00157669 0.000212057 

-0.0062978 0.0156174 0.0238328 
-0.0384128 0.00485678 0.142733 
-0.00199019 0.0108788 0.058626 

-0.0117488 0.0395406 0.0955045 
-0.00734208 0.018008 0.0160964 
0.0498243 0.0227489 0.308776 

-0.0857138 0.0227666 -0.508329 
-0.00838854 0.076438 1.26966 
0.0106808 0.0360287 0.622201 

-0.0774636 -0.158107 -1.7506 
0.0641479 0.0825146 1.6323 
0.000709826 0.00411733 -0.0863613 

-0.199285 -0.188598 3.56597 
-0.127482 0.234614 3.28503 
-0.0243578 0.0129782 -0.614325 

-0.00159499 -0.0143992 0.0822661 
-0.0311544 -0.00925147 0.187852 
-0.00196281 -0.00112785 0.00103569 

-0.00688112 -0.0083353 0.0123307 
0.0118759 0.00454737 0.00541267 
-0.00408357 -0.00695792 0.0253342 

-0.0659484 0.0912246 -0.421577 
0.000866264 0.0747987 -0.362142 
-0.000977071 -0.00410493 -0.431118 

-0.0153329 -0.026154 -0.000379228 
0.0167293 -0.00289198 0.0770504 
0.00187129 -0.00139148 0.0237838 

-0.0044761 -0.000619375 -0.0634847 
0.00272192 8.98278e-05 0.191518 
0.00025644 -0.000437781 -0.00616004 

-1.73937 -0.611098 2.05888 
1.6469 1.31863 -3.78026 
-0.0587753 0.0507024 1.06817 

-0.0134418 0.00154397 0.0651683 
0.0193441 0.0185822 0.0482386 
-0.00713471 0.0473824 -0.196972 

0.0198827 -0.0949033 -0.272802 
-0.0878918 -0.0118873 0.118891 
0.000624462 -0.001927 0.0205388 

0.0378158 -0.0109213 -0.0141536 
0.0243789 -0.0371515 0.0905179 
0.00124654 -0.0017908 -0.0256819 

-0.0215779 0.0622686 -0.657283 
0.00539364 0.0175653 0.324861 
0.000255107 0.00764927 0.0790073 

-0.00822572 0.0109999 0.000323516 
-0.0123457 0.00267057 0.00013862 
0.000316846 0.000188355 0.00565529 

0.00868223 0.0490739 -0.199617 
-0.0501126 -0.00054168 -0.167419 
-0.00201201 0.00193504 -0.0147543 

-0.0244037 0.0316216 -1.01033 
-0.0105267 0.0238253 0.210196 
0.00378998 0.000347803 0.0958338 

-0.105501 0.0642911 -0.205008 
-0.0542628 0.0513645 0.0982204 
-0.00318029 -0.00182077 0.0393568 

0.0476125 0.135835 0.838135 
-0.0100966 0.040083 -0.314391 
0.0032411 -0.00226365 0.0931371 

-0.0128112 -0.0137888 0.257086 
0.00737307 0.000540223 0.193864 
-0.000129994 -0.000800631 0.0362875 

-0.01329 -0.00860691 -0.0173446 
0.00326425 0.00522654 0.0133624 
0.00078463 -0.000539144 0.00888881 

-0.00698718 0.026038 0.012125 
-0.0112273 0.00863213 -0.0162239 
0.000272644 -0.00073987 -0.00980939 

-0.00424262 0.05844 -0.00686668 
-0.130346 -0.0732168 -0.0244041 
0.00145793 0.0172937 0.0224184 

-0.00809514 0.00195559 -0.00975124 
-0.000713212 0.00194505 0.00772608 
0.000477478 -0.000437239 0.0117871 

-0.0285964 0.0180205 0.024772 
-0.0242395 0.0117209 0.0532602 
0.00184869 0.000638543 0.00898755 

-0.00747886 -0.0105669 0.0242299 
0.00708611 0.0010693 0.0122034 
0.00216841 -0.000656831 0.0227264 

-0.254553 -0.192607 -0.874727 
0.12283 0.23852 -0.127582 
-0.0432164 -0.00712827 -0.0931879 

-0.0114409 -0.0303309 -0.000579544 
-0.0247623 0.0167847 0.00215996 
0.00215718 0.00166384 -0.00293729 

-0.0106784 -0.129284 0.00643836 
0.129359 0.00996569 0.0289657 
-0.00452705 -0.00318088 0.0272109 

-0.228507 0.689296 -3.20214 
-0.023925 0.347454 -1.99222 
-0.0210355 0.0325186 -0.0856618 

-0.0223615 -0.00920294 -0.0975776 
0.0056928 0.0043637 -0.0417253 
0.00830291 0.00252067 0.0493227 

-0.00270864 -0.0557034 -0.00427406 
0.0747187 0.0119133 0.0651612 
0.00261821 -0.00271144 -0.0238217 

-0.00426706 0.0158427 0.000912008 
-0.0138057 0.00269529 -0.00588549 
0.000235394 0.000149901 0.00293756 

-0.0162883 0.00121442 0.00518849 
-0.00278378 0.00399083 -0.00665542 
0.000778518 5.00066e-05 0.00848189 

-0.0122947 0.00461689 -0.120059 
-0.00225231 -0.00331482 -0.352639 
-0.000970365 0.000204569 -0.0637247 

-0.0114988 -0.124382 0.631888 
0.0586512 -0.000275911 -0.5774 
-0.0212177 0.0090451 0.0128469 

-0.0638801 0.0492522 -0.0824038 
0.107859 0.00628291 -0.355588 
0.000428565 0.00226606 0.0105041 

-0.0101897 0.0181674 0.0110195 
0.00111623 0.0053456 0.0047569 
0.00036079 0.00585221 0.010439 

-0.00836579 -0.00708832 -0.0213593 
-0.00423657 0.00850503 -0.00418513 
0.000217623 -0.000501052 -0.000603569 

-0.00447629 -0.00227978 -0.00244624 
-0.000662903 0.0119987 -0.0230284 
0.000608685 -0.00183848 -0.00440314 

0.0819076 -1.13351 -1.28184 
0.041476 0.351262 -0.659985 
2.62069e-05 0.00111946 0.0170555 

-0.000571424 0.000555345 -0.0573163 
-0.000599262 -0.000931055 -0.0428875 
0.000120076 -0.000451829 0.00768549 

-0.00962118 0.00289644 -0.00503802 
-0.00831411 -0.00678265 -0.0248857 
0.00107167 0.00118679 0.017156 

-0.208748 -0.0914829 -0.409674 
-0.097904 0.178447 1.3214 
0.0557172 -0.0120781 0.0145255 

-0.0553809 0.00845333 0.0913812 
-0.0328002 0.0332753 0.149486 
-0.000462151 -0.0649177 0.206762 

-0.0130958 0.0156928 0.0669352 
-0.0351208 0.0157444 0.0406887 
0.00221649 -0.00329455 0.0292775 

-0.217332 0.113436 0.197215 
-0.187699 0.151597 -0.08068 
0.0146156 -0.0104756 0.155684 

0.0881918 -0.0755334 0.156687 
0.0724757 -0.0232611 -0.204731 
-0.00340457 -0.00559704 -0.140438 

-0.00728773 0.0101186 9.81504e-05 
-0.00579152 0.0029952 -0.025494 
-0.000159418 0.000127956 0.00309345 

-0.0395243 0.0434041 0.0489516 
-0.0647015 0.0191378 -0.0647134 
-0.0670813 -0.00559576 0.429049 

-0.0534553 -0.676887 0.0634022 
0.290192 0.254256 0.423185 
-0.0020829 -0.00292446 0.0250906 

-0.0110855 0.00947749 -0.00550082 
-0.0106227 0.00494754 -0.0192265 
0.000301738 0.000380992 0.0106493 

-0.153105 0.0669531 0.151379 
-0.114593 0.18692 0.865885 
0.000180838 0.000935729 0.00579298 

-0.00657752 -0.00254379 0.0341721 
0.0157133 0.0146643 -0.0102181 
-0.035222 0.0131514 0.316945 

-0.0126365 0.00651008 -0.054538 
0.00123944 -0.00199085 0.0431182 
0.00164814 -0.00528636 0.0196954 

-0.011584 -0.0252304 0.000485611 
0.019439 0.0129799 -0.00501438 
-0.0031245 -0.00175426 -0.00852477 

-0.403864 0.353246 0.568656 
-0.118612 0.299643 0.865931 
0.0131078 0.0242024 0.00689768 

-0.0125455 -0.00668746 -0.00903963 
0.0128175 0.000895298 0.00387213 
0.00156598 -0.000312203 0.0311448 

-0.365085 -0.209084 -0.657797 
-0.178355 0.277801 -0.820758 
0.0146129 -0.0052844 0.0209641 

-0.682095 -0.464418 -0.997439 
0.194825 0.526302 0.305375 
0.0336521 -0.12578 0.546 

-0.0145899 0.186672 0.0124048 
-0.111552 -0.0219584 -0.298584 
-0.0299501 -0.00422065 0.0676266 

-0.00188259 -0.00177661 0.00157288 
-0.000853773 5.39676e-05 0.002911 
-0.000249945 0.00042649 0.00524486 

-0.00960031 0.0099666 0.00481527 
-0.00560199 0.00384159 0.0454279 
0.000749738 0.00108457 0.0209909 

-0.125822 -0.048362 0.0289918 
0.0991549 0.0992979 0.378367 
0.00413398 -0.0159045 -0.0920809 

0.0182388 -0.115026 -0.0235307 
0.103254 0.00599635 -0.0384095 
0.00398222 0.000511738 -0.016239 

0.00435157 -0.0237074 -0.0314863 
0.0265311 0.00666012 0.0107772 
0.00162954 -0.00109172 -0.00154963 

-0.129891 -0.10803 -0.383724 
0.05605 0.0928368 -1.65347 
-0.00334148 0.00220617 0.250002 

-0.0329292 0.047902 -0.115078 
0.0371079 0.0626157 -0.277272 
-0.0017369 0.00255466 0.00334417 

-0.155462 0.0194792 -0.0677292 
0.13579 0.0689491 -0.000530187 
-0.00780541 0.00876549 0.107386 

-0.0160021 0.133353 22.1054 
-0.00244907 0.0107759 -3.91497 
0.00157464 0.00525693 0.474892 

-0.00776311 0.00366248 -0.00355012 
-0.0119478 0.00103081 -0.00386381 
8.96889e-05 0.000236272 0.00698761 

-0.0984899 0.00633989 0.0479681 
0.05107 0.0558642 0.0590495 
0.00486313 0.000651279 0.0231281 

-0.101333 -0.105313 3.17317 
-0.130903 0.076473 -1.43797 
-0.000175133 0.00244017 -0.00766281 

-0.00624108 -0.00140398 -0.0611909 
-0.0303334 0.000156587 -0.0419274 
-0.000188377 0.00147906 0.01276 

-0.0122032 0.0115738 0.00442654 
0.0149556 0.00564638 0.153794 
-0.0181822 0.000922339 0.142484 

-0.00423049 0.234383 -0.400389 
0.00621322 0.0112531 0.0812597 
0.000680458 0.01207 -0.0149214 

-0.0133828 -0.00173867 0.02409 
0.00747276 0.00255349 -0.0283191 
-0.000665599 0.000884252 0.00940815 

0.012164 0.0316323 -0.206036 
-0.211432 -0.0364359 -0.581242 
0.00421685 0.00425616 0.050921 

-0.141083 0.0607938 -0.282807 
0.136911 0.104632 0.01726 
0.00473868 0.0176797 0.0277362 

-0.00328178 -0.0264505 -0.108411 
0.0179543 -0.005191 -0.0495276 
-0.000623178 -0.00099652 0.00995288 

-0.014963 -0.00547975 0.0303624 
-0.00141042 0.00792971 -0.215675 
0.000925632 -0.00249272 0.118428 

-0.0495578 0.0657937 -0.785037 
-0.117108 0.0383571 1.41799 
-0.02298 0.000102154 0.893138 

-0.0145356 -0.00545916 0.0452176 
-0.0103887 0.00604855 0.0515162 
-0.000526131 0.000745836 -0.00192899 

0.0172778 -0.0215032 -0.0167089 
0.00705392 -0.00796465 -0.00872618 
-0.00214584 -0.00140564 -0.0256997 

-0.011391 0.00311085 0.0425341 
-0.00387363 0.00742948 0.0314047 
0.00108718 -3.196e-05 0.0154737 

-0.00804637 0.0169074 0.00633659 
-0.0118265 -0.0173032 0.0173824 
-0.00107041 -0.00143759 0.0434896 

-0.0892702 0.0700108 -0.202308 
-0.398892 0.129736 -0.200614 
0.0279839 0.00879194 0.198021 

-0.0130173 0.0119646 0.0519466 
-0.018792 0.00295138 -0.0369531 
0.00109653 0.000900279 0.009256 

-0.0164618 0.00565561 0.00380899 
0.00571052 -0.00488018 -0.00635338 
-0.000318789 0.00195324 0.0433869 

-0.0299036 0.0076991 -0.607051 
-0.0102241 0.0146681 -1.25106 
0.0377433 -0.0112583 -0.0705381 

-0.0104787 0.00213484 -0.33765 
-0.0040274 0.00116576 0.0730574 
0.000454012 0.00101215 0.0667587 

-0.0399917 -0.0043386 0.913894 
0.0234372 0.0399184 -0.668431 
-0.00277655 0.000273845 0.052977 

-0.0104083 0.0016609 -0.0167921 
-0.00666501 0.00743129 0.00813572 
0.000783709 -0.000123827 -0.00524437 

-0.0195373 -0.0391333 0.00217814 
-0.0147162 -0.0258458 0.0577422 
0.0272863 0.00471571 0.21075 

-0.0553055 -0.00954757 0.337946 
-0.0788484 0.114585 0.299326 
-0.000665435 0.000850387 -0.0189352 

-0.0159858 0.0323634 0.0411287 
-0.0224873 -0.0016073 0.161376 
0.000939613 -0.000239111 0.0215814 

-0.0105337 0.0113633 0.00882571 
-0.0153453 0.00159075 0.0073634 
0.0098774 -7.08357e-05 0.00405588 

-0.00685056 -0.0119335 0.0104562 
0.0172502 0.0164866 0.00906059 
0.000950909 -0.00115028 -0.0135703 

-0.0725054 -0.128344 -0.208209 
-0.0687704 0.0539717 -0.128915 
-0.00248322 -0.00951612 0.0382467 

-0.005402 -0.0208047 -0.0104037 
0.0216776 0.0039231 0.0138643 
0.000526472 -3.43571e-05 0.00204707 

-0.0731644 -0.0866867 -0.0824492 
0.112909 0.0701338 -1.21577 
-0.00453269 -0.0038021 0.0759086 

-0.0237204 -0.071608 0.00631773 
0.015284 0.0170343 0.0199957 
0.00395436 1.10286e-05 0.042462 

-0.00556308 0.0120903 0.00956689 
-0.0113375 0.00340917 0.00235735 
-5.54533e-05 5.92856e-05 0.00492465 

0.00775331 -0.284319 -0.306708 
0.113147 -0.0607624 -0.347557 
-0.000949233 -0.00341394 0.0347335 

-0.0132815 -0.0029625 -0.0918793 
0.000226147 0.0085087 -2.13777 
3.6377e-05 0.000321756 0.605348 

-0.0108274 0.00418587 -0.0684789 
-0.0020255 -0.00168579 0.0373167 
-0.000301914 -0.000513932 0.0166407 

-0.00789521 0.000330468 -0.0303947 
0.0126979 -0.00608527 -0.00076628 
0.000863232 0.00029172 0.0125935 

-0.0540826 0.0367653 -0.0882592 
0.0237068 0.0174033 0.132479 
-0.000488114 -0.000126212 0.00567389 

-0.00602803 0.0786019 0.065726 
-0.0838212 0.02918 0.0115823 
0.0531954 0.0258046 0.44306 

-0.0156019 -0.00920469 1.08645 
0.00562044 0.0112155 -3.02471 
-0.000494932 -0.00015027 0.544496 

-2.04194 -0.387165 4.52131 
2.11587 0.376864 -3.15978 
-0.0211406 0.101932 0.786807 

0.0914164 -0.0609534 0.0447836 
0.134349 -0.0245004 -0.111183 
0.0170412 -0.016357 -0.111674 

-0.0167197 -0.0386333 0.314499 
0.0101413 0.01418 -0.0156006 
-0.013652 0.000122843 0.121588 

-0.289641 0.284362 -0.0766964 
-0.359006 0.385986 -0.0606029 
-0.0454878 -0.00435131 0.00118507 

-0.14267 -0.0283863 -0.19925 
0.00222033 0.0452964 0.458984 
-0.00817743 -0.0262983 0.128086 

-0.00436028 -0.000694906 0.0279629 
0.00488958 0.00700682 -0.0686674 
-0.000379828 0.000177279 0.00125876 

-0.40869 -0.0774685 0.592784 
-0.000758639 0.319209 -0.351727 
0.00416933 0.0777185 0.281141 

0.00676259 -0.0258807 -0.172004 
0.0133948 0.00449906 -0.0853513 
-0.000147903 0.000371391 0.0211007 

-0.000584696 -0.0273544 -0.054647 
-0.0209112 -0.00823627 0.0178613 
-0.00269094 0.000939472 0.0229157 

-0.00973949 -0.0104694 0.00126176 
0.0148926 -0.00327936 0.00642373 
0.000223448 0.00265632 0.0226487 

-0.00479947 0.0264554 -0.0512042 
-0.0485386 -0.0201222 0.130237 
0.000251792 -0.000321474 0.0492266 

-0.0130361 -0.00925803 0.0303358 
0.00539696 0.0152006 -0.0435716 
-0.0299643 0.0100356 0.059003 

-0.0719085 0.0217834 -0.495974 
0.133434 0.00354285 -0.0671084 
0.00136271 8.69789e-05 0.0461803 

-0.0101332 -0.00561632 0.0440712 
0.00583934 0.00328723 -0.0113477 
-0.00765793 0.00283413 0.0518618 

-0.00263613 0.0123415 0.0100924 
-0.014174 -0.00116423 -0.0376524 
-0.000380547 -0.000758025 2.97268e-06 

0.00475692 -0.00664229 0.00575264 
0.0534223 0.0134615 -0.0178115 
0.00620205 -0.00352005 -0.048475 

0.0306341 0.0179345 0.0858088 
-0.0427372 -0.00720303 -0.0703586 
-0.00210169 0.00795564 0.0326102 

-0.0301802 0.0342211 -0.0308966 
-0.0596291 0.0159875 -0.047814 
-0.0326626 -0.0190933 -0.100197 

-0.00684092 -0.0391526 0.805737 
0.0156745 0.00209908 0.0649897 
0.00311848 0.00265928 0.0225272 

-0.000307803 0.0111315 0.0258221 
-0.00551058 -0.00691241 -0.0678739 
7.10954e-05 -0.000306687 0.000479271 

-0.0106689 -0.00440112 -0.266647 
0.00934932 0.00976528 0.222806 
0.00340751 0.00273248 0.0269666 

-0.00795961 -0.00923238 -0.0266176 
-0.00748434 -0.00569419 -0.0130617 
0.000867347 0.000348913 0.0170018 

-0.015637 -0.0101121 -0.144344 
0.00104911 0.00534644 0.139923 
0.00598383 0.00213406 0.0185205 

-0.0106639 -0.0136356 0.00216347 
0.015492 0.0085165 0.0143415 
-4.34957e-05 0.000937968 0.0160364 

-0.0112566 0.0116913 0.0543419 
-0.0125644 0.00199179 -0.165812 
0.000874399 0.000361049 0.0461286 

-0.0569331 -0.0182555 0.141798 
-0.0520446 0.0483392 -0.116288 
0.00152011 0.0154525 0.208113 

-0.0190819 -0.0242874 -0.0182844 
0.00743542 -0.035269 0.0342082 
0.000200183 -0.00183038 0.0559642 

-0.0225538 0.0127067 -1.30351 
-0.00102748 0.00992406 1.22716 
-0.000275892 0.000111854 -0.099545 

-0.885565 -1.14466 -7.3158 
0.459738 0.7941 1.10989 
0.0088857 0.00204447 0.167143 

-0.135083 -0.0309823 1.14947 
0.209386 0.129324 1.02112 
-0.0138001 0.0112587 0.0529956 

-0.0363933 -0.164354 1.64792 
0.195343 0.070689 -1.58105 
-0.0148512 -0.00360855 -0.380106 

-0.365615 -0.195255 -0.864937 
0.101222 0.0906605 -0.528464 
-0.0231637 0.0414241 0.177437 

0.0659904 -0.0371432 0.163209 
-0.195488 -0.118837 -0.825049 
0.00217145 -0.00219867 0.0544662 

-0.0881791 -0.000575133 0.294384 
-0.0112183 0.287647 -1.87753 
0.000253198 -0.00251196 0.162224 

0.0309827 -0.0143453 0.563491 
-0.0474495 0.0289281 0.425612 
-0.0197303 -0.0287246 0.0778951 

-0.170574 -0.136717 0.350417 
0.305984 0.160873 0.00680731 
-0.00654802 0.0115297 0.0537965 

-0.004443 -0.00409201 -0.0194071 
0.00435656 0.00102598 0.0140493 
0.000640821 -0.000488071 0.00449457 

-0.0065833 0.00476761 0.00347809 
-0.000304512 0.000467159 -0.0025396 
-0.000704296 -0.0015552 0.0169364 

-0.0123107 0.00159017 -0.0322109 
-0.00105714 0.00139426 0.000293641 
0.000235961 -0.000581514 0.0144005 

-0.00896626 -0.00756924 0.0148553 
-0.00210763 0.00120785 0.018593 
-0.000345367 -0.000315429 0.0259552 

-0.0260842 -0.00929153 0.0679806 
0.00139737 0.0104903 0.045623 
-0.007147 0.0267459 0.131747 

-0.00646572 -0.00888708 -0.00404432 
-0.0012619 0.00159866 -0.000468915 
0.00336269 -0.0020581 0.0443234 

-0.046019 -0.130437 -0.0483104 
-0.0118845 0.040175 0.265488 
-0.000714878 0.00110871 -0.00544877 

0.00770783 -0.0748625 0.908078 
0.0137298 -0.0240847 -0.17043 
0.0132357 0.00327002 0.212694 

-0.00841896 -0.139238 -0.0592146 
0.157266 0.0234533 -0.0137368 
-0.00719341 -0.0280293 0.201458 

-0.0010347 -0.00546617 -0.0955661 
0.0105265 -0.00487175 0.111009 
0.00110006 -0.0013758 -0.00872567 

-0.00191179 -0.179844 0.347095 
0.264112 0.0263735 -0.241179 
0.00164614 -0.00815763 -0.0216893 

-0.00678002 0.0108184 -0.000157343 
-0.0129595 0.00147995 0.00313598 
0.000184321 -0.000120472 0.00627114 

-0.00136577 0.0173845 0.00417419 
-0.0156739 -0.000861765 0.0777685 
0.000646248 0.000253514 0.0190301 

-0.0159673 -0.00171829 -0.00370823 
-0.00216322 -0.00103231 -0.00173617 
0.00168203 0.000526408 0.0232082 

-0.0519662 -0.105987 -0.527773 
-0.0646577 0.0795265 0.0738382 
-0.000461475 -0.000323446 0.0649288 

-0.0159082 -0.00694496 0.0647688 
-0.00889046 0.0102235 -0.133367 
-0.00150777 8.05504e-05 0.0308921 

-0.00904853 0.0169082 0.0637681 
0.0162784 -0.000341666 0.0416705 
-0.00288441 -0.00120711 0.035879 

-0.0110097 0.00163418 0.0218956 
0.000807156 0.0057702 -0.0761859 
0.00060934 -0.000118265 0.0252892 

-0.0242907 0.0462122 -0.0296921 
-0.0352809 -0.0250925 -0.171915 
0.000599807 0.0219406 0.0620147 

-0.0137689 -0.00735163 -0.00477784 
0.00718933 0.00258107 -0.000196065 
0.000808041 -0.000443444 0.0156623 

-0.0131344 -0.0225659 0.0400284 
0.00994201 0.0271749 -0.043198 
0.000530433 0.0014737 0.00706511 

0.234226 0.361466 -0.363769 
-0.4162 -0.0477319 0.580255 
0.0597788 -0.039279 0.397466 

-0.0201422 -0.0211557 0.453572 
-0.035841 0.00336884 0.134 
0.000446566 -0.00101316 -0.0222239 

-0.295581 0.0448807 -0.537957 
0.167086 0.355194 0.743833 
-0.00834926 0.000140373 -0.0748964 

0.135132 0.311677 -0.0693874 
-0.295316 0.0153453 -0.0546245 
0.0873389 0.00393636 0.589869 

-0.0105102 -0.00207738 0.0040969 
0.00698656 0.00158132 0.000256394 
0.00119394 -1.46976e-05 0.0161236 

-0.313823 -0.133289 0.193317 
-0.190587 0.230533 -0.643276 
0.022425 -0.0711838 0.119462 

-0.0929053 -0.123376 -0.492985 
0.153368 0.130228 0.06163 
0.00143524 0.00198456 0.0198554 

-0.218133 0.167564 -0.378127 
0.000805944 0.0947664 -0.69248 
0.00707507 0.00495051 0.108134 

-0.00843871 0.0254417 -0.00517656 
-0.0245075 0.00233104 -0.00602887 
0.000144149 -0.000332736 0.00821151 

-0.0526537 0.0516728 0.0141996 
0.0165759 0.0288373 -0.080753 
-0.0307533 0.0601653 -0.184888 

-0.0309055 -0.0122868 -0.0257717 
0.0254692 0.00618945 -0.025182 
-0.00110786 -0.000456915 0.024475 

-0.00863002 0.00094757 -0.0189802 
-0.00197076 0.00717605 -0.0137301 
0.00090087 0.000665565 -0.000126718 

-0.0756287 -0.203041 0.380812 