# vtk DataFile Version 3.0
Output file generated by Yade's KinematicLocalisationAnalyser
ASCII
DATASET UNSTRUCTURED_GRID

POINTS 13483 float
417.139 42.0989 0.460673
470.716 98.109 -0.458207
101.222 6.01821 -0.524555
509.555 7.05124 0.498815
344.891 14.7178 -0.3903
253.738 50.0595 -0.542372
130.709 7.94343 0.453161
390.214 19.8649 -0.241122
350.908 60.3779 0.136543
470.305 26.0987 -0.679688
179.966 8.45899 0.146398
209.276 6.27875 0.425369
418.004 65.9176 0.136201
420.314 27.3948 0.146283
115.877 20.6125 0.505434
185.894 41.9345 0.407323
183.62 14.2288 -0.453287
230.439 17.3466 0.568763
271.225 56.5125 -0.453446
361.725 9.49997 0.69991
298.973 44.3881 -0.120032
402.498 60.0549 -0.274306
503.138 87.562 0.467051
438.382 89.3759 -0.362691
327.56 23.4114 0.390704
197.131 59.4574 0.135201
360.325 74.4891 -0.59457
399.077 36.0205 -0.260054
37.6974 19.4774 0.540314
454.061 62.6815 0.32901
340.757 9.4562 -0.56921
14.9819 25.0157 -0.341754
484.753 91.1817 0.279388
343.946 4.61993 0.680342
66.5886 50.2029 -0.115228
355.013 49.4099 0.396285
367.036 18.8161 0.556042
260.944 33.521 0.231489
365.743 37.0996 -0.309174
278.926 61.821 -0.450132
200.668 23.005 0.352157
316.133 48.9639 -0.0853955
445.639 6.81006 -0.233222
163.327 5.95694 0.476472
46.3988 9.30571 -0.0861489
57.0898 10.241 -0.281624
459.071 9.41079 -0.607906
20.0362 13.0413 -0.308747
381.901 82.2708 -0.377055
449.236 31.7658 0.399212
144.659 32.5114 0.312635
464.506 86.7435 -0.123044
26.9902 32.5163 0.146996
370.102 4.13185 0.58124
119.1 6.96008 -0.716233
404.655 47.4658 0.492289
362.268 69.5681 0.117627
147.219 0.942178 -0.307041
28.0708 2.44311 0.301788
262.978 28.1773 -0.293666
389.478 93.1979 -0.132194
336.898 63.726 -0.174977
294.751 4.61752 -0.269581
467.557 8.59666 -0.610299
21.3485 49.9928 0.266415
216.337 47.4505 -0.332196
473.031 19.3163 -0.230842
404.917 93.7528 -0.342019
305.929 8.40884 -0.676673
389.821 13.4407 -0.506286
485.445 58.7968 0.420037
110.796 8.57231 -0.349216
363.719 71.2927 -0.120749
337.636 34.9144 -0.0937695
235.888 24.828 -0.500968
17.3356 14.9154 -0.267383
492.661 81.6711 0.339686
262.5 58.3385 0.337446
449.219 23.0856 0.602659
459.073 13.9151 -0.46479
502.753 15.2159 0.296802
337.167 66.5986 0.196156
79.4837 43.0401 0.258133
423.243 85.2877 -0.23796
420.742 75.5969 -0.136635
511.611 93.0647 -0.130163
495.187 1.98172 -0.55203
233.945 37.7123 -0.561608
422.646 6.02493 0.218079
21.9772 6.08981 -0.606233
113.999 44.9677 -0.144567
354.913 18.889 0.327825
494.999 75.2636 -0.471632
166.875 29.3062 0.305834
35.9166 39.0765 0.310637
344.862 3.2517 0.147372
197.009 16.5495 -0.458932
483.9 68.3536 -0.330847
502.523 74.6392 -0.273529
278.639 48.8237 -0.269391
137.864 31.6754 0.611573
368.543 64.4454 -0.449841
283.959 32.353 -0.475091
301.927 36.2313 0.140938
281.927 21.106 0.545535
375.683 16.5377 0.228806
512.778 16.4194 -0.242887
68.5539 45.434 0.452763
263.788 5.3544 -0.335972
385.556 19.1001 -0.439687
284.784 74.7611 0.498128
20.5667 27.4115 -0.567529
26.6182 5.90278 -0.410903
384.144 55.8948 0.504791
351.831 39.0231 -0.14817
20.4282 44.4647 0.401438
79.8385 34.7083 -0.236371
257.486 18.1092 -0.36048
408.643 21.517 -0.270914
343.933 77.1965 -0.182631
482.879 22.1265 -0.478718
477.943 17.0947 0.210272
312.878 74.9934 0.0950849
403.151 71.7022 -0.0971852
200.488 25.9417 -0.550207
260.939 3.66186 0.632113
89.2534 34.2967 0.315746
100.485 26.9218 -0.294215
365.551 63.7369 -0.100612
244.105 23.6165 0.505428
453.018 70.6749 0.109602
409.398 93.3468 0.102992
335.43 45.9002 -0.408195
511.75 54.0168 -0.212081
312.454 28.5298 -0.254533
226.724 40.4286 -0.297822
443.997 48.9227 0.282482
232.369 44.9786 -0.394473
394.571 28.5865 -0.317863
264.57 55.6518 0.187617
348.857 16.5803 0.570442
295.517 64.5048 -0.114141
315.441 18.1211 0.26006
252.351 63.7645 -0.502992
163.569 30.112 0.153147
475.339 94.9281 -0.14371
510.814 16.1424 0.413722
6.01257 13.1019 -0.433794
315.438 26.1278 -0.630074
30.7341 26.9732 -0.0921767
306.036 65.096 -0.467564
291.588 35.9084 -0.30506
63.008 12.4293 0.512307
43.4939 36.4758 -0.470539
189.841 20.3795 0.452915
393.186 85.4438 -0.426918
395.897 37.5183 -0.501969
64.6823 24.2724 0.523614
442.951 90.9901 -0.403164
488.705 20.8605 -0.470058
434.914 64.6879 -0.577655
463.022 1.47209 0.639937
373.118 53.2973 0.455758
403.836 61.2179 -0.612849
358.692 21.0403 -0.626646
509.395 3.58736 -0.383624
192.702 33.3832 -0.124978
111.096 40.7564 -0.209735
205.493 11.8752 -0.389518
78.9307 4.69436 0.287996
54.2405 11.8926 0.234665
232.205 55.7152 -0.315075
14.6859 26.8688 -0.346882
383.464 31.006 0.430756
386.724 78.1709 -0.21721
328.769 37.0622 -0.362807
496.141 98.0058 0.36523
299.884 10.4452 -0.106575
318.211 53.1188 -0.518437
377.054 3.00745 -0.306965
18.5593 26.7955 0.374969
394.471 5.16547 0.648762
380.123 11.6302 -0.618895
178.328 10.9372 0.534204
313.946 15.2701 -0.305656
246.947 6.99145 0.465317
294.872 29.8595 0.441249
471.105 64.3599 0.14883
165.782 26.2595 0.437426
491.758 15.8277 0.436518
472.244 60.4794 0.452304
285.96 22.689 0.344612
478.296 2.4638 -0.583987
419.469 40.6681 0.455037
482.039 38.6862 -0.534698
311.919 58.9028 -0.311902
347.674 21.8177 -0.484384
334.672 77.4175 0.222703
328.436 12.0814 0.204878
438.094 62.2728 -0.0200482
434.358 60.4931 0.356573
162.757 42.7338 -0.346421
502.761 18.3073 -0.203701
403.32 63.6822 -0.252481
9.89719 19.6724 -0.228957
303.39 28.9513 0.38038
161.231 23.3873 0.427553
81.2601 43.7985 0.228919
507.952 67.2985 -0.441386
432.976 71.8853 0.275756
261.402 40.962 0.452074
374.17 10.2652 -0.48206
71.893 50.2705 0.167145
212.449 41.9547 -0.564261
380.822 40.9949 0.407879
345.283 45.1449 -0.390591
216.952 0.84903 -0.37598
377.484 67.4897 -0.459625
375.169 74.9102 -0.461169
355.638 80.0477 -0.375835
351.276 2.68655 -0.731001
457.196 32.4608 -0.657767
153.808 12.546 -0.257114
373.784 88.6948 0.435756
386.237 62.7643 0.154068
60.7663 1.00588 0.334414
206.278 4.70358 0.197042
509.177 19.9717 0.186822
502.985 20.8759 -0.567115
512.657 24.8957 -0.65233
241.87 10.7758 0.344139
483.441 46.5001 0.467075
317.872 68.1057 0.339607
331.903 0.847621 0.616233
424.208 68.4213 0.446261
21.2543 37.8048 -0.0409824
261.833 63.1251 -0.464791
207.194 2.8881 0.422065
489.181 88.3731 -0.205191
459.626 82.3631 0.258384
231.973 19.8908 0.292493
437.158 51.024 -0.138547
387.242 3.92358 0.323623
378.895 11.614 0.534346
83.3119 20.0571 -0.547837
239.328 1.00503 -0.233737
273.403 2.13325 -0.47624
12.586 7.93009 -0.631536
4.26828 34.4463 0.329003
137.84 20.0065 -0.475491
58.6386 46.7477 -0.24469
56.2951 34.1871 -0.328296
314.492 13.439 -0.529711
297.754 68.7274 -0.497067
461.945 89.1765 -0.120967
17.8496 4.63064 0.358902
58.4376 7.20918 0.167433
401.819 86.1717 -0.148585
234.754 4.08747 -0.443869
275.304 36.5228 -0.124191
198.816 11.2972 0.658921
438.891 37.4553 0.326935
332.587 13.69 0.674695
487.029 47.562 -0.353756
404.167 75.0413 0.303879
447.268 22.9213 0.262146
313.064 35.4736 0.584917
89.488 50.037 -0.031034
367.374 69.8528 -0.0481075
483.566 32.1355 0.247216
204.216 45.5733 -0.285808
27.748 20.7665 -0.218622
268.166 14.2647 0.639973
94.4915 45.104 -0.463409
227.19 62.4027 -0.200238
318.459 2.18985 -0.255166
489.893 77.438 0.366584
456.906 0.692194 -0.560192
264.46 3.92505 0.591787
246.87 34.4066 -0.16379
335.978 74.2904 -0.199823
68.3169 9.46712 0.592981
165.74 50.8896 0.399428
471.968 79.9846 0.353218
368.2 90.5031 0.0656404
168.15 46.1062 -0.272246
141.381 50.4024 0.456699
511.724 87.5367 -0.530096
511.235 17.4003 -0.70177
414.953 3.36121 -0.635697
164.552 25.0476 -0.121358
374.595 48.7687 0.134326
376.583 49.0548 -0.287239
303.304 6.00012 -0.124591
342.125 0.892421 -0.559394
460.144 90.3468 -0.459924
73.4582 34.282 -0.252744
442.924 32.7025 -0.531752
222.468 21.8975 -0.523713
8.26371 2.47834 -0.438073
110.843 44.0595 -0.266847
59.0929 27.2041 0.468311
446.447 78.3243 0.302855
485.202 104.919 -0.160834
159.822 28.8574 0.229198
506.015 15.8883 0.598458
37.588 40.9556 -0.306698
78.8139 32.9253 -0.0991263
426.937 31.4348 0.611249
308.651 22.2328 -0.626093
365.45 19.6088 0.19584
205.541 44.1207 -0.271804
427.409 7.00626 -0.621432
513.574 18.0756 0.583962
23.5383 37.6153 -0.258851
219.84 11.2484 0.22417
188.522 21.505 0.318028
1.08298 39.1032 0.162298
190.959 22.3317 0.598774
184.067 11.3293 -0.151916
184.733 33.6167 -0.301605
117.373 33.6536 -0.200928
378.062 26.3862 0.486283
142.58 14.8697 -0.397116
483.245 90.0411 -0.235439
149.132 3.80464 0.532728
39.0575 41.911 0.361488
475.095 72.8424 -0.457832
235.566 48.1822 -0.436948
447.928 36.1011 0.656902
500.389 81.2413 -0.50037
240.594 12.4343 0.313431
474.573 52.6194 0.380066
262.619 2.21605 -0.470353
308.551 28.4304 -0.346606
451.423 20.0833 -0.53825
90.2035 12.6729 -0.551887
341.991 5.94114 0.712545
488.927 47.8676 -0.181134
74.1591 7.88141 -0.294353
227.575 23.5416 0.220411
315.307 11.506 -0.375328
509.991 2.31827 0.554685
294.911 1.58179 -0.617613
152.128 39.4217 -0.362142
486.154 29.8224 -0.335525
112.94 41.6836 0.234205
222.31 50.4766 -0.435529
300.136 24.7967 0.217326
396.766 30.5548 0.509983
287.692 18.7423 -0.516841
341.276 60.2609 -0.461897
471.633 97.1922 0.36729
41.0768 13.8754 -0.172108
245.554 46.0381 0.308055
309.39 65.422 -0.389053
305.797 24.3635 -0.29895
371.475 77.1298 -0.429041
491.23 72.2395 0.172863
438.877 56.1842 -0.46125
194.044 43.7589 -0.428236
12.1125 37.3409 0.180307
433.167 62.0542 -0.157693
385.385 90.7527 0.444446
194.348 50.6406 -0.160998
444.602 64.8452 0.110768
129.239 11.4414 -0.393415
279.234 42.2409 -0.305084
336.576 76.3455 -0.101966
309.331 23.8361 0.190325
467.114 100.074 -0.290805
318.411 5.18621 0.574671
41.1139 28.8958 -0.324403
348.537 72.2383 -0.362098
316.438 59.3642 0.496622
486.173 84.0791 -0.209893
472.641 51.1617 0.260809
373.163 29.2897 -0.220662
476.414 87.4931 0.460841
234.642 6.6874 -0.471084
308.543 66.5986 0.488
23.9121 45.5806 -0.313805
476.266 53.985 -0.130542
417.964 22.1306 -0.709042
338.477 4.04262 0.66035
108.091 6.13506 -0.490802
312.175 50.9421 -0.12921
10.674 0.890483 0.38516
505.206 8.90843 0.0854246
[...]
POINT_DATA 13483
TENSORS Strain_matrix float
-0.0488435 -0.0902317 -0.174165 
0.00590238 0.045501 0.200905 
0.0337163 0.0220118 0.180722 

-0.0366756 0.0962418 -18.0775 
-0.0233854 0.0259381 -0.534371 
0.00433009 0.00474596 -0.25312 

-0.075946 -0.0225145 1.43701 
0.0182061 0.0892235 0.754266 
-0.000320207 -0.00655129 0.0875432 

-0.00344093 -0.207106 1.06098 
0.0274555 0.135657 -0.406458 
0.0117298 0.0049225 -0.0908352 

-0.0333895 -0.0136367 0.0354658 
0.0198448 0.014632 -0.0168539 
-0.00208335 -0.00157058 0.0375409 

-0.257206 0.0616898 -2.00307 
0.115895 0.263117 -7.68118 
0.000385179 0.00122203 0.225294 

-0.038885 0.0527757 0.42202 
0.0127099 0.0427122 0.0685254 
0.00291877 -0.00793 0.0953052 

-0.0207514 0.0411716 -0.00647783 
-0.200654 0.00827517 0.0296119 
0.0365005 -0.00234984 0.196322 

-0.445302 0.247839 1.12886 
-0.282062 0.177444 0.383862 
0.046544 -0.00402089 0.161333 

-0.00648432 -0.0496892 -0.983787 
0.00760379 0.022999 0.546696 
0.00480969 7.68449e-05 0.160794 

0.00114428 0.00956733 0.0154382 
0.00485365 0.00292048 0.0530639 
0.00433537 -0.00820195 0.00325799 

-0.0181961 0.212641 1.50538 
-0.0547369 0.100372 2.17308 
0.00438011 -0.0560226 -0.0121771 

-0.0111962 -0.062881 0.0719297 
-0.0509583 -0.0429262 -0.146597 
-0.0108467 -0.01041 0.136066 

-0.0200752 -0.0702403 -0.171053 
0.139237 0.053711 -0.147266 
-0.0158971 0.0317988 0.0779056 

-0.00214871 0.0762844 -0.976042 
-0.0529034 0.0175432 -2.22142 
0.00533681 -0.00203353 -0.117644 

0.0265441 -0.181772 -0.215625 
0.175217 0.0190312 -0.0458964 
-0.00270922 -0.00347853 -0.050284 

0.0377747 -0.710876 -0.697315 
0.659057 0.331987 0.323902 
0.00147025 0.0383207 0.714607 

-0.222315 0.408354 0.0253299 
-0.663392 0.192268 0.178269 
-0.059427 0.0457624 0.294521 

-0.0132617 -0.0466153 0.100946 
0.103098 0.0369709 -0.0908196 
-8.19392e-05 -0.00148853 0.0510088 

-0.0461458 0.0293267 0.894526 
-0.0570176 -0.00790767 10.9668 
-0.00312027 -0.00383638 0.63781 

0.0324303 0.186348 0.0668741 
-0.237755 0.0189464 0.125995 
-0.0101714 0.00911153 -0.0398948 

-0.0365959 -0.0526527 -0.0387067 
0.110581 0.0473851 -0.0192877 
0.00487133 -0.0174473 0.0429307 

0.0626759 -0.0177059 0.450369 
0.107598 -0.0698299 -0.565353 
-0.00792193 0.000162175 -0.0610319 

0.00261364 0.00975572 0.025576 
-0.0253689 0.00367557 -0.118192 
-0.000326756 -0.0022021 0.0683788 

0.0016092 -0.0508362 0.00634554 
0.0102441 -0.013846 0.0309269 
-0.000993734 0.00141485 0.0326154 

0.112488 -0.27759 0.404399 
0.274036 -0.0271045 -0.103883 
0.0043117 -0.00270941 -0.0231102 

-0.134829 -0.00993839 3.47385 
-0.0120299 0.0522217 8.56976 
0.00275084 -0.00336381 0.751719 

0.0275939 0.0165028 -0.0592683 
-0.0644782 -0.0217116 0.00786021 
0.00663761 0.00297985 -0.00554868 

-0.0670204 -0.0832177 -0.137945 
0.103508 0.057646 0.0775746 
0.00192928 -0.00329823 -0.0312833 

-0.125946 -0.169481 -0.0554238 
-0.186689 0.161812 -0.350632 
0.00710435 0.00403128 0.0193399 

-0.0403997 -0.0461572 -0.116719 
0.0314752 0.0128749 -0.042209 
0.00126363 -0.0024105 0.00306318 

-0.129517 -0.0596663 0.159055 
-0.0377579 0.0689535 0.402027 
-0.00530444 0.000742405 0.0208604 

0.0288322 -0.0207809 -0.0367425 
0.0326651 -0.00936013 0.00877094 
-0.000924684 -0.000626638 -0.00746338 

-0.018947 -0.0559526 0.172262 
0.0403671 0.0155307 0.630265 
0.000971007 0.00119321 0.0156926 

-0.0202612 -0.0562481 0.0278339 
0.134974 0.00922825 0.00105663 
-0.0247825 -0.0474557 0.194936 

0.00816593 -0.0367907 0.0333082 
0.0347129 -0.00592588 -0.0441474 
0.00141143 -0.000749508 0.0359107 

-0.00552542 0.00958549 -0.0896183 
-0.0316902 0.0140579 -0.0882637 
-0.00638403 -0.00196882 -0.0239035 

-0.51205 0.638142 -0.64016 
0.244362 0.144287 0.553533 
-0.0187849 0.0208201 0.259219 

-0.08176 -0.090192 0.123886 
-0.0062266 0.117656 0.272733 
0.001227 -0.00240335 -0.055473 

-0.000376337 -0.0404338 0.0169039 
0.0531425 -0.0113981 0.0857876 
-0.00080862 0.00122978 0.177275 

0.0162161 -0.0282281 0.204478 
-0.105289 0.0261111 -0.0979221 
-0.00756241 0.00445225 0.00968556 

-0.00198031 0.114374 -0.0266398 
-0.0974 -0.00441395 -0.00706968 
-0.0523237 -0.00568178 0.665746 

-0.00458757 0.0101148 -0.000124426 
-0.00655005 0.00216745 0.000937064 
-0.000702317 -0.000716549 0.00360259 

-0.0275285 0.0124102 0.464969 
-0.020229 -0.024852 0.544001 
0.00448937 0.00332038 0.116902 

-0.177597 -0.120544 -0.126874 
0.0847333 -0.0100344 0.0490906 
0.0362132 -0.0843149 0.30514 

-0.170302 -0.0706811 0.628373 
0.138449 0.139667 0.328693 
0.104364 -0.105729 0.518657 

-0.0111139 0.0102266 -0.00753768 
-0.0133539 0.00602968 0.0246248 
-9.73579e-05 -0.000337684 -0.00818473 

-0.00140503 -0.0447961 -0.0257675 
-0.00517335 -0.00202337 0.0359063 
0.00206686 0.00261954 0.0277428 

-0.0922454 0.05239 0.483839 
0.115957 0.160665 0.930108 
-0.00631517 -0.0343958 -0.124408 

-0.117896 -0.00661736 -0.554274 
0.0138825 0.0924429 1.05179 
0.00473678 -0.00196827 0.113699 

-0.169862 0.266899 0.487955 
-0.126692 0.11622 0.394128 
-0.0303025 -0.0343298 0.253679 

0.0586756 0.0294969 0.0392691 
-0.0817015 -0.0184185 -0.129072 
-0.00927926 0.0216535 -0.121748 

-0.00949476 -0.0339928 0.109304 
0.0298005 0.010043 0.0579865 
-0.0722174 -0.0192132 0.231931 

-0.0141009 0.0415894 0.133574 
-0.015279 0.00531634 0.0577134 
0.00364337 -0.000681524 -0.000561094 

-0.0707329 0.0922701 52.6496 
0.00210712 0.0356938 -11.595 
0.00331464 -0.00678492 -1.38944 

-0.0112222 -0.0175619 -0.112063 
-0.0129639 -0.0170281 -0.26623 
0.000939266 0.000560058 0.0325111 

-0.606426 0.722935 1.09258 
-0.416803 0.505394 0.347555 
0.0130337 -0.000143423 0.0728237 

-0.0078692 0.119143 0.0785958 
-0.00565123 -0.032525 -0.00337132 
-0.00236427 -0.0322846 0.0907585 

-0.00434638 0.0110945 -0.047385 
0.0118689 0.0181489 -0.0374541 
0.00205138 -0.000154571 -0.0104013 

-0.0680859 -0.272781 -0.556163 
0.5236 0.293759 0.806509 
-0.00763358 0.0378582 0.109616 

-0.328914 0.448262 0.232691 
-0.337449 0.523537 -0.197194 
0.0208203 -0.00951212 0.405876 

-0.0140467 -0.0827774 -0.0174047 
0.0930158 -0.0138601 0.0251568 
0.0306044 -0.00230408 -0.00776658 

-1.01321 -0.253665 0.394524 
-0.110946 0.744082 0.608841 
0.0917599 -0.0423091 0.415027 

-0.014618 -0.0217426 -0.146422 
0.0227068 0.0147322 -0.0535262 
0.00234804 -0.0033142 -0.00227175 

-0.0398411 -0.0385888 0.111271 
-0.0120264 0.0145434 0.151783 
0.0153081 0.00178875 0.0661946 

-0.0885937 -0.14562 0.475213 
0.199717 0.141595 -0.438875 
-0.0064109 0.0154258 0.0988258 

-0.00241476 0.0460046 0.00242244 
-0.027366 0.0192654 -0.0185017 
0.00462164 0.0097247 -0.0126629 

-0.149168 -0.0518049 -1.06027 
-0.0869136 0.0839542 1.17943 
-0.0197764 0.0123206 -0.024907 

-0.0470025 0.0741643 -3.9355 
-0.205655 0.0375588 -4.29392 
-0.00280965 0.00691337 -0.0738323 

-0.0364652 0.0783555 0.0828097 
-0.144503 0.00193594 0.373494 
0.00895942 -0.000706665 0.0193747 

0.0667418 -0.0619014 0.0157136 
0.117896 -0.0236461 0.0368818 
0.00324133 -0.000611605 -0.0529024 

-0.281231 0.0437131 -0.11343 
0.02267 0.197379 0.428212 
-0.0245162 -0.0302721 0.660416 

-0.590525 -0.0769312 1.00651 
-0.292017 0.436611 -0.240913 
-0.0161455 -0.00323666 -0.0735679 

0.00323414 -0.0138683 0.0256591 
0.0116058 -0.0195102 -0.0260802 
0.00316585 -0.00361098 0.0376712 

-0.0670591 0.244756 -0.974919 
-0.316919 0.0975687 -0.753324 
0.0137729 0.00463651 0.0229206 

0.0134961 -0.0247929 -0.007319 
0.00071971 -0.0205272 0.0160313 
-0.00230574 -0.00124179 0.0270742 

0.0474931 -0.0972973 0.063303 
0.0867636 -0.00186858 -0.334619 
-0.00281798 -0.0219626 -0.0532476 

-0.0577963 -0.104745 0.0952333 
-0.148939 -0.010749 0.509889 
0.00042727 -0.00333925 0.0528765 

-0.00283453 -0.0440249 -0.870734 
0.0478721 0.0285854 0.732533 
-0.0129497 0.0235744 -0.000147792 

-0.0171948 0.0329745 0.0400095 
-0.00804734 0.00714861 0.00189834 
-0.00181484 0.0027188 0.00979 

-0.0350322 0.258086 -0.209403 
0.0195181 -0.0440773 -0.0926033 
0.00918384 0.0287361 0.0587686 

-0.00714307 -0.0685521 0.0631887 
0.0807897 -0.00325518 -0.0808518 
0.00526855 0.00222287 0.063329 

-0.128758 0.09161 0.230119 
-0.0861109 0.111208 0.0846678 
0.00443454 -0.0515551 -0.00775302 

-0.0348287 0.00708861 0.0305789 
-0.0029656 0.0201022 -0.0334561 
0.000343154 -5.31919e-05 0.012615 

-0.024266 0.0241689 0.0347804 
-0.0194721 0.0195863 -0.00694438 
-0.0268574 -0.0167682 0.00229486 

0.053343 0.0908384 -0.108458 
-0.0147116 -0.00761755 0.12322 
0.00541572 -0.00593796 0.0618353 

-0.0219754 -0.0432942 -0.434366 
0.0221759 0.0932046 1.02478 
-1.3333e-05 0.0165022 0.166057 

-0.0776515 0.184441 -8.0942 
-0.196396 0.176467 -5.36512 
0.0375918 0.0254654 -0.996042 

-0.0264934 0.0430007 -0.0214037 
-0.028456 0.0198718 0.00854801 
0.00261989 -0.000659728 0.00941293 

-0.000717456 -0.0178036 -0.187271 
0.00683459 0.00617457 -0.882668 
-6.32162e-05 -0.00066637 0.0143836 

-0.0427168 -0.0285377 0.00710077 
-0.063324 0.0662477 0.298694 
0.00220161 0.0142451 0.0035894 

-0.010226 -0.0434264 -0.0410952 
0.0389093 -0.00601055 0.111012 
0.000861389 0.00235044 0.0104514 

-0.00621389 -0.25168 -0.419248 
0.136646 0.0584118 0.611019 
-0.00457046 0.0114455 0.00370756 

-0.102314 -0.0925079 -0.245216 
0.143383 0.0424206 0.431999 
0.0319624 -0.0142229 0.491447 

0.0255305 -0.0154733 -0.056091 
0.00378312 0.00030046 0.224725 
-0.00706268 -0.00521448 -0.0564057 

0.00872879 -0.0677383 -0.016839 
0.0302118 0.010971 -0.0172398 
0.00106489 -0.000546121 -0.0286499 

-0.030673 0.00207356 0.079903 
0.0231581 0.0595598 0.192711 
-0.0221144 -0.0166938 0.101825 

0.00488852 -0.0784666 0.0124429 
0.0715581 0.0155772 0.000791486 
-0.00104718 0.00152336 -0.0157629 

0.0097499 -0.146385 0.00319838 
0.096186 0.0199952 -0.0776184 
-0.00353768 -0.00866324 0.0289709 

-1.16225 1.09713 -0.841757 
0.13819 0.497639 -0.92359 
-0.00349432 0.00347769 0.115167 

-0.0689844 0.0792693 1.88517 
-0.095128 0.091856 3.35198 
0.00447465 0.00516127 0.461265 

0.00466234 0.00835643 -0.063911 
0.0509323 -0.000913785 0.143442 
0.00315782 -0.00859192 0.0714442 

0.053373 0.015589 0.233155 
0.0704209 -0.066397 -0.513942 
-0.00448991 0.0041555 0.0208514 

0.0482419 0.0195957 -0.228777 
-0.154524 0.0128722 0.107963 
0.00831824 0.000870399 0.0049172 

-0.275084 0.307261 0.402198 
0.110762 0.157662 0.23446 
-0.00350353 -0.022785 0.242365 

-0.136969 -0.132394 0.216796 
0.155379 0.105745 -0.0550553 
0.0141685 -0.00660541 -0.0910805 

0.0053402 0.0206479 0.0011721 
-0.0243995 -0.00363291 0.00890726 
0.000262843 -0.00199093 -0.00698655 

-0.0903502 -0.0757249 0.176131 
0.0868165 0.117219 -2.82712 
-0.0307069 -0.0233276 -0.1582 

0.00117873 0.0260747 0.00672136 
-0.0332876 -0.0346204 -0.0278946 
-0.00116802 -0.00461304 0.0418171 

0.0107529 0.0277945 -0.0241005 
-0.0391515 0.0131299 0.00431483 
-0.000330168 0.00418514 -0.0242866 

-0.126992 0.239355 11.0634 
-0.043403 0.0538558 -10.7912 
0.00375946 -0.00138757 -0.406952 

-0.0992904 -0.0118303 -1.65937 
-0.0809225 0.129082 -4.13407 
-0.00344999 -0.00311475 -0.317685 

0.00943533 -0.0200808 0.0557767 
0.0298657 0.00998192 -0.00497808 
0.0027619 0.00295195 0.00942773 

-0.0207805 0.0111484 -0.00574981 
-0.0274904 0.00126945 0.184959 
-0.00205347 0.00093277 0.0583414 

-0.17652 -0.120504 -0.172907 
-0.153161 0.190664 -0.0569256 
0.0162254 -0.00473955 0.00749978 

0.0186159 0.0050327 -0.0742556 
-0.0147113 -0.0122195 -0.105398 
0.00223723 -0.005443 0.0758234 

0.0308222 -0.028571 -0.164461 
0.0234832 -0.0186243 0.00335173 
-0.00171252 -0.00828252 0.0294987 

-0.0296633 0.0397487 0.00614176 
-0.0140136 -0.0115347 -0.00680292 
0.00116683 0.00098734 0.0715437 

-0.0308231 -0.0497097 0.0198315 
-0.0458487 0.0352034 0.0693798 
0.00327538 -0.00465975 -0.00785957 

-0.00941543 -0.134855 0.0686118 
0.117433 0.0163268 -0.0652536 
-0.0293578 0.0349267 0.339061 

-0.0971223 -0.0455205 -0.068942 
0.0493952 0.0879745 -0.0717105 
0.00658846 0.00463038 0.022372 

0.00667899 -0.0217865 0.0102935 
0.035323 0.000151385 -0.00864199 
-0.00312383 -0.00303767 -0.0149411 

-0.00255638 -0.076728 -0.930085 
-0.0355668 0.0730692 0.661877 
-0.0102274 -0.0191507 1.01859 

-0.0111865 0.018627 -0.0732556 
0.030824 0.0357438 -0.112004 
0.00132817 -1.42432e-05 0.0127539 

-0.0179306 0.087085 -1.08884 
0.0116523 0.0755939 -0.841342 
-0.00626013 -0.000593358 -0.0438084 

0.00786427 0.0317553 0.0225706 
-0.0115573 -0.0245945 -0.0326821 
0.00254029 0.000142503 -0.0125439 

-0.0652133 -0.00993228 0.242798 
0.282797 0.0365625 0.409448 
-0.0839709 0.0251158 0.235722 

-0.0435405 0.195587 -0.667153 
-0.0688563 0.11911 0.475397 
-0.00967701 0.01328 0.0667613 

0.0140059 0.0364203 0.058518 
0.0138854 -0.00973738 0.00964296 
0.00316437 0.000375355 -0.0139871 

-0.0342264 0.0915005 -0.051511 
-0.0942359 -0.048976 -0.0192252 
-0.0048339 0.0186345 0.073697 

0.00939044 0.0560078 0.0110474 
-0.453214 0.0242659 -0.239312 
0.01142 0.0228272 -0.0473886 

0.0959925 -0.152168 0.402911 
-0.0822577 -0.0180329 -0.236372 
0.0903682 -0.0926734 1.05494 

-0.114144 -0.0545539 0.874845 
-0.0160718 0.0326058 -1.09165 
-0.0291314 -0.0121675 -0.245813 

-0.0241304 -0.0948823 0.222906 
0.192205 0.100333 0.0663973 
-0.0506929 -0.0367304 -0.0883925 

0.043798 -0.274466 -0.261083 
-0.167321 -0.101593 1.18687 
-0.0327736 0.00886824 -0.00911551 

-0.890687 0.85596 2.68241 
-0.377507 0.771538 1.68366 
0.0471546 0.0648026 0.109963 

0.0140581 0.12735 -0.06108 
-0.0829858 0.00785215 0.0651763 
0.00730441 -0.000240074 0.0174369 

-0.60291 0.354479 2.07989 
-0.607478 0.562237 1.16212 
-0.0305691 -0.0322241 -0.0276002 

-0.142379 -0.00534133 -0.445878 
0.257077 0.0961547 -0.791505 
-0.0284089 -0.0544071 0.293109 

-0.0239276 -0.0559867 0.0173769 
0.0558889 0.0146684 0.0348298 
0.00158918 0.00377358 0.013704 

-0.0225272 -0.0263525 0.134972 
0.000363746 -0.0230838 0.0854233 
0.000719695 0.00174103 0.0112931 

-0.00289184 0.01371 -0.00637097 
-0.00192992 -0.0139971 -0.00788205 
0.0338758 -0.0140313 0.117732 

-0.103389 0.0236512 -0.253458 
0.1254 -0.0658092 0.369375 
-0.0900129 0.00506515 0.125542 

-0.431892 -0.137074 6.72501 
-0.13104 -0.00645104 7.14394 
0.00528047 0.00876855 -0.344631 

-0.00166144 -0.00446266 0.0508238 
0.0214342 0.00373882 0.0428402 
-0.00541765 -0.00258243 -0.0536682 

0.0250114 0.0202898 -0.0982184 
0.0011394 -0.00211092 0.0265038 
5.21194e-05 -0.0010225 -0.0360886 

-0.000221198 0.0288957 -0.00891501 
-0.0451751 0.00506465 0.00261208 
0.000504655 0.000946089 0.000130417 

-0.0121363 0.0349111 0.0740129 
-0.127227 0.0722968 0.18511 
0.0242761 0.00474787 0.24678 

-0.187749 -0.226657 -0.214606 
-0.31408 0.0486268 -0.667054 
-0.00678031 -0.0327863 -0.0876555 

0.00533637 -0.069209 0.0027742 
0.0852191 0.00487012 -0.0240636 
-0.00157354 0.00230842 3.74992e-05 

-0.148038 0.0812344 10.2947 
-0.237374 0.148519 4.84001 
0.0219501 0.00897919 -0.492914 

-0.51555 -0.604024 -0.627641 
0.0295671 0.51734 -1.35711 
-0.0224269 -0.0436164 0.206369 

-0.0625997 0.155819 0.209035 
-0.164517 0.0976358 0.29924 
-0.00983009 0.0175643 -0.0555192 

0.00797932 -0.0316919 -0.0830875 
0.033478 0.016223 0.173518 
0.00107154 -0.000256969 0.0191678 

-0.112291 0.0353862 -0.100343 
0.286629 0.0653832 0.0303482 
-0.00155674 0.00881196 0.127321 

-0.0213204 0.0156739 -0.0411267 
0.0293768 -0.0165864 0.112864 
-0.00216772 0.0021839 0.0278974 

-0.00900584 -0.0393946 -0.0693241 
-0.0157038 -0.0215658 0.188581 
-0.00136288 -9.40603e-05 0.00774984 

-0.0637486 0.0141429 -1.07986 
-0.108119 0.0525976 -1.45006 
0.00807305 -0.0016817 0.260659 

-0.0423024 -0.266285 8.53429 
-0.0344419 0.0252257 -0.754082 
-0.000799859 -0.00385834 0.132779 

-0.123204 -0.119566 0.405957 
0.106332 0.10719 -0.107358 
0.0209125 -0.0548001 -0.0611873 

-0.0371517 -0.0419306 -1.29712 
-0.048332 0.0447636 1.99588 
0.00313953 -0.000884246 -0.284799 

7.28943e-05 0.00836637 -0.00583097 
-0.00839657 -0.0225402 0.042186 
-0.00737939 0.0203338 0.00969066 

-0.0128899 -0.00793526 -0.15639 
0.0564204 -0.0370827 0.0461102 
-0.00157684 -0.0034556 0.10107 

-0.0631128 -0.0889062 -0.939458 
0.0268418 0.0531307 0.120353 
0.0031578 -0.00113841 -0.399308 

0.0178899 -0.0258133 -0.0588565 
-0.00409065 -0.0508447 0.301361 
0.000952711 0.00629909 0.0256048 

-0.0478214 -0.428835 0.441105 
0.143943 0.321866 -0.221159 
0.00367333 -0.00314954 -0.0356884 

0.0619367 0.828728 1.78955 
0.0403155 0.0577032 0.124132 
0.044957 -0.0227267 0.294137 

-0.139282 0.038385 -0.210059 
0.159968 0.174719 0.492644 
0.0223749 0.0247616 0.0306489 

-0.189341 0.19343 0.851827 
-0.290784 0.315574 2.22714 
-0.0298752 0.0492069 0.33538 

0.00803616 0.0118429 -0.0243169 
-0.0090152 -0.0196809 0.0452487 
0.000136081 -0.0017583 0.0184133 

-0.102161 -0.00272418 0.178013 
0.0950196 0.0509234 -0.0119139 
0.010691 -0.0079533 0.400253 

0.0175529 -0.024132 0.133078 
-0.018338 -0.0221603 -0.390691 
-0.0244471 -0.0272018 0.349728 

-0.156488 0.0712174 -0.357856 
0.0540763 0.0843152 1.67321 
0.00780114 0.0112707 0.0889194 

-0.0162835 -0.0345069 -0.141881 
-0.000996647 -0.00715047 -0.0141555 
-0.000304352 0.00388829 0.0215971 

0.0526091 -0.156642 0.272604 
0.0309086 -0.0268 -0.310903 
-0.0293994 -0.0722557 0.375106 

0.0194961 -0.0472353 -0.297146 
0.0256941 -0.00604188 0.164668 
-0.0158009 -0.00385535 0.113115 

0.0524312 -0.0133908 -0.724947 
0.0373185 -0.0469695 -0.49112 
0.00853883 0.012892 -0.0438376 

-0.0187779 0.385267 -0.0329465 
-0.262844 0.0814391 -0.00800892 
0.00830374 0.0209277 0.106506 

-0.0269318 0.0566532 1.05632 
-0.117239 0.0193161 -0.180546 
-0.0086971 0.0182375 -0.157502 

-0.00740672 0.0041059 -0.0125448 
-0.00339872 -0.0191906 -0.0381892 
-0.000303518 -0.0027246 0.0279946 

-0.124673 0.21279 0.0714061 
-0.581635 0.168971 -0.612491 
0.0218314 -0.0423995 0.061405 

0.0212684 0.0208345 0.821605 
-0.077042 -0.0126289 0.0162262 
0.00456391 0.0108064 0.105914 

-0.157725 -0.00840513 0.896768 
0.596837 0.155888 -0.48307 
-0.0147154 0.0579899 -0.041621 

-0.0761129 -0.142457 -1.76518 
0.0318175 0.0164184 -0.153863 
0.0363012 0.0557665 1.11593 

-0.0294169 -0.326835 -0.0955838 
0.116426 0.099958 0.134726 
0.0474398 -0.0108713 0.127791 

0.00147922 0.154595 -0.0967726 
-0.0208683 0.0754978 -0.067194 
0.00789301 0.00428965 -0.0304374 

0.0451679 -0.340217 -1.51607 
-0.0217143 0.0339831 0.0169572 
0.0122682 0.0123371 0.000354549 

0.047642 -0.0272187 -0.0558058 
0.0271211 -0.0352219 0.117773 
-0.00134425 -0.00313185 -0.0253436 

0.0232492 -0.0108277 0.0519639 
0.04194 -0.0393553 0.183871 
0.0819578 -0.0155119 1.11006 

-0.0172425 -0.0420766 -0.124291 
0.0419048 0.0185289 -0.0718171 
-0.00874105 -0.0100529 0.0237725 

0.0248619 -0.0184615 -0.0352533 
0.0387653 -0.00161426 -0.0206815 
-0.0468942 0.0139468 -0.134589 

-0.113958 0.247343 0.166524 
-0.144764 0.0446532 -0.128792 
-0.00675576 0.0169434 0.113337 

-0.00541283 0.00761206 0.00323432 
-0.0100782 0.00845544 -0.000686963 
0.00100314 0.00112656 -0.00429046 

-0.0465794 0.0318128 -1.13265 
-0.0502622 0.0744848 -0.0983925 
0.000412365 0.00178508 0.0879375 

0.00131204 -0.0174715 -0.000805423 
0.0141542 -0.0075059 0.000456058 
0.00140657 -0.000220666 0.00478451 

-0.763302 0.445884 -2.48406 
-0.529387 0.37181 -0.269121 
-0.00677762 0.0211258 0.0615272 

-0.0269171 0.100442 0.040971 
-0.0350522 0.029915 0.0343065 
0.00608396 0.00283455 -0.00505009 

-0.0292665 -0.0963237 0.0609977 
0.0511109 -0.0116691 -0.0731825 
0.0015 -0.00071277 0.0221628 

-0.0139688 -0.0270293 -0.0157154 
0.012963 -0.0139689 0.0115018 
-0.000155082 -0.00136431 0.0267828 

-0.0701014 -0.27926 1.06782 
-0.339263 0.0481703 0.120619 
-0.0123349 0.0419227 -0.119203 

-0.0539279 -0.0396892 -0.307334 
-0.119212 0.0793453 -0.658704 
0.00358011 -0.000872849 -0.0406618 

-0.125845 -0.0455681 -0.337199 
-0.0110659 0.181453 0.147828 
0.033816 0.0303147 1.23028 

-0.0348597 -0.144392 -0.183104 
0.0991473 0.0210853 -0.0734659 
0.0139457 -0.0132275 0.105171 

-0.227946 -0.43781 -0.391356 
0.242886 0.195261 -0.00724853 
-0.0118943 -0.0234969 -0.0338859 

0.0580562 0.0913712 0.0837606 
-0.11645 0.00768503 0.378984 
-0.00408206 0.0808335 -0.00600305 

-0.242451 -0.520106 -0.195185 