# vtk DataFile Version 3.0
Output file generated by Yade's KinematicLocalisationAnalyser
ASCII
DATASET UNSTRUCTURED_GRID

POINTS 13483 float
454.732 40.579 0.513868
514.056 96.1202 -0.474736
105.493 6.17616 -0.642226
550.835 5.51713 0.600795
379.668 14.5919 -0.365839
275.908 43.074 -0.577388
138.103 7.70803 0.457598
426.587 18.8932 -0.160895
387.084 58.8133 0.145898
510.362 25.6788 -0.686002
188.364 8.44857 -0.0995883
226.275 6.91523 0.373985
457.577 62.794 -0.161413
458.846 26.7948 0.10629
121.087 18.4867 0.542876
196.766 36.6874 0.412118
194.787 13.16 -0.307604
252.407 13.0047 0.496824
296.015 49.1117 -0.44658
397.009 8.91319 0.675303
331.419 40.0335 -0.104926
439.83 58.2368 -0.284833
545.149 83.9181 0.448025
478.143 86.4721 -0.339693
362.246 23.5556 0.392555
212.382 51.7748 0.151728
394.747 70.0646 -0.523905
436.048 33.9674 -0.260177
38.173 18.4267 0.650959
495.503 60.7843 0.378776
375.289 9.4675 -0.545421
15.1897 24.9083 -0.313987
527.692 89.0909 0.292233
378.364 4.65588 0.672551
68.8592 47.9603 -0.106145
391.652 47.8819 0.398888
402.104 18.4328 0.59415
289.034 30.2036 0.192023
402.001 35.8465 -0.325699
304.219 53.3762 -0.491551
214.61 17.9028 0.324077
348.074 46.9792 -0.0900383
484.579 6.80376 -0.227245
171.294 6.18311 0.415012
47.9454 8.58807 -0.0861778
58.974 9.44019 -0.28566
498.082 9.49754 -0.608082
20.4445 13.09 -0.313432
420.819 78.8667 -0.389879
488.707 31.3851 0.433822
152.32 33.1619 0.190428
508.148 84.5854 -0.172588
28.6648 32.2988 0.155524
405.964 4.11272 0.581466
125.735 6.5464 -0.632005
441.984 45.6584 0.478033
395.66 65.7916 0.136843
154.742 0.9657 -0.297511
28.1546 2.3705 0.332895
291.389 25.7624 -0.351914
428.349 89.6421 -0.131509
369.941 60.824 -0.181902
324.091 2.34476 -0.464836
506.621 8.58273 -0.606124
22.5378 48.7514 0.262968
229.412 38.2344 -0.382965
512.773 19.0292 -0.240434
445.939 90.3484 -0.349252
339.424 8.58912 -0.700131
426.723 12.2384 -0.475339
525.405 57.3268 0.475183
115.253 8.03917 0.263665
397.518 67.3095 -0.121066
372.645 34.9374 0.0873426
257.313 21.6379 -0.518417
17.79 14.9527 -0.251003
535.043 79.2874 0.373308
287.136 51.4477 0.319687
487.904 23.122 0.642309
497.985 13.9249 -0.459812
543.92 13.2623 0.32391
370.391 63.7243 0.187897
82.5795 41.3463 -0.270895
462.941 82.2401 -0.240658
460.38 72.7389 -0.133428
553.248 89.7286 -0.147956
534.527 1.90409 -0.575778
255.542 34.08 -0.562558
461.285 5.86391 0.226513
22.1452 6.10152 -0.606778
118.523 41.7701 0.142732
389.969 18.5278 0.311414
536.082 72.5524 -0.503773
174.808 29.2392 0.261737
37.8683 38.0475 0.30875
379.174 3.24254 0.164702
210.88 11.5294 -0.423884
524.523 66.8065 -0.341476
543.73 71.128 -0.271332
305.699 42.4458 0.237742
144.215 30.2744 0.592501
405.493 62.4124 -0.497402
313.52 26.9211 -0.498973
335.078 32.7718 0.158994
310.554 15.8045 0.542447
411.173 16.5997 0.157479
553.823 14.9209 -0.24614
70.7397 43.082 0.472928
288.551 5.66026 -0.309636
422.059 17.4897 -0.457325
310.357 66.29 0.513838
20.8235 29.1263 -0.509293
26.709 5.8401 -0.414231
421.398 53.937 0.4792
387.101 37.992 0.165564
21.2819 42.7981 0.42689
83.4097 33.5456 -0.245089
281.494 18.4339 -0.363248
447.262 21.0102 -0.265723
378.075 73.9812 -0.288672
523.405 22.1143 -0.411828
517.77 16.9933 0.203941
337.97 67.8477 0.125921
442.632 68.6691 -0.0924266
214.58 20.7069 -0.55265
285.78 3.76064 0.622017
93.0752 33.3718 0.382047
104.406 25.4674 -0.274667
402.628 61.8745 -0.112961
266.658 22.8787 0.502692
493.442 69.1369 0.12377
449.115 90.4771 0.106167
370.424 46.1703 -0.398947
552.548 51.1305 0.238471
347.707 27.697 -0.275357
244.666 30.7668 -0.328218
484.026 47.4042 0.286994
247.801 36.4055 0.460328
431.993 26.8466 -0.254569
289.131 48.7047 0.192284
383.768 16.3037 0.533496
321.188 55.8477 -0.104945
349.307 18.0884 0.162812
275.977 55.8052 -0.430475
171.471 30.0973 0.139202
518.597 93.0256 -0.142398
551.858 14.5679 0.416553
6.047 13.1954 -0.439358
348.787 25.258 -0.516014
32.0208 26.4945 -0.0965641
330.753 58.3573 -0.59084
323.381 29.9505 -0.289168
65.8886 12.1177 0.594459
45.2441 35.0726 -0.488246
203.676 16.0926 0.43911
432.363 82.2155 -0.414826
432.952 35.4288 -0.466336
66.3461 23.2446 0.575369
482.727 88.1204 -0.374506
528.989 20.061 -0.559575
474.426 61.6786 -0.578476
502.039 1.57354 0.65378
410.26 51.0108 0.426076
441.441 59.057 -0.460949
393.855 20.5818 -0.609144
548.486 3.74795 -0.489335
202.47 27.2441 -0.108449
116.058 36.9155 -0.204355
221.212 8.52286 -0.359296
82.282 4.85764 0.274695
56.1642 11.4097 -0.203872
246.727 45.4551 -0.300964
14.762 26.7007 -0.361474
419.945 29.2744 0.436044
426.057 74.686 -0.19801
363.904 37.2269 -0.405659
538.713 95.5184 0.386845
332.94 8.77716 -0.189277
349.691 51.3759 -0.525849
412.999 3.10051 -0.292827
19.4832 26.2585 0.413289
432.501 5.29027 0.647448
416.427 12.0005 -0.466593
186.842 10.9703 0.546554
346.837 15.7853 -0.326518
271.487 6.81954 0.518443
322.663 26.8522 0.420498
511.534 63.7668 0.161499
173.788 26.0732 0.41245
531.774 15.1689 0.35416
512.414 59.778 0.46762
315.951 17.3372 0.267868
517.393 2.45817 -0.585743
456.886 39.0788 0.450855
522.399 38.0432 -0.529824
343.258 56.1122 -0.333242
382.474 21.5711 -0.484035
368.804 74.7847 0.219387
362.646 12.1391 0.185593
477.91 60.2897 0.271594
473.592 57.6163 0.379866
172.736 40.3907 -0.390064
542.886 16.5141 -0.167545
441.73 61.1312 -0.295865
9.91693 19.3788 -0.223479
333.956 26.4222 0.368856
168.846 23.5383 0.421757
84.2105 42.2264 0.217911
548.571 64.2266 0.425151
473.168 68.7384 0.256851
284.771 34.5211 -0.393436
409.643 10.3746 -0.449179
73.8927 47.5852 0.193794
224.947 32.7381 -0.49136
417.526 38.926 0.378134
380.664 44.3223 -0.471227
233.888 0.904165 -0.40427
414.461 65.5626 -0.428885
412.224 73.2103 0.481482
390.559 75.7361 -0.293144
385.465 1.86498 -0.580183
497.292 31.8298 -0.681195
161.23 12.6479 -0.232668
409.271 83.5217 0.421756
423.45 60.884 0.148918
63.9511 0.997824 0.316328
223.835 4.95469 0.229843
550.03 18.2978 0.195619
543.535 19.0722 -0.562016
553.455 23.3829 -0.614603
266.19 9.96272 0.327782
523.752 45.8134 0.4663
345.415 63.1789 0.356201
365.895 0.812525 0.631549
464.122 65.7462 0.455364
21.4364 36.0316 0.322778
286.646 56.3209 -0.454774
224.888 3.28548 0.446229
531.877 86.0459 -0.207904
498.638 82.7786 -0.189341
253.779 15.6286 0.191945
477.135 49.1874 -0.14549
424.649 2.76979 0.379539
415.139 11.8502 0.575784
86.4775 19.9501 -0.574541
264.716 0.974421 -0.261794
297.893 2.2604 -0.416732
12.7481 7.9934 -0.62467
4.26735 34.0567 0.315296
144.683 20.0636 -0.462059
60.4991 44.9479 -0.231005
57.9463 32.2848 -0.325526
347.569 14.0115 -0.567895
323.005 60.1456 -0.526391
505.64 86.8956 -0.125342
17.9636 4.62689 0.365168
61.897 7.40885 0.13025
441.101 82.9801 -0.1426
259.218 2.60106 0.392636
304.908 31.8506 -0.127845
212.605 6.68318 0.483028
477.949 38.0942 0.215652
366.947 13.6437 0.650261
527.577 46.8966 -0.350807
443.707 71.9486 0.310486
486.068 23.0275 0.168049
346.436 33.0919 0.532263
93.247 47.9597 0.310958
404.885 67.8352 -0.0670156
523.861 31.4185 0.234109
216.512 36.6534 -0.250985
28.3167 20.7737 -0.198165
292.706 14.6427 0.666713
98.3788 43.2855 -0.46785
241.746 52.0055 -0.213462
352.077 2.39763 -0.215807
532.178 75.6855 0.413564
495.898 0.684761 -0.550728
289.26 4.17475 0.554645
268.86 31.5267 -0.145755
369.813 71.5559 -0.199673
71.6632 9.39401 0.594633
177.308 47.6357 0.416237
515.038 78.0456 0.352709
403.881 85.6146 0.0662646
179.95 43.6268 -0.339385
145.988 47.9108 0.458183
552.858 84.0321 -0.536421
552.237 15.8394 -0.699962
453.212 3.28962 -0.636165
172.437 24.9034 -0.0999431
411.831 46.1903 0.104214
413.77 46.8029 -0.308262
337.119 5.66315 -0.157983
376.452 0.881003 -0.582248
503.922 87.754 -0.469777
76.2856 33.8561 -0.27166
482.26 32.4058 -0.568507
243.391 17.8927 -0.518557
8.32829 2.51561 -0.426725
115.184 40.5043 -0.280725
59.9782 24.6145 0.496755
486.467 75.6206 0.302639
528.55 102.898 -0.160653
167.701 28.8923 0.216144
547.017 14.0993 0.552718
39.4792 39.7727 -0.307563
82.2211 31.888 -0.200988
465.619 30.8768 0.619712
340.219 20.7801 -0.67819
400.488 19.1857 0.207383
217.516 34.8754 -0.225768
466.143 6.89919 -0.613631
554.579 16.5963 0.575833
24.2651 36.6943 -0.300082
240.777 8.05069 0.20797
201.795 17.3852 0.270235
1.08241 38.7251 0.157365
204.721 17.372 0.462176
192.809 11.1575 -0.179374
194.578 28.6319 -0.29326
122.213 30.7433 -0.159823
414.508 24.6195 0.479399
149.767 15.033 -0.381147
526.205 87.9803 -0.243103
156.617 3.89485 0.517996
40.8972 40.7515 0.3827
516.939 71.6433 -0.534162
252.73 39.4321 -0.422491
488.056 34.6026 0.600859
542.369 77.8852 -0.530248
264.707 11.3983 0.332182
514.562 51.7479 0.369423
287.475 2.31962 -0.429611
341.6 26.8854 -0.345254
490.158 20.117 -0.518462
93.9926 12.3989 -0.53696
376.462 5.96164 0.703279
529.498 47.1255 -0.175471
77.5196 8.01033 -0.293674
249.028 18.9985 0.243054
348.747 12.1845 -0.366807
548.974 2.33253 0.587168
327.331 1.88669 -0.51797
160 39.4768 -0.359835
526.493 29.057 -0.329441
117.626 38.3799 -0.0623017
236.953 39.6828 -0.395419
330.604 22.8554 0.288011
434.586 28.0936 0.472708
318.159 13.8024 -0.478983
374.195 57.0992 -0.433884
514.978 95.2786 0.383087
41.1624 12.9638 -0.234548
266.907 43.2595 0.301929
337.005 57.6704 -0.383356
337.26 22.7396 0.32446
408.254 74.0682 -0.431043
532.146 70.0502 0.191017
478.368 54.3904 -0.406717
205.305 37.4135 -0.417854
12.5818 36.2696 0.189206
472.449 59.1676 -0.164012
421.573 85.176 0.433906
207.463 43.6799 -0.135172
484.854 62.2576 -0.135046
136.011 10.5774 -0.314051
309.251 37.5074 -0.256544
370.592 73.5378 -0.0986836
341.286 21.851 0.264406
510.409 98.0362 -0.290936
351.866 5.55199 0.534571
42.4974 27.5541 -0.317914
382.21 68.847 -0.341939
348.175 57.4371 0.406237
528.899 81.9319 -0.223089
512.617 50.4016 0.255438
409.8 27.7375 -0.195376
519.614 85.5867 0.475523
258.945 4.99219 -0.633308
335.153 59.8125 0.534486
24.6823 44.128 -0.312504
516.261 53.0139 -0.131129
456.473 21.5864 -0.713054
372.817 4.19217 0.616255
112.505 5.22553 -0.479535
343.933 48.6266 -0.13208
10.742 0.911404 0.384054
546.826 7.06484 -0.13563
325.27 66.7883 -0.405726
[...]
POINT_DATA 13483
TENSORS Strain_matrix float
-0.0120915 0.13827 -0.31691 
-0.0973449 0.00740437 1.59323 
0.00284017 -0.0031439 -0.0441887 

-0.01483 -0.0321384 1.25743 
0.00318737 0.0492281 -3.56112 
-9.23182e-05 -0.000218017 0.048888 

-0.0339184 0.0123681 -3.26716 
0.0029169 0.021964 0.150845 
-0.0017415 -0.00238289 -0.369544 

-0.00359247 0.00301056 -0.0191261 
-0.00149332 0.010532 0.0317206 
0.000177213 -0.000548423 -0.0042417 

-0.0653845 -0.0453748 0.261351 
-0.145438 0.00601206 0.15837 
-0.00035131 0.0516346 0.195176 

-0.118936 -0.0999903 -7.0088 
0.156522 0.166568 -21.4207 
-0.000743348 0.00628205 0.407886 

-0.105746 0.0199649 0.650446 
0.0318913 0.00130654 -0.16945 
0.00541775 0.0166312 0.155533 

-0.0298799 0.0167803 0.0279393 
-0.0762799 -0.00780002 0.0379896 
-0.000262602 -0.000368341 0.0445707 

-0.508703 0.779588 -1.10084 
-0.335941 0.469198 -0.344156 
0.00184167 0.00179023 0.0243806 

-0.0621659 -0.00254572 -3.43938 
0.0652521 0.0268185 4.07497 
0.000199674 -0.000637761 0.205335 

-0.00164839 -0.0164341 -0.0288094 
-0.0046241 -0.025424 0.0206745 
0.00517896 0.00142138 0.0787427 

-0.0156622 0.0392277 -0.0466039 
0.0522262 0.00666545 -0.116461 
-0.0221922 -0.00374145 -0.00159365 

0.0879109 0.0366486 -0.555357 
0.0196443 -0.137152 -0.508418 
0.0171481 0.0119562 0.108874 

0.00263224 0.0149225 0.019979 
-0.00649166 -0.0226723 0.0651593 
-0.00322265 0.000413141 0.0343739 

-0.00728824 0.0278468 -0.04609 
-0.00939108 -0.00265063 -0.420303 
0.000999714 0.0124658 1.5669 

-0.0127538 -0.0914827 -0.0278471 
0.0976013 0.0102799 0.209534 
-0.0025518 0.00155293 0.00493012 

-0.0342913 -0.124275 0.0530789 
0.066041 0.0573315 -0.138401 
0.00204649 0.00258274 0.0553273 

-0.525783 0.0938753 0.272345 
-0.23559 0.254183 -0.471326 
0.122794 0.0117443 0.0842429 

0.0272952 -0.236964 -0.600553 
0.227904 -0.00710894 0.639235 
0.00433345 0.00354992 -0.0352672 

-0.0593839 -0.101241 -0.246003 
-0.0524449 -0.00870191 -0.765525 
-0.0010005 -0.0090041 0.537588 

0.0848178 0.0794811 0.142239 
-0.133524 -0.049964 0.0799371 
-0.00797869 0.004499 0.0136124 

0.0676189 0.1351 -0.0556381 
-0.145388 -0.0449509 -0.0426172 
-0.000313589 0.0170033 -0.0413063 

-0.0201962 -0.0473391 -0.395395 
0.0465856 0.0319413 -0.20541 
-0.00390741 -0.00182353 0.0790098 

0.0175104 0.0249377 -0.307331 
-0.0432256 -0.00181877 0.117591 
-0.0273265 -0.0153331 0.666123 

-0.00179401 -0.0907899 0.0829955 
0.173502 0.0025455 -0.140369 
0.00906535 0.00313065 0.00103333 

-0.00142329 -0.155771 -0.0685685 
0.166406 0.0153343 0.0151809 
0.00701754 0.0231325 0.0416238 

-0.101891 0.149544 0.0994198 
-0.0611123 0.0573361 4.88611 
-0.00238172 0.00921774 -0.303352 

-0.0242828 0.0667312 -0.0714785 
-0.0993223 0.0202503 -0.0862538 
-0.0516627 0.0462056 0.00803404 

-0.0908603 -0.031109 0.147792 
0.017551 0.0411497 0.894513 
-0.0121872 -0.0114686 0.943223 

-0.00869817 0.013641 0.107996 
-0.0488394 0.0330253 -0.132944 
0.000208873 0.0018832 -0.015299 

-0.0813023 -0.0316135 0.581671 
-0.0733197 0.0796897 0.113512 
0.00125713 -0.0113547 0.127985 

-0.0231385 0.013931 -0.051057 
0.0533121 0.0236393 -0.0812321 
0.000141156 -0.000458447 0.0340137 

-0.00722564 -0.0247197 0.029808 
0.021694 0.00374733 0.0430961 
0.000295091 0.000131693 0.0101771 

-0.039965 -0.000915978 -0.260873 
0.0927121 -0.0163914 -0.0246562 
-0.000394623 -0.00841208 0.055894 

0.00710789 -0.0304661 -0.0676348 
0.0515828 0.00103611 0.300317 
-0.0311034 0.0190586 0.65632 

-0.0507512 0.0268689 -0.0500428 
-0.049156 0.0351999 0.000391512 
-0.0101093 0.0298991 0.10316 

-0.00435456 0.0722285 0.606081 
-0.107176 0.0237912 -0.477917 
0.0139688 0.0012892 0.102713 

-0.333465 0.697803 -3.9203 
0.220695 0.403523 1.63246 
0.0753773 -0.0357347 0.691737 

-0.174493 -0.302416 0.668214 
0.224628 0.176608 0.0908779 
-0.0652762 0.000223801 0.191584 

-0.152943 0.0136615 14.1509 
0.102733 0.0762404 15.0416 
0.00152857 0.00744815 -0.436573 

-0.106201 0.173418 0.0739462 
0.0363459 0.0424288 -0.224664 
0.0743996 0.119714 0.813191 

0.059305 -0.00601887 0.138494 
-0.0264501 -0.0628768 0.183474 
0.000380025 0.000448262 -0.068309 

0.0106836 -0.00878641 -0.00978662 
0.000977691 -0.0121856 -0.00592422 
0.00016582 0.004166 0.00065296 

-0.0144245 0.00538961 0.0211525 
-0.0189302 -0.00364352 0.0897635 
0.000962244 0.00261558 0.099878 

-0.0340695 -0.0466847 -0.0309276 
0.0288974 0.0126084 -0.0197595 
0.0029715 0.00329324 0.0325344 

-0.0707019 0.0840185 -0.145913 
0.00772457 0.0747491 -0.00875348 
0.00942988 0.0187776 -0.0129285 

0.00270185 -0.0234131 -0.0751455 
0.00610169 -0.015475 -0.0172818 
-0.00209284 -0.00261536 -0.00356134 

0.0183396 -0.0242327 0.010518 
0.0693365 -0.0322456 -0.106269 
0.000293522 -0.00576769 0.0138439 

-0.540625 0.330147 2.23744 
-0.0210963 0.282047 1.52178 
-0.00535 -0.00474903 -0.0174902 

-0.154896 -0.0327285 -0.0980452 
0.0979905 0.103074 -0.150352 
-0.0041075 0.0125027 -0.00538552 

-0.00421295 0.0270668 0.0101423 
-0.0367166 -0.00540638 -0.0304938 
0.00164733 -0.00420902 0.00872163 

-0.0054844 -0.010339 0.00206738 
0.0133004 0.00109508 0.0102604 
0.000101215 -0.000401369 0.00912038 

-0.0420696 -0.0119217 -0.0741791 
-0.0244141 0.0342392 0.0853314 
0.00781518 0.00590106 0.124177 

0.00235492 -0.00679305 -0.0452357 
-0.0091376 -0.001897 -0.0592006 
-0.00245698 -0.00260524 0.0157448 

-0.0231879 0.0177747 -2.09652 
-0.0106603 4.72199e-06 -0.851812 
0.00275765 0.000468003 0.0464282 

-0.0125005 0.0900962 -0.0128742 
-0.0721194 0.013525 -0.0149194 
0.00138866 -0.00250168 0.0140436 

-0.266293 0.985858 0.237811 
-0.25791 0.381585 0.00628313 
0.00147718 -0.0706183 0.320569 

-0.00733202 -0.0150153 0.0356945 
0.00249494 0.025288 -0.0502088 
0.000148602 -0.00065752 -0.00549733 

-0.0306 0.039912 -0.205548 
-0.0123989 0.0340015 -0.0821371 
0.0121868 -0.00183697 0.0775968 

-0.0508128 -0.984507 -1.6318 
0.778031 0.686952 1.67479 
0.0510249 -0.0125846 0.309678 

-0.548183 1.21182 -0.570237 
-0.0628734 -0.242533 0.147025 
0.000598624 -0.0965159 0.263481 

-0.0368954 -0.0710327 0.0936191 
0.141837 0.064246 -0.226209 
-0.00269272 0.00114345 -0.0187566 

-0.387629 0.230729 -0.480006 
-0.21326 0.432143 0.447612 
-0.00322167 0.116095 0.394432 

-0.0638949 -0.0135599 1.91939 
0.0615163 0.0524082 0.247285 
0.00285216 0.00460254 0.114043 

-0.0502666 0.0788797 0.0270077 
-0.0330042 0.0369202 0.182959 
0.0191226 0.0255785 0.250104 

-0.09706 0.156745 -0.213878 
-0.201669 0.0673642 -0.350915 
0.00616766 -0.0144226 0.0402783 

0.0245623 -0.0183064 -0.0061401 
0.00256133 -0.0256582 0.0132652 
-0.0119034 -0.0115635 0.00696458 

-0.334171 -0.462292 0.542182 
0.0692889 0.281442 -2.05535 
-0.0318185 -0.0461064 -0.0507961 

-0.0762797 0.0153616 -5.82563 
-0.0267132 0.0318313 -3.25592 
0.00291616 0.0111326 0.145588 

-0.0194628 -0.00877759 0.0267201 
-0.0952278 0.017396 0.0734032 
0.000343819 -0.0131653 -0.0407113 

0.0114348 -0.017021 -0.00328158 
0.0192138 -0.0157992 0.026233 
-0.000386599 -5.33353e-05 0.01378 

-0.0115452 0.00392702 0.0536364 
-0.0384517 0.001173 -0.010598 
-0.0116145 -0.0155741 0.044187 

-0.231021 0.795578 1.30447 
-0.285452 0.332382 0.833624 
0.0437262 0.00396051 -0.0235737 

-0.043742 -0.0367675 -0.124954 
0.095819 0.0106211 0.0214624 
-0.00565285 -0.000567281 0.065329 

-0.145659 0.0368999 1.30907 
-0.199992 0.191808 -0.0336255 
-0.00508415 0.0368416 -0.323569 

-0.0126494 -0.0493407 0.0262875 
0.0305606 -0.00220688 -0.0279334 
1.73764e-05 0.000375073 0.02316 

-0.00163121 -0.0211301 0.201472 
0.0318268 0.00409025 -0.357609 
0.00404396 0.000728611 0.0396773 

-0.389023 -0.265198 -0.574283 
-0.384906 0.109572 0.922909 
0.0297954 0.0203845 0.179372 

0.0376996 0.059861 0.0789879 
-0.0953193 -0.0308573 0.0587161 
0.0034055 -0.010728 0.0399135 

-0.0215578 0.0179234 -0.00563731 
-0.0221359 -0.00908169 0.0305945 
-0.00437806 0.00392 0.0555719 

0.0356823 -0.0707969 0.0871691 
0.00747786 0.00481077 0.030827 
-0.0825467 0.00137032 -0.184399 

-0.0177152 -0.0680129 0.142437 
0.132968 0.0315915 -0.0827305 
-0.00367046 0.000154158 -0.0401854 

0.00849842 0.0293427 -0.0107799 
-0.0218124 -0.00200117 -0.00342922 
-0.000669992 0.00119756 -0.017502 

-0.189616 -0.447628 0.193237 
0.146555 0.264738 -0.25466 
-0.00791075 -0.0114625 -0.136844 

-0.0389036 0.132417 0.0620577 
0.00793749 -0.0178988 -0.00267164 
0.0142882 0.0162907 0.108331 

-0.00953722 -0.0150967 -0.0326528 
-0.00674084 0.000711734 -0.0213204 
0.000382269 -0.00040103 0.0188751 

-0.0419061 -0.0362248 -0.00488749 
0.0126366 0.0362164 0.36074 
-0.00990595 -0.00967988 -0.0140549 

-0.0819183 0.225777 1.47096 
-0.142484 0.040175 1.87872 
-0.00435654 -0.0645179 0.0275732 

0.00781966 -0.04644 0.00906679 
0.0311463 -0.0204726 0.00459764 
-0.00292251 -0.00293535 0.0117351 

-0.0416247 0.0413554 2.40216 
-0.0177689 0.0462955 2.43963 
-0.0109824 -0.0115855 0.230443 

-0.286763 -0.307452 0.842162 
0.136442 0.157654 0.636205 
-0.0811324 -0.0516884 1.02305 

-0.0215618 0.0608877 -0.0155568 
-0.0525444 0.03019 -0.0289312 
0.0010962 -0.000627807 -0.0144367 

-0.0117709 -0.081169 -0.273776 
0.0141607 0.0659201 0.328719 
-0.00270299 -0.00355267 -0.0720015 

-0.016659 -0.0520485 0.00526912 
0.0499114 0.0214798 0.0142018 
0.000253828 0.000844636 -0.00350259 

-0.00354785 0.0384065 0.145416 
-0.0282645 0.000832762 -0.0703656 
-0.0279529 0.00828891 -0.00777787 

0.00998963 -0.00253168 -0.0378787 
0.0463702 -0.00434914 0.0272762 
-0.000449778 0.0105254 -0.015212 

-0.0454942 0.0441236 -0.0340548 
0.0551013 0.00565981 -0.163892 
-0.0102706 0.0133788 -0.0249437 

0.00701974 -0.0281948 0.0052319 
0.0355142 0.000516003 -0.00344201 
0.000621505 0.00154352 -0.012374 

-0.129671 -0.100247 -0.409268 
0.0589055 0.184665 -0.799112 
0.0030047 -0.00418015 0.0438322 

-1.09609 1.4399 -0.367148 
0.0268883 0.316381 -1.58892 
0.00853786 0.0344626 0.0254063 

-0.0265162 0.0143538 2.96229 
-0.0164897 0.00835309 -1.83267 
-0.00857127 0.0160953 3.20881 

0.000476821 0.0873202 -0.677504 
-0.0616288 0.0282869 -0.00263793 
-0.00286966 0.00181174 0.0792258 

0.0666829 0.19854 0.0253157 
-0.329309 0.0209174 -0.122132 
0.000893199 -0.00779411 -0.0822143 

-0.00530011 0.118888 0.00446882 
-0.0868388 0.0272198 0.00239121 
0.000466878 -0.00274625 -0.0184066 

-0.31806 -1.38866 -6.54154 
-0.197129 0.0933263 -1.43842 
0.0718983 -0.0511213 0.0257003 

-0.32658 -0.27919 0.0485888 
0.306033 0.151876 -0.25189 
-0.00406222 -0.00297082 0.0474056 

0.00204537 -0.00941025 -0.00761894 
-0.00676513 0.008785 0.00210368 
-0.00186334 0.00123898 -0.000715234 

-0.0236141 0.0602702 0.383891 
-0.0129252 0.0245877 -1.02388 
-0.0155683 -0.0221199 0.39748 

0.0561457 -0.0486089 -0.0841831 
0.0501757 -0.0385203 0.00826846 
0.000392753 0.00192293 0.0211226 

-0.0253378 0.0335265 -0.014656 
-0.0064848 -0.0120845 0.0659488 
0.000366438 0.0068024 0.0221771 

-0.106735 0.0732292 -7.18753 
0.0660331 -0.0630574 -47.999 
-0.000735981 0.00265204 0.657595 

-0.118675 -0.165696 0.0526072 
0.154841 0.126381 -0.0903128 
-0.00729212 -0.0136877 0.052181 

-0.0937945 -0.0327279 0.0996732 
0.0403749 0.0278439 0.194069 
-0.01475 0.00384685 0.0628761 

0.0129558 0.0956633 0.145675 
-0.0870165 -0.00640707 -0.348459 
-0.000658977 6.60932e-05 0.00876872 

-0.272985 -0.29447 -0.334409 
0.0553433 0.190299 0.269813 
0.0178607 0.00137954 -0.0693747 

0.00062515 0.0343172 0.771341 
-0.0346989 0.0268349 1.07538 
0.00897958 0.00807245 0.0898852 

-0.00675943 0.0268241 -0.00823031 
-0.0203196 0.00467838 0.0178229 
0.00033978 0.000352188 0.00136825 

-0.0175487 0.0806321 0.0247506 
-0.0978173 -0.0348054 0.0114521 
-0.00202145 0.00384883 0.0644101 

0.00239302 0.0655892 -0.0252018 
0.0181737 -0.041976 -0.107022 
-0.00027831 0.00373703 0.0475906 

0.00784674 -0.00162159 0.0552908 
0.0266456 0.0072492 0.305767 
-0.00499238 -0.000283153 -0.0992024 

0.029942 -0.00235373 -0.0538813 
-0.0612562 0.0270993 0.145701 
-0.0233879 -0.0375853 -0.129515 

0.0428188 0.0348303 0.0638106 
-0.090566 -0.0280133 0.0444091 
0.00245333 0.0177439 0.0352298 

0.138066 0.112791 -0.0304291 
-0.160176 -0.175201 -0.411595 
0.00676254 0.0393197 0.864458 

-0.023786 0.340125 1.16475 
-0.0823655 -0.0692862 -0.794065 
0.000453566 -0.00247157 -0.0514786 

-0.129021 -0.0188516 -0.443016 
0.0428072 0.118315 -0.0450347 
0.00643367 -0.076338 0.310937 

-0.105277 -0.0996866 -0.362924 
-0.0316962 -0.0103758 -0.0685871 
-0.00624211 0.0109354 -0.0625209 

0.000919666 0.04373 -0.00790342 
0.0385344 -0.00578239 0.245511 
0.0203718 0.00318355 0.0558831 

-0.0300659 0.250666 0.0520566 
-0.167644 0.0397209 0.0549902 
0.0032311 0.00150164 0.00164575 

0.00494106 0.134598 0.117077 
-0.149829 0.00812386 0.104476 
-0.0134587 0.0231179 0.145737 

-0.173783 0.21565 2.221 
-0.00755321 0.165472 -1.3791 
0.0494283 0.00502285 0.149757 

-0.00769724 0.00600595 -0.0382852 
-0.0134519 0.0174073 -0.00435357 
0.000149341 0.000113421 -0.0064888 

-0.339955 -0.639564 0.576104 
0.167874 0.379372 -0.752546 
-0.0833328 -0.0284752 1.02172 

-0.276161 0.411492 -2.57046 
-0.0077936 0.229663 -1.20193 
0.00673101 -0.0108141 0.124936 

-0.103283 0.0522463 -0.152179 
0.0209679 0.186627 -0.145481 
-0.0185531 -0.00904593 -0.0215149 

-0.0919171 -0.256521 -0.945728 
-0.197074 0.0128001 0.413971 
-0.00667667 -0.00743328 0.00966732 

-0.501249 0.526653 2.99679 
0.168405 0.213549 -1.45033 
-0.000109708 -0.0269746 0.252215 

-0.0259078 -0.0452344 -0.0647554 
-0.00617551 0.0306498 -0.132867 
-0.00218958 0.00244561 0.0321998 

-0.0635534 0.231461 0.144213 
-0.128157 0.0438128 -0.561393 
-0.00313409 -0.00983364 -0.0695687 

0.00244166 0.0481756 0.0016207 
-0.0829052 0.00533995 0.00478367 
0.00272495 0.00143724 -0.00665084 

0.0513116 -0.209223 0.1029 
0.231069 -0.000301449 0.077987 
-0.083904 0.00335369 0.179389 

-0.108928 -0.0122705 0.651246 
-0.0227503 0.153199 0.27389 
0.0079488 -0.0188515 0.250863 

0.0230628 -0.138105 0.0171715 
0.129118 0.00613184 -0.00665162 
-0.00927224 0.0118466 -0.0566567 

-0.0652496 -0.0115387 0.0138595 
0.0252802 0.0495226 0.0773692 
0.0502121 -0.04688 0.182787 

-0.125862 -0.221515 -0.786652 
0.0397399 0.268842 -1.73698 
0.0367596 -0.0220132 -0.0467888 

-0.00966546 -0.0296853 -0.030066 
0.0273577 0.0116244 0.0229487 
-0.000636251 0.00127837 -0.00707116 

-0.0111395 -0.0319855 0.0243291 
0.0304005 0.00370635 -0.0143481 
0.000552872 0.000675636 0.0122066 

-0.00185843 -0.0242154 -0.00494111 
0.00628987 0.00837572 -0.0171317 
3.63201e-05 0.00154147 -0.00454001 

-0.00525707 -0.00406872 0.0117417 
0.00852273 -0.000400762 -0.00342811 
-0.000615963 -0.000508514 0.00822062 

-0.175847 -0.249218 1.03327 
-0.217742 0.0264398 1.81534 
0.00401882 -0.011153 0.364963 

-0.0490195 -0.00785739 0.0868252 
0.105698 -0.00549999 -0.0667671 
0.000574361 -0.00191964 0.00563968 

-0.20007 0.268118 9.42364 
-0.112229 0.155003 15.5376 
-0.00153099 -0.00803203 0.370254 

-0.503774 -0.867136 0.393604 
-0.157772 0.134741 0.128522 
-0.0354912 -0.028125 0.210677 

-0.032321 0.0919793 -0.0507852 
-0.0291388 0.0455791 1.28307 
-0.00207157 -0.00738689 0.265776 

-0.0422782 0.0245212 0.0890717 
-0.00899863 0.0584293 -1.24678 
-0.00339165 -0.0106557 0.0442057 

0.0377847 0.0207032 -0.0191346 
0.125824 -0.0251987 0.288511 
0.0116893 -0.000842911 0.0540913 

0.00886323 0.197729 0.00596985 
-0.20866 0.0218888 -0.246928 
-0.038594 -0.00805831 0.184251 

-0.00452601 0.0272348 0.00697082 
-0.025617 0.0166524 -0.303574 
0.0315916 -0.00971109 0.00159616 

-0.0532073 -0.00404533 -0.285843 
-0.0070976 0.0253468 0.205406 
0.011025 0.0178507 0.761082 

0.0044739 0.0280483 0.431642 
-0.00964738 0.0100084 -0.151746 
-0.00129493 -0.00120383 0.0482006 

-0.154014 0.21599 1.61328 
-0.321753 0.226706 2.22262 
0.0308364 0.00499751 -0.0871381 

-0.00981865 -0.00413228 -6.21032 
0.00512107 -0.0147053 5.78208 
0.0104731 -0.0018737 -0.0442326 

-0.00630651 0.0156593 -0.0635017 
0.00456887 0.0017228 0.00602628 
0.000223773 -0.00609884 0.0655649 

0.00615304 0.0242492 -0.0560646 
-0.0184372 -0.0193053 -0.0920573 
-0.00167836 -6.04781e-05 0.0150592 

-0.0931966 -0.288792 5.29054 
-0.098026 0.0396651 -1.79806 
0.0401175 0.00861494 -0.475719 

-0.00909293 0.0545029 -0.279768 
-0.0431261 0.0210364 0.0224242 
-0.000502783 -0.00317173 0.00963732 

-0.0136766 0.000752172 -0.0952332 
-0.000634375 0.00364351 0.0353715 
0.00637872 0.00068235 -0.00603795 

0.0689965 0.377352 -0.224902 
0.0896685 -0.00428188 -0.0606909 
-0.00181603 0.0028333 0.0169557 

-0.0562066 -0.0139192 0.0463268 
-0.0446414 0.00642859 0.0528919 
-0.0178472 0.0400301 0.712198 

-0.383224 0.419209 -0.65802 
-0.251826 0.429997 -0.317757 
0.0160046 -0.102742 0.7341 

-0.0199689 -0.00573296 -0.00801815 
0.0136668 0.00914069 0.00493665 
0.000887814 0.00177245 0.00750666 

-0.173434 0.0968288 0.105318 
-0.148452 0.179278 0.256174 
-0.0137951 0.00890583 0.0273386 

-0.0102235 0.0459252 -0.0364915 
-0.0730885 0.0196096 -0.27104 
-0.013046 0.000832623 0.109355 

-0.0137638 0.00288689 -0.0620029 
0.0575157 0.0182762 -0.0695726 
-0.00235869 0.00167997 0.0142095 

0.0491276 0.0256274 -0.0161431 
-0.0326748 -0.00419109 0.0858815 
0.00762405 -0.00276196 -0.0531828 

0.0141618 0.150373 -0.123583 
-0.141891 0.00540275 -0.0141081 
-0.00437409 0.0255101 0.299984 

-0.0687569 0.109891 -1.35265 
-0.072238 -0.00233539 -0.768209 
-0.00606962 -0.0233 -0.0352172 

-0.00287059 -0.0423228 0.186514 
0.0454603 0.0188406 0.0266523 
0.000401243 0.0449758 0.425258 

-0.0185126 0.0430062 0.0128779 
-0.0355596 0.0305034 0.0126221 
0.00464755 0.00354989 -0.033305 

0.0149544 0.0333262 1.14917 
0.102096 -0.0171132 -0.68766 
-0.00104375 -0.00644147 0.182426 

-0.00856579 0.00454068 -0.100513 
0.0101002 -0.0128138 -0.0107252 
0.000902933 0.00137005 0.0260665 

-0.0244277 0.0477997 -0.00710467 
9.89737e-05 0.0273974 -0.102627 
-0.00188354 -0.00138903 -0.0121471 

-0.0416024 0.0421554 -0.266936 
-0.049703 0.0344507 -0.750044 
-0.000561718 0.00146742 -0.07839 

0.0152017 -0.0797967 -0.0995462 
0.100778 0.0348453 -0.011592 
-0.0116638 -0.0189395 -0.0405678 

-0.0160356 -0.00170909 -0.953609 
-0.00656859 0.0101875 1.3513 
0.00568188 0.000208567 0.266111 

-0.0129628 0.0557366 0.00211226 
-0.139678 -0.0256184 0.0613213 
0.0116463 -0.00782074 0.040145 

-0.0128093 0.13282 0.203336 
-0.101474 -0.117043 -0.0393856 
-0.010173 -0.0256735 0.231976 

0.0246108 -0.038174 0.321812 
0.0982397 0.195117 0.398106 
0.109239 -0.0140596 0.0672432 

-0.00948451 -0.0229416 0.0152806 
0.023236 0.0118834 -0.0122506 
0.00025904 0.00112904 -0.00197296 

0.0184712 -0.0638958 0.0839563 
0.0369704 0.0111455 0.0653486 
-0.00550236 0.00263371 -0.0344176 

-0.0630079 -0.0488005 0.961532 
-0.0389978 0.0361779 1.07836 
-0.012275 -0.00726073 -0.178029 

-0.0051972 -0.034151 -0.0177845 
0.0287342 0.00723703 0.016874 
0.000953716 0.000719638 -0.00215815 

-0.0389129 0.243641 -0.0640043 
-0.287701 0.0713543 0.121736 
-0.0167964 -0.107026 0.275179 

-0.157351 0.152488 -0.503432 
-0.0307213 -0.000952584 -0.139843 
-0.00468311 -0.0136335 0.0627523 

-0.00946614 0.175756 -0.0827131 
-0.134663 -0.0174155 -0.106206 
0.00353114 -0.00601426 0.0956814 

-0.0431493 -0.0759526 0.00803094 
-0.0529613 0.0134636 0.359692 
-0.00939178 -0.00512454 0.081531 

-1.08321 1.25814 -3.9431 
-1.22826 1.08379 -3.68075 
0.0431863 -0.0449106 0.184631 

-0.0876018 0.199238 -0.13142 
-0.469145 -0.134233 0.041862 
0.098532 -0.105364 0.37762 

0.0299757 -0.0346613 -0.13976 
0.0489034 0.0129253 0.0468872 
0.000707156 0.00107219 -0.0215858 

-0.0211367 0.0290048 -0.177844 
-0.015103 -0.0304781 -0.032158 
-0.0542001 0.0345457 0.112577 

-0.0599216 0.0429112 0.305966 
-0.0307173 0.0257236 -0.111052 
0.0238445 -0.0175338 0.185736 

0.0149105 0.0659614 -0.0880926 
-0.0135689 -0.0202461 0.0256781 
-0.000921178 -0.00107606 0.0146667 

-0.0266477 -0.0393307 -0.0195521 
0.0294895 0.0141384 -0.0679397 
-8.06456e-05 -0.00298458 0.0186479 

-0.0407771 0.111769 -0.0784016 
-0.0321529 0.125134 -0.0171701 
-0.00406972 -0.0467935 -0.121989 

-0.569992 -1.45945 2.83436 
-0.0194741 0.300214 -1.00592 
-0.0102456 -0.020633 -0.106904 

-0.00853267 -0.00825695 -0.0156296 
0.0229996 0.00823974 0.00969406 