# vtk DataFile Version 3.0
Output file generated by Yade's KinematicLocalisationAnalyser
ASCII
DATASET UNSTRUCTURED_GRID

POINTS 13483 float
596.776 36.1503 -0.477173
724.557 72.0444 -0.54307
120.788 6.08723 -0.470157
754.284 5.3621 0.267452
502.15 8.30678 0.313913
317.922 36.3932 -0.452342
157.488 6.84671 0.438884
565.043 10.5308 0.130563
498.476 26.6134 -0.141124
689.031 15.2047 -0.471785
212.233 8.77475 -0.0959768
259.649 6.3077 -0.263679
633.766 46.2691 0.139451
616.707 27.2483 -0.0865552
138.009 17.894 -0.454318
223.367 35.0989 -0.389652
219.588 13.0019 -0.26203
292.21 9.75742 0.375595
345.306 33.3388 0.446746
524.426 8.5512 0.400113
414.91 38.1482 0.0985121
582.293 50.6402 0.256697
750.434 53.0194 -0.489507
670.956 52.5341 0.458204
463.055 17.0577 0.30476
243.306 44.6942 0.122045
493.746 31.5777 -0.457083
578.981 21.2384 0.234344
45.1156 15.9634 0.461829
687.024 38.7319 -0.385085
485.585 4.92853 0.366034
16.0855 24.214 0.334813
738.781 70.6748 0.257751
498.417 2.66045 0.478006
78.8277 44.9324 0.10417
524.743 31.4133 0.323352
532.765 18.0357 -0.440961
347.968 22.9557 0.178812
537.453 28.9923 -0.322061
355.902 34.9394 -0.432287
243.817 14.4849 -0.320535
437.518 39.714 0.0871183
649.242 5.57377 0.225087
194.346 6.25162 0.370276
55.6495 7.08889 -0.107261
69.0727 9.00986 0.293366
662.486 8.56425 -0.514958
23.2182 11.8065 0.267115
596.218 62.6539 0.338191
651.755 31.5849 -0.353513
173.078 32.8716 0.29053
719.403 60.5215 0.115875
35.1753 28.1694 -0.113746
533.752 2.95516 0.36573
142.938 7.11228 -0.494523
590.964 39.0361 0.425401
505.566 29.9433 0.120004
176.308 0.96634 0.273643
32.8498 2.42457 0.293282
353.035 18.194 0.270305
609.865 66.7155 0.132823
466.797 35.3652 -0.183586
404.552 1.02643 0.198354
671.388 9.45107 -0.504659
27.1113 43.1236 -0.237363
259.761 30.6139 0.288594
689.558 10.2057 -0.230672
661 68.8458 0.354889
423.155 8.56172 -0.524871
565.928 3.78551 -0.339569
712.447 43.5117 0.423484
131.708 7.87718 0.251402
500.661 28.9656 -0.14032
482.363 16.2042 -0.118428
298.523 16.8373 -0.344305
20.3116 13.6344 -0.293178
738.41 61.697 -0.317926
337.056 39.5356 -0.308911
650.452 30.4823 0.355594
661.203 15.3534 -0.231259
748.659 26.3007 -0.23393
470.015 36.8786 -0.176064
93.5894 39.0978 -0.272669
662.454 46.4664 -0.211464
638.845 58.0564 0.0965355
754.849 57.8425 0.114265
741.773 0.683765 -0.493123
294.914 28.7676 0.470984
617.15 6.31726 -0.112562
24.1994 5.26468 0.548616
134.834 39.3727 0.150626
515.956 14.7918 0.184498
732.701 45.0678 -0.501111
197.532 28.6257 -0.261448
45.2817 34.9364 -0.273222
497.245 1.44111 0.145454
238.81 8.74606 -0.419916
698.592 67.8486 0.238864
725.894 36.6505 0.253528
366.467 21.1263 -0.268431
164.695 27.4199 -0.451406
551.515 54.0504 -0.448533
385.816 15.1909 -0.510638
420.464 30.5583 -0.0989545
383.808 4.56127 0.403733
547.111 13.1672 0.150756
759.204 12.7172 0.244734
81.0914 39.8339 -0.411105
340.518 5.03328 -0.203154
559.172 10.8818 0.360907
365.658 46.0907 0.195143
25.2288 24.735 -0.489097
30.5526 5.70007 0.307459
565.966 41.4701 0.402997
508.251 26.7396 -0.150551
26.6715 36.8732 0.427143
94.4875 31.2069 0.219186
330.317 16.1456 -0.283706
597.329 20.1243 0.152021
481.222 43.077 -0.0374708
703.283 10.1665 0.376552
696.494 6.27742 0.393605
393.387 37.3027 -0.105654
620.404 41.1129 0.112366
241.957 17.2982 -0.496193
335.888 3.87083 0.461034
104.706 32.3196 0.310281
118.178 25.2847 -0.278577
547.262 53.4923 0.10337
312.512 19.1136 0.462556
687.66 43.5983 -0.117437
666.12 69.9111 0.103191
487.244 22.033 -0.453156
734.601 12.7145 0.528158
436.417 25.69 -0.221762
282.231 25.3491 -0.302727
659.491 52.4241 -0.286951
284.778 29.6135 0.372285
575.614 13.0497 -0.190711
338.7 36.5387 -0.193612
510.138 12.0065 0.496301
373.789 32.2921 -0.0926275
438.437 17.5089 -0.103043
324.346 43.002 0.433377
193.619 30.0206 -0.123854
729.402 70.3762 0.158852
756.541 15.0382 -0.339687
6.10224 12.689 -0.447751
442.575 23.7462 -0.402405
38.8878 22.6113 -0.0845024
384.106 31.4772 -0.486601
403.757 25.5572 -0.264332
75.7567 11.9372 -0.514681
52.4203 35.4537 -0.493176
230.213 13.5005 0.421135
609.816 60.0368 0.46844
576.337 23.3566 -0.523357
75.4459 21.5465 0.490985
675.046 54.6151 0.410855
722.852 2.06013 -0.539415
655.579 61.8362 0.47586
669.008 1.93932 -0.555835
554.281 33.9246 -0.396649
583.287 48.0947 -0.492131
519.37 19.617 -0.397137
752.465 4.64213 0.420806
228.071 25.6594 -0.13596
130.401 36.3108 -0.193495
252.351 6.70419 -0.387978
95.8694 4.44742 0.285038
65.3444 9.98723 0.233033
282.293 36.9889 -0.309955
16.5199 25.8874 -0.358851
557.612 22.9549 0.45814
599.006 58.6506 0.253315
472.808 22.9152 -0.358574
751.842 72.2061 -0.351364
416.272 8.67284 -0.108216
443.765 39.3243 -0.437351
541.968 3.4817 -0.174885
22.6485 23.9962 -0.409018
577.751 5.4852 0.472392
550.371 7.12486 -0.465329
210.619 11.3783 0.525214
435.231 17.0184 0.186111
318.735 6.25464 0.379046
397.55 19.3566 -0.354852
703.187 56.6729 0.110183
195.702 25.8294 -0.413004
742.228 10.4107 -0.35996
705.363 53.7177 -0.316573
392.483 10.3927 0.179029
687.061 2.33391 0.463923
600.755 33.656 -0.448767
706.376 24.9072 0.414342
439.802 46.5874 -0.280181
504.797 14.4815 0.447645
472.956 47.7272 -0.216018
455.554 9.0273 -0.210089
659.244 62.409 0.308317
658.336 57.8845 0.283681
196.096 39.1243 -0.301911
746.463 26.1246 -0.131778
584.378 46.8514 0.285643
11.8047 18.263 -0.187232
418.059 26.027 0.348462
190.916 23.347 0.415612
95.2025 40.1976 -0.211649
729.666 39.5046 0.367254
652.39 66.6182 -0.221011
326.981 26.4382 0.356593
538.649 10.325 0.316968
83.9897 45.0895 0.173978
253.608 25.9524 -0.464145
559.734 28.8758 0.343235
495.809 20.0324 0.410277
269.172 0.906958 -0.355425
560.464 54.1749 -0.377687
540.91 50.5933 0.462383
490.634 37.6619 0.381458
508.804 2.16766 -0.66666
677.057 21.0552 -0.374162
183.207 12.3603 -0.170585
509.642 39.3682 0.447296
569.604 46.5743 0.143501
74.4791 0.935655 -0.259831
257.822 4.67065 0.184588
755.439 18.3454 0.181958
749.079 28.241 -0.392452
761.422 21.2678 -0.676009
311.27 8.50552 -0.244988
715.045 27.1523 -0.448285
416.083 45.3801 0.318797
460.187 0.93677 0.500506
643.715 54.6543 -0.417884
27.1697 30.5152 0.331934
339.215 41.2217 -0.494092
258.745 2.83422 0.333358
742.583 68.8221 -0.198679
682.636 54.7095 -0.257666
294.851 11.0375 0.239617
649.91 47.774 -0.0949013
560.796 2.54613 0.259867
547.913 7.47241 0.546115
98.9669 18.6519 -0.498707
311.122 1.02462 -0.227079
351.799 2.27064 -0.360061
13.9178 7.58482 -0.448545
4.41096 32.4822 -0.246739
165.139 19.0735 -0.370451
69.9868 42.483 -0.219963
67.8225 29.7214 -0.311065
434.782 14.8453 -0.451383
376.058 36.1784 0.463431
716 62.2831 0.134301
19.6336 4.01756 -0.265204
72.1327 6.98954 -0.139038
618.638 54.4012 0.138521
302.376 0.926717 0.370149
374.018 16.1984 -0.100319
241.413 4.69888 -0.36697
639.182 35.5435 -0.168045
462.61 9.1991 0.43241
715.213 23.9463 -0.486177
619.521 44.4139 -0.294593
649.322 24.4531 -0.101656
431.435 27.8706 0.454236
104.741 45.825 -0.306731
549.856 57.8417 -0.00118106
702.791 19.2044 0.20121
243.956 30.8086 -0.242527
32.2612 16.5941 -0.179241
345.265 14.0813 0.488983
110.281 41.2538 -0.484731
275.008 43.1776 -0.203761
437.132 2.04717 -0.341675
735.538 54.9509 0.438672
663.967 0.743278 -0.534197
341.032 3.48269 0.563061
308.22 27.2155 -0.145055
472.63 44.3706 0.221292
83.4417 8.17992 0.468374
202.43 45.3104 -0.382933
725.497 44.8862 -0.364555
505.338 42.6012 0.0768287
204.816 41.2313 -0.26879
164.221 43.4827 0.378372
758.388 51.1542 -0.419068
757.808 13.6989 -0.535278
608.226 2.92476 -0.604408
194.346 24.5634 -0.09915
556.305 36.1082 -0.101726
555.602 32.808 0.284481
420.811 5.66151 -0.14071
492.336 0.910591 -0.328893
714.007 64.9783 -0.483108
87.0101 31.4221 0.216818
640.774 27.7363 0.410407
281.541 15.6887 -0.350099
9.44853 2.36134 0.344158
128.96 38.0961 -0.183972
67.6965 23.5404 0.455428
676.123 40.28 0.376147
743.149 79.2275 0.175468
189.766 28.74 -0.181044
753.642 17.3824 -0.298667
46.514 37.3963 0.264009
93.2621 29.5784 0.151846
625.715 26.7068 0.423942
425.332 18.4967 -0.486204
529.057 17.6034 0.107492
244.505 28.8962 0.186765
622.709 6.97707 -0.526977
760.604 14.2501 0.463904
30.2596 31.4393 0.254022
277.673 7.68573 0.190553
227.856 15.3809 -0.234817
1.08153 38.4236 0.150128
231.299 14.5186 -0.393919
217.143 10.9865 0.116558
219.63 26.682 -0.277156
136.246 28.9195 0.142998
553.585 17.6481 0.365986
170.825 14.339 -0.328646
736.328 68.4551 -0.226596
178.36 3.93843 -0.501677
48.2202 39.9671 -0.343189
691.789 77.8495 -0.426721
289.788 33.132 0.402222
654.345 33.8391 -0.511542
739.824 51.7829 -0.452107
309.318 9.16281 -0.107069
707.318 42.1282 0.364525
337.967 2.52001 -0.41827
428.206 24.7239 -0.395467
652.099 20.237 0.509415
108.028 11.5829 0.513574
494.024 3.85506 -0.534432
717.978 21.2871 0.177035
90.3885 7.72945 -0.26704
289.692 14.9599 0.186192
435.61 12.2749 -0.219972
752.701 2.73035 0.450483
409.572 1.98763 -0.529251
180.702 39.412 0.299971
704.696 15.5759 -0.350408
132.213 37.442 -0.215137
270.836 32.0121 -0.376092
412.637 22.2033 0.223252
578.203 14.7177 -0.387428
398.365 9.92404 -0.457747
468.416 29.7726 -0.417521
725.427 72.782 0.390886
48.6728 11.0528 0.14971
307.495 39.3637 -0.274331
390.581 26.1615 -0.407013
421.681 20.4969 0.245734
529.986 46.5631 -0.382051
707.454 64.2653 0.210142
663.087 59.2061 -0.145756
231.573 34.9275 0.399691
13.5061 32.8024 0.14857
656.313 58.1527 -0.116625
520.821 42.5343 -0.454308
235.992 39.5539 0.0929876
659.937 41.5289 0.119432
154.716 9.25862 -0.200808
378.628 22.0502 0.272959
474.068 45.835 -0.129203
425.955 20.0837 0.198339
721.569 74.0105 -0.294385
438.24 3.93981 0.503096
51.1126 25.5638 0.32183
482.531 35.1517 0.34465
446.224 43.7281 0.36486
739.462 63.3032 0.210605
703.803 41.901 -0.215312
548.586 21.2717 -0.157203
730.521 63.5157 0.41823
301.938 2.22134 -0.462162
390.884 29.2599 -0.453937
29.764 38.7342 0.304688
708.835 43.3036 -0.148244
607.252 21.1839 0.481703
474.136 0.746101 -0.485693
129.011 4.67276 -0.337715
437.43 44.154 -0.0931354
11.8934 0.904315 -0.315968
750.96 8.49217 -0.22102
[...]
POINT_DATA 13483
TENSORS Strain_matrix float
-0.24834 -0.00166552 0.1024 
0.214319 0.217437 4.05211 
0.0178594 0.0128114 1.37704 

-0.00355905 -0.76169 167.947 
0.0371467 -0.377099 83.0886 
-0.000217673 0.00183104 -0.0521942 

-0.0117603 -0.00782705 0.248972 
0.00668822 0.00900415 0.506194 
-0.000207131 -0.000662152 0.0967771 

-0.416054 0.00869432 0.279804 
0.203701 0.275164 0.595505 
0.0697836 0.0366435 0.239133 

-0.117213 -0.259904 -0.436462 
0.197188 0.156854 -0.37548 
-0.00821204 0.00528178 0.0379158 

-0.00854393 0.0178534 -0.0120611 
-0.0181751 0.0119119 -0.472958 
-0.000109824 -0.000606283 0.0372085 

-0.0117992 0.00345392 -0.033931 
-0.00404509 0.00342491 -0.00624291 
0.00057858 -0.000230054 0.0144755 

-0.0346456 -0.00651159 0.00278347 
-0.0137133 -0.01292 -0.0795591 
0.00200422 0.00197454 0.107513 

-0.00261952 0.0400888 -0.170473 
-0.0592841 -0.0181422 0.334573 
0.0102405 -0.0320478 0.541811 

-0.0048205 -0.0104802 -0.12288 
0.0838079 -0.00269401 -0.204895 
-0.00644467 -0.00284531 0.0412139 

-0.0267108 -0.00785662 0.0664297 
0.0368674 0.0224451 0.0553844 
-0.0168861 -0.0596845 0.195091 

-0.00822505 -0.00120533 0.0148878 
-0.00142224 0.00600655 0.00795341 
0.000195781 0.000451578 -0.00578346 

0.200155 0.349322 2.39275 
-0.169789 -0.143667 -0.257581 
-0.0360705 -0.0110074 -0.0903506 

-0.462442 -0.25312 -0.907653 
0.448378 0.345846 0.491527 
-0.00462752 -0.00352592 0.00698636 

-0.0186402 -0.0342696 -0.0174224 
0.0190368 -0.0189759 -0.0681648 
0.000451245 0.000371917 0.0239741 

-0.00943022 0.0077289 -0.11214 
-0.00494751 0.00288559 0.0357387 
-0.000413563 0.000638001 0.0118566 

-0.00652798 0.00435531 0.00462504 
-0.00499547 0.00288278 -0.000580826 
7.84059e-05 0.000526226 0.00355877 

-0.00568156 -0.00155278 0.054762 
-0.00538277 0.00133864 -0.0537195 
0.00247036 -0.00077148 0.025991 

0.0102417 -0.00705075 -0.0682461 
0.0337014 -0.00864943 0.145332 
-0.000478468 -0.000912428 0.00578005 

-0.0614506 0.175749 0.325026 
-0.184366 0.0482347 0.0847833 
-0.00574157 0.0152314 0.090239 

-0.0127895 0.000493074 -0.0163266 
-0.0296227 0.0115024 -0.0074937 
0.0341693 -0.0216162 0.0949612 

-0.221076 -0.115105 -0.31393 
-0.266472 0.492022 2.24263 
0.0175506 -0.00757161 -0.294803 

-0.0246819 0.014184 0.484095 
-0.0225894 0.00786433 -1.23218 
9.58915e-05 0.000245362 0.151452 

-0.224578 0.152127 0.0232148 
-0.211997 0.366576 2.48173 
0.00372089 0.00477604 0.411039 

-0.000133371 0.0346573 -0.0822173 
0.0171045 0.0131558 0.041513 
-0.00183989 0.00110425 -0.0297602 

-0.0201492 -0.01338 -0.0548673 
0.00723892 0.012703 0.0500526 
0.000557167 -0.00148967 0.00625952 

-0.0363426 -0.00257654 -1.92106 
-0.114222 0.0466603 1.90491 
0.00500827 0.000490423 0.183699 

-0.0985516 0.169857 0.0291641 
0.00642391 0.0862565 -0.151028 
0.0570025 0.00569509 -0.137307 

-0.00577176 -0.00157671 -0.0307118 
-0.00194011 0.000650899 -0.148939 
-0.000137886 -0.0001319 0.0796454 

-0.00962148 0.0508956 0.0306956 
-0.0550043 0.0129582 -0.0812957 
-0.00210973 -1.1955e-05 0.00140998 

-0.0035882 0.0208654 0.00922544 
-0.0292931 0.00812539 -0.0587098 
-0.00865446 0.00715149 0.00798274 

-0.023643 0.0129961 -0.297167 
-0.0902121 0.0133762 -0.178667 
0.0331798 0.00949531 0.0587285 

-0.0325197 0.049977 -0.293457 
-0.0593656 0.000537507 0.128412 
0.00167629 0.000814796 0.0341436 

-0.0269787 0.0451384 -0.291457 
-0.0451572 0.0703589 -0.325603 
-0.0012044 -0.0144555 0.12246 

-0.0232215 -0.0137358 0.0270719 
0.0075354 -0.0338763 -0.117804 
0.000768024 -0.000528584 0.0162827 

0.077201 0.0326627 -0.886054 
0.0493098 0.0034709 0.721565 
-0.0133494 0.0144642 0.138497 

-0.0929859 0.102808 0.693643 
0.121817 0.0738977 -0.29012 
0.00334477 0.00112135 -0.0271275 

-0.0410659 0.00699022 -0.0871908 
0.0482849 0.064384 -0.0149416 
-0.00153735 -0.000501477 -0.0130791 

0.1101 0.190073 -0.128721 
0.0174987 -0.0348806 -0.709721 
-0.0149514 0.00139348 0.0328029 

-0.0332527 -0.0303271 1.32047 
0.0593531 0.0640561 0.472904 
0.00200086 0.00471225 0.112476 

-0.0184161 -0.00541188 -0.0214461 
0.0080025 0.013516 0.0760067 
0.000189043 0.00166417 0.00285171 

-0.0115153 0.0794892 0.0811229 
-0.0749601 0.00228661 0.00832649 
-0.00192913 -0.00245615 0.0532672 

0.0274737 0.131997 -0.00464693 
-0.268895 0.0161805 0.0540529 
-0.00440197 0.0272827 0.0282168 

-0.00935344 0.00284633 -0.0207682 
-0.000824792 0.00572584 -0.0212994 
0.00190015 -0.000481124 0.0215351 

-0.0124416 -0.0125791 0.0221967 
-0.00464906 0.00145083 -0.0100243 
0.00112559 -0.000103212 0.0238074 

-0.0104902 -0.00674984 -0.0233601 
0.00518127 0.00227158 0.0212384 
-0.000973992 0.000673571 0.0175703 

-0.0434504 -0.109086 -0.154038 
0.0476313 0.170622 -0.119805 
0.0185055 0.0846158 0.0245212 

-0.00303086 -0.0199075 -0.00512434 
0.0248997 -0.00678696 0.00871308 
-0.00129179 -0.000257507 0.0147783 

0.0900731 -0.245194 -0.262748 
0.33909 -0.0625031 -0.339034 
-0.0579764 -0.00207415 0.352852 

-0.306925 0.251047 -0.993791 
-0.253999 0.231347 -2.33188 
0.0472539 0.0144061 -0.0433356 

-0.0314789 0.0177004 0.00171161 
0.00547277 0.0224929 0.074555 
0.000482995 0.000842636 0.00499187 

-0.129814 -0.291554 0.00299696 
-0.0170837 0.0446683 0.411306 
0.0233236 0.0315939 0.154809 

-0.0108632 0.00666947 -0.140798 
0.000780229 0.0142661 0.14513 
0.000651552 0.000167145 0.00130172 

-0.0345426 0.0241081 0.0171897 
0.00488992 0.0206596 0.079154 
0.00243257 0.00502861 0.0744397 

-0.00779523 0.0245074 0.10127 
0.00906264 0.00883872 0.131217 
-0.079954 -0.0213493 0.0713782 

-0.48938 0.176884 -3.84521 
0.675581 0.321053 -2.90936 
-0.0415159 -0.0215605 0.147436 

-0.00977772 -0.0601759 0.16255 
-0.135753 -0.0258876 0.390318 
0.0379695 -0.0399704 0.118587 

-0.00924211 -0.00662496 0.033653 
-0.000653896 0.000139326 0.00888326 
-8.17913e-05 -0.000891717 0.0145193 

-0.00886808 -0.002272 0.0178064 
0.000433314 0.00120292 0.019318 
0.00039198 5.22369e-05 0.00780056 

-0.00275138 -0.0117405 -0.0315906 
0.00837251 0.0132879 0.0145478 
-0.000718413 -0.00086583 0.00125812 

-0.0875113 0.0496713 -0.00434813 
-0.0826975 0.544046 -0.406877 
0.000828385 -0.0162557 0.150981 

0.0236283 -0.0603998 0.364266 
0.174092 0.00712262 -0.0415867 
-0.000861284 -0.000716997 -0.0109732 

-0.0114589 0.00213397 4.95223e-05 
-0.00660547 -0.00343864 -0.009611 
0.00050508 -0.000489207 0.0256139 

0.00535862 -0.0276277 -0.142679 
-0.0246618 0.00450199 0.548757 
0.000100027 -0.0118841 0.10925 

-0.0738258 0.00410803 -0.103642 
-0.00739965 0.0235195 -0.0756703 
0.00131131 -0.0104542 0.026297 

0.0117001 -0.0251558 0.0348246 
-0.0318907 0.0156568 -0.128362 
0.000837796 -0.00019205 0.0148983 

-0.0795312 -0.0392175 0.0802669 
0.0140144 0.0912289 -0.176636 
0.000832229 0.00634609 0.0599332 

0.0042843 0.0271263 0.212821 
0.00906703 -0.00133525 0.00327516 
0.0980266 0.0428454 0.874074 

-0.0114732 0.000524747 0.0615485 
0.000476264 0.00789497 0.0632019 
0.000416362 -8.50464e-05 0.186004 

-0.0233834 -0.0451349 0.000981068 
0.00455149 0.00335332 -0.00129893 
0.000189989 -0.00165114 0.0251189 

-0.0167252 0.0861791 0.323222 
0.00238083 0.0592113 0.476089 
0.00625217 4.14993e-06 0.0386372 

-0.0240778 0.0124846 0.000685558 
-0.0147189 0.0192562 -0.0569078 
0.0315301 -0.00509408 -0.0712611 

-0.15316 -0.0549195 -0.217317 
-0.00390566 0.192183 -0.0808103 
0.0344506 -0.0114197 0.154383 

-0.0108199 0.210144 -0.232789 
-0.0936736 0.0323722 -0.0129391 
0.0021305 0.00237869 0.0531986 

-0.00927522 0.00817344 -0.0758688 
-0.0113266 0.0053572 -0.379661 
-0.000427684 0.000382094 0.0534695 

-0.0228347 0.00742216 -0.0489092 
0.016815 -0.00966867 0.0534565 
-0.00176946 -0.00606908 0.058223 

-0.00766194 -0.0243524 0.0717174 
-0.0387143 0.0155515 0.161563 
0.00241854 -0.000946898 -0.0132913 

-0.0092592 3.57867e-05 -0.00974315 
-0.00730543 -0.000485571 0.00844098 
-0.000635896 -0.00120983 0.0169407 

-0.379637 0.232007 0.0212047 
-0.83664 0.440425 -0.17902 
0.0210993 0.020846 0.120196 

0.0447276 -0.0533726 0.0134041 
-0.00744974 0.0127068 -0.278807 
-0.00680889 0.0275303 0.0878555 

-0.00360723 -0.0919633 0.112393 
0.144106 -0.00189902 0.0330911 
0.00143582 0.00850114 0.0518166 

0.00218344 -0.104414 0.499285 
0.149406 0.021999 0.169796 
-0.000414048 -0.000233906 0.000353598 

-0.0112644 -0.00922793 0.0164533 
0.0164458 0.00750998 0.0172544 
0.0005178 0.00130205 0.0103466 

-0.168041 0.144517 -1.2647 
-0.201606 0.100201 -1.15079 
-0.0180518 0.0113558 0.0139079 

-0.0030152 -0.141491 0.0124407 
0.119954 -0.00597058 0.00068667 
-0.00216454 0.013459 0.0130704 

-0.0253749 -0.0445665 -0.0477217 
0.0143196 0.00067207 -0.0407626 
-0.00236655 0.00042513 0.0275579 

-0.102798 -1.22437 -0.953294 
0.00158157 0.528542 0.036455 
-0.000842287 -0.416954 0.162615 

0.00172089 -0.00727873 -0.113231 
0.0193041 0.0165686 -0.0255892 
0.00218446 0.000178817 0.0248583 

-0.146155 -0.225805 0.312246 
0.162511 0.0627074 -0.159017 
0.0572053 -0.00176319 0.515268 

-0.0128154 -0.0038429 -1.66571 
-0.00204955 -0.0133114 6.01186 
-0.000574979 -0.00164946 0.645235 

-0.005615 0.00260956 -0.00951644 
-0.00892725 0.00347633 -0.00324794 
0.000758756 -0.0025208 0.0142055 

-0.0423263 0.270445 -0.375603 
0.00448134 0.0910603 -0.252883 
-0.0201777 -0.0419733 -0.144909 

-0.210252 -0.0705661 -0.795752 
0.127147 0.192854 -1.85095 
0.00351108 -0.00222517 0.00636408 

-0.00416038 0.00262916 -0.00770908 
0.00156474 0.00357122 -0.0168889 
-0.000782283 -0.000489695 0.00402641 

-0.00992792 -0.0115157 0.0308289 
0.0259088 0.0232001 -0.140237 
0.000269619 -0.000751022 0.0157652 

-0.0354516 0.0303855 -0.0569896 
0.0082857 0.0668492 0.00359342 
-0.00910632 -0.0597279 0.209314 

-0.0138702 0.000684444 -0.0258134 
0.00774649 0.0040905 0.0361508 
-0.00025101 -0.000581302 0.00414061 

-0.185767 0.139082 0.155538 
0.122544 0.145698 -0.000458029 
0.00213687 0.0511413 0.126005 

-0.180499 -0.0196912 0.710813 
0.0336454 0.160506 0.771889 
-0.00144527 -0.00658293 -0.0129221 

-0.0189378 0.00755179 -0.136678 
-0.0339085 0.0531161 0.641747 
0.00656154 -0.00115318 0.00572776 

-0.0165551 -0.000485872 -0.730165 
-0.000916187 0.0131019 0.0335293 
-0.000617272 0.000243957 0.0347396 

-0.0613789 0.0422484 -0.564179 
0.00915899 0.0312956 21.9538 
-0.00048222 -0.00540878 0.48226 

-0.0108702 0.0106908 0.327336 
-0.000217606 -0.00124839 -0.473409 
0.00116633 -0.000576688 -0.0890434 

-0.0388942 0.0310372 0.0268969 
-0.0476746 0.0360898 0.0243562 
0.000390757 -0.00034053 0.00981701 

-0.0131775 -0.00493801 0.0581332 
-0.0129857 0.00934072 0.0141855 
-9.36143e-05 -0.000199625 0.0136331 

-0.0324426 -0.143816 0.0726307 
0.152517 0.0355483 -0.0679011 
-0.00463147 0.00417534 0.0561691 

-0.203774 -0.189561 -0.450752 
0.253844 0.159608 0.0681467 
-0.0218271 -0.00490239 0.0650532 

-0.0260948 0.0164761 0.212104 
-0.0305305 0.0120776 -0.241328 
-0.00389598 0.000282172 0.0561345 

-0.0209073 0.0258518 -0.00858622 
0.00929628 -0.00504341 -0.0296033 
-0.000687887 0.00430511 0.0759963 

-0.164451 0.1529 0.171266 
0.0723367 0.175908 0.589146 
-0.0114678 0.00977502 -0.0297341 

-0.0150273 -0.0667296 -0.436103 
-0.101022 -0.02469 -0.121551 
0.0110892 -0.020619 0.0608591 

0.00983982 0.0358348 -0.362428 
-0.0358931 -0.0175535 -0.852869 
0.000343387 0.000645882 0.1185 

-0.0109185 -0.000128023 0.000335834 
-0.00220676 0.00487752 0.0109728 
0.000292776 0.000813615 0.00813747 

-0.164865 0.155621 -1.08143 
-0.130247 0.238033 -0.111565 
-0.029589 0.018279 0.0665948 

-0.0501084 -0.0103546 -0.0669562 
-0.0180879 0.0330771 -0.0430688 
-0.0104931 0.0580026 0.252588 

-0.0209169 0.0153955 -0.160223 
-0.00567895 0.00340917 1.13039 
9.00002e-05 -9.97983e-06 0.0491459 

0.00144296 -0.0327359 -0.102123 
-0.0320616 0.0302766 -0.0256455 
0.00249909 0.00112817 -0.00315793 

-0.0214439 0.00159368 -0.00603959 
0.00513462 0.0242627 0.0347413 
-0.000518033 0.00105589 0.0173873 

-0.372478 0.131917 0.240139 
0.110919 0.158077 0.151218 
0.0104305 0.00454347 -0.00428829 

-0.0178169 -0.131588 0.057445 
0.15097 0.0197221 -0.0184664 
0.000449537 -0.00204365 0.0412626 

-0.143606 -0.0286875 0.0185652 
0.00881958 0.0126292 0.544716 
-0.0804898 -0.0228806 0.0485907 

-0.117294 0.117557 0.48456 
-0.112632 0.054732 0.0138628 
0.00176425 0.0535504 0.382442 

0.0128837 -0.0296252 -0.00561616 
0.0316642 -0.0136072 -0.0478994 
0.000315744 0.00087331 0.00781897 

-0.0516916 -0.0712494 -0.0237813 
0.0434251 0.0455976 0.0133296 
-0.00165493 -0.00044761 0.0293993 

-0.00675783 -0.0114782 0.112389 
0.00234664 0.00664803 -0.0909935 
-0.000297085 -0.000437907 0.0298691 

-0.0285122 -0.0137799 -0.0941731 
-0.00429897 0.0329203 -0.00336335 
0.0285197 -0.0892388 0.24733 

-0.0208595 -0.0106491 0.035855 
0.00939189 0.0145558 0.024824 
-0.000385235 0.00105146 0.0116299 

-0.00715833 0.0172128 -0.0212722 
-0.0158989 -0.00733622 -0.0181873 
0.00359807 -0.00228413 0.0237143 

-0.00522506 -0.0970611 0.121872 
0.00461457 0.00532775 -0.0748666 
0.0191613 -0.0115019 0.359167 

-0.0534171 0.058995 -0.666756 
-0.138057 0.0102916 0.356605 
0.000680158 -0.00233146 0.0356631 

-0.0310565 0.0626695 0.240948 
-0.0461102 0.0214527 -0.116728 
-0.00784608 -0.0204372 -0.022497 

-0.00991385 0.190598 0.0983551 
-0.00383206 -0.0473105 0.0468366 
-0.0642774 0.0318001 1.04355 

-0.132662 -0.124409 0.655846 
0.0581576 0.124819 2.02654 
-0.00108165 -0.00152942 0.337208 

0.0158276 0.00671242 -0.496165 
-0.10499 0.0541199 0.107044 
0.00963737 0.0220759 -0.0708596 

-0.0180421 -0.0697671 -0.274386 
0.0610036 0.0307221 0.190374 
0.0330309 0.0299222 0.146932 

-0.0633646 0.0993426 -0.34998 
-0.165244 0.0999696 0.30239 
-0.000817126 0.00129755 -0.019878 

-0.161993 0.470326 0.584415 
-0.728794 0.333329 0.521501 
0.000581803 -0.0304175 0.083531 

-0.00912656 0.0231354 -0.449501 
-0.0253074 0.0422484 0.24932 
0.000289488 8.74495e-05 -0.0224305 

-0.0355718 -0.0132484 0.258294 
0.121422 0.104736 0.0977186 
-0.00409276 -0.00308999 0.0439201 

-0.00443293 -0.00878765 -0.0293907 
-0.00699635 -0.00198155 -0.0231696 
0.00124079 0.000179335 0.00778235 

-0.0555472 0.0596655 -0.420754 
-0.0244369 0.0366633 -0.352018 
0.0095781 -0.010971 0.143384 

-0.0534079 -0.2495 -0.473233 
0.125057 0.0430147 -0.232456 
-0.0220605 -0.0365218 0.100507 

-0.212237 -0.126197 -0.0524312 
0.021995 0.193001 0.808735 
-0.00465959 0.00570094 0.0706421 

-0.00748548 0.0188174 -0.0746037 
-0.0231235 0.00499544 -0.00688145 
-0.000836017 -0.00140459 0.0230095 

-0.00560457 -0.00233499 -0.095524 
-0.0153103 0.000345963 -0.181266 
0.000457611 -0.000490494 0.0107349 

-0.021273 0.0124002 0.0978415 
-0.0346341 0.0249059 0.011126 
0.0193245 0.00141378 0.135535 

-0.0973783 -0.113709 0.051055 
0.0310436 0.0949513 -0.237878 
0.0108362 0.015738 5.51445e-05 

-0.0116467 0.00524713 0.0715502 
-0.00911662 0.0106096 0.0311315 
-0.00748352 0.00312095 -0.138824 

-0.0588371 0.0844964 -0.138398 
-0.195409 0.0289856 -0.683534 
-0.0132905 0.00475288 -0.145196 

0.000159066 0.00490417 -0.00526009 
0.0345488 -0.00395791 0.0222946 
-0.000299537 0.000288741 0.00256562 

-0.0607135 -0.027976 0.736811 
0.0386333 0.0323961 -0.326213 
0.000198852 -0.000666443 0.111353 

-0.0300141 -0.0596479 -0.0194265 
0.0198183 0.0193026 0.102058 
-0.00203565 -0.0021177 0.0312907 

-0.0151135 -0.0130901 -0.0615026 
0.0107943 0.00408259 -0.755635 
0.000450883 0.000156076 -0.0851887 

-0.0185183 0.0113489 1.06684 
0.00824155 0.0144869 -1.08721 
0.000205234 -0.000191296 0.0486778 

-0.0123904 0.00152702 -0.0609182 
-0.0188554 -0.00568778 -0.0869589 
0.000437157 -1.8367e-05 0.0157924 

-0.00108768 0.244346 1.00349 
-0.263382 0.0396305 -1.05044 
0.0252031 0.00571665 0.063091 

-0.148196 -0.0599466 -0.327207 
0.0166496 0.0790583 1.7449 
0.00828937 -0.00899854 0.167906 

-0.00965377 0.00151477 1.24129 
-0.0130382 0.0106469 -0.428697 
0.000562379 0.000140126 0.146813 

-0.113202 -0.145937 3.26201 
-0.380877 0.107569 1.8992 
-0.00695023 0.0283844 0.485044 

-0.0395228 0.0845745 -0.667286 
-0.183884 -0.00808916 -0.0641131 
-0.0441288 -0.0119661 0.239599 

-0.065649 0.171061 -7.26328 
-0.0803017 0.0820663 -13.7703 
-0.000985341 0.0122344 0.274268 

-0.0418766 -0.0810111 -0.305701 
-0.0310113 0.0587739 0.565507 
-0.0181065 0.0615351 0.0155363 

-0.166079 0.200747 0.674011 
-0.270878 0.127833 -2.00482 
0.00109769 -0.0308523 -0.427229 

-0.216726 -0.379271 -9.87476 
0.032264 0.299935 -2.02495 
-0.0147756 0.00826074 0.577895 

-0.00321147 -0.0438027 -0.0194427 
0.0191091 0.0122278 -0.305478 
-0.0043087 -0.00315399 -0.0748076 

-0.269706 -0.0665242 -0.195386 
0.0877741 0.227029 -0.743072 
0.00961428 0.00741682 0.165518 

-0.0279736 -0.000994094 0.000591622 
-0.000875196 0.0200745 0.0292153 
-7.49827e-05 0.000486997 0.00868444 

-0.0125188 0.00781508 -0.00284835 
-0.024359 -2.94638e-05 -0.0279676 
-0.000809487 -0.00139536 0.0247422 

-0.0123619 0.00266234 0.00494223 
0.00264464 0.0091367 0.107666 
0.00450287 0.00105352 0.0461932 

-0.0110532 -0.00547994 0.0233686 
-0.00339635 0.00391606 0.0139871 
-1.68268e-05 -9.60744e-05 0.0212549 

-0.00994796 -0.00442271 -0.00113439 
0.00451981 -0.00086116 0.027439 
-0.000457954 -0.000223608 0.0182849 

-0.000395438 -0.0155808 -0.092099 
0.0111221 -0.000178123 -0.0407808 
0.00097279 -0.000854113 0.00292032 

0.00725609 0.0123924 -0.40353 
-0.0528217 -0.00195406 -0.029771 
-0.000386162 -0.00199723 0.0140745 

-0.148642 0.0441572 -1.50681 
-0.0147973 0.0964994 -0.142493 
0.00225688 -0.000484693 0.185263 

0.084302 -0.250152 0.0465288 
0.261592 0.0161206 0.0219184 
-0.00456974 -0.0128764 0.232684 

-0.0329598 -0.0013054 0.179125 
0.006009 -0.00530737 0.837289 
0.00179631 -0.00258349 0.00201086 

-0.0186916 0.0546515 0.609375 
0.046411 0.0172569 -0.893856 
-0.00643518 -0.000434885 -0.0893433 

-0.00624577 -0.00108545 -0.00496308 
0.00855677 0.00274663 0.00437751 
-0.00079262 0.000424756 0.00075376 

0.0058842 0.0709943 0.0895746 
-0.106838 0.00306849 -0.416425 
-0.00677896 -0.00689257 -0.0101682 

-0.0277957 -0.0372051 -9.92394e-05 
0.0242646 0.00859535 -0.0154369 
-0.00200907 0.00283183 -0.0256011 

-0.013994 0.0359568 -0.0612206 
-0.0800481 0.0284261 0.174935 
-0.00206414 -0.000251539 -0.00733781 

-0.0751956 -0.0192551 -0.561258 
0.0871701 0.04511 -0.676156 
0.00792291 -0.0419488 0.10122 

-0.171113 0.0319164 -0.222592 
0.0418387 0.0404657 0.142453 
-0.0251066 0.0148111 0.00807644 

-0.0214358 0.00585106 -0.228205 
0.0061396 0.0134725 -0.0810507 
-0.00155098 0.000644413 0.0772109 

-0.13877 0.0772186 0.000368806 
0.0141301 0.189576 0.566059 
0.00299221 0.00882851 0.0506762 

-0.0159684 -0.00286251 -0.073802 
0.00196403 0.00322821 0.0199874 
0.000875587 -1.00585e-05 0.0238781 

-0.0112587 -0.0311724 0.39773 
0.0435009 -0.00609779 -0.128802 
6.89183e-05 0.00101028 -0.026486 

0.0161079 -0.268218 -0.56923 
0.0571658 0.10413 0.267727 
-0.00449499 -0.0411013 0.698648 

-0.0128645 0.00669017 0.171544 
-0.0278221 0.0110604 -0.0135089 
7.80952e-05 8.95825e-05 0.0104983 

0.0258745 -0.0294769 0.175736 
0.150593 0.0662654 -0.212662 
0.00397469 -0.00700614 -0.0127721 

0.0214555 -0.188293 0.250152 
0.106287 0.0294604 -0.454889 
-0.0191477 -0.0217072 -0.12189 

-0.0222857 0.00945444 0.0787936 
0.00199106 0.00152472 -0.0142721 
0.00159023 0.000975744 0.0562026 

0.0100418 0.0021641 0.0425767 
-0.00266506 0.00822481 0.0178183 
-0.00135808 -0.000907999 -0.00805048 

-0.338918 -0.290821 -0.271156 
0.482556 0.342287 0.430777 
-0.00534514 -0.0179931 -0.0949068 

-0.0378397 -0.0450744 -0.477121 
-0.0702198 -0.0282069 0.0879637 
-0.0196904 -0.0272093 0.176276 

0.00524707 0.0793233 -0.00610417 
-0.0854325 -0.00269189 -0.00841276 
0.000806726 0.0084158 0.0163327 

-0.000561654 0.0517185 0.34591 
0.0481479 -0.0166311 -0.692697 
0.00213142 0.0215649 0.0267639 

0.00153081 -0.134258 0.000520363 
0.155136 0.015035 -0.0196278 
0.000445709 0.00060497 0.00876721 

-0.0589282 -0.133112 0.0150737 
0.0287976 0.00576453 -0.0920617 
-0.00245007 -0.0087682 0.0343492 

-0.0433845 0.0880699 -1.01276 
-0.0529873 0.0424233 -0.257054 
-0.00909374 0.00777289 0.27569 

-0.0757046 0.0424746 -3.16385 
-0.177032 0.0838539 -1.60155 
-0.00216885 0.000375409 -0.00964013 

-0.00997543 0.000853159 -0.00744516 