# vtk DataFile Version 3.0
Output file generated by Yade's KinematicLocalisationAnalyser
ASCII
DATASET UNSTRUCTURED_GRID

POINTS 13483 float
621.396 33.9434 -0.413775
764.923 67.1052 -0.540653
122.666 6.06399 -0.474083
792.973 5.22128 0.282779
511.885 7.88066 0.29547
322.593 35.9634 -0.4529
159.93 6.82054 0.431533
581.815 10.6254 0.118973
508.619 24.9988 -0.145408
724.687 14.8489 -0.465159
215.502 8.79058 -0.113749
263.361 6.27395 -0.267542
662.902 36.8877 0.143255
642.543 19.9151 0.0878305
140.157 17.4765 -0.448416
226.768 34.8015 -0.392853
222.883 12.9509 -0.261652
296.443 9.57607 0.375313
349.995 33.1014 0.452118
537.368 8.53586 0.36224
421.564 37.717 0.106324
603.772 46.8342 -0.256965
791.06 49.1051 -0.447266
705.041 50.802 0.555744
470.858 16.8191 0.297331
246.877 44.5051 0.122529
503.62 28.8956 -0.454075
597.644 20.1096 0.264693
45.9469 15.9078 0.463189
721.879 38.1344 -0.382178
494.61 4.82481 0.350462
16.8871 23.5341 0.305923
779.505 65.9445 0.250506
507.917 2.48907 0.481747
80.172 44.5295 0.100174
535.094 30.3967 0.325058
544.722 17.2625 -0.436819
352.764 22.7475 0.174134
548.31 27.1373 -0.307862
360.512 34.0799 -0.39526
247.306 14.4679 -0.314776
445.703 38.3646 0.0858573
683.894 5.97164 0.315956
197.298 6.21492 0.372397
56.6274 7.06511 -0.106495
70.1789 9.01338 0.289558
697.851 8.28596 -0.586303
23.7501 11.8042 0.263534
621.878 52.3928 0.356737
685.309 28.8623 -0.32391
175.957 32.5885 0.289024
757.839 56.0715 -0.123114
35.9466 28.1011 -0.112514
547.655 2.93491 0.349051
145.194 7.17386 -0.481796
608.026 35.6397 0.428516
516.505 28.434 0.120956
178.969 0.968492 0.26719
33.4525 2.428 0.2893
358.055 18.0267 0.274208
634.86 55.4121 -0.133522
474.511 34.3385 -0.178606
410.708 1.02909 0.195927
706.779 9.41995 -0.542144
27.4475 43.0598 -0.23541
263.405 30.3192 0.291214
724.847 9.88008 0.186345
687.783 58.8645 0.366665
429.587 8.51799 -0.519804
582.383 3.78478 -0.320594
749.325 42.1416 0.392673
133.715 7.82104 0.260257
511.143 27.4252 -0.149347
490.876 15.9602 -0.092418
302.862 16.7778 -0.341439
20.8036 13.679 -0.271363
779.402 57.2036 -0.33355
341.831 39.4815 -0.301015
683.672 28.2775 0.337361
696.739 14.9203 0.24475
787.952 23.5138 -0.225247
477.943 35.3058 -0.172597
95.172 38.7141 -0.269364
695.154 44.5122 -0.226123
665.766 48.1399 -0.0959935
795.62 53.9084 0.105494
780.115 0.762457 -0.558821
299.159 28.5193 0.48242
637.205 6.26994 -0.105748
24.6886 5.26668 0.516056
136.87 38.9623 0.149677
527.327 14.0471 0.208944
771.099 41.3663 -0.493419
200.619 28.4379 -0.259077
45.9999 34.7453 -0.27686
506.831 1.15763 0.139564
242.279 8.75473 -0.408483
737.512 63.9526 -0.250144
765.33 34.8343 0.284992
372.269 20.4869 -0.275216
167.558 27.039 -0.446097
565.179 46.205 -0.494589
391.773 15.1567 -0.496329
426.927 30.1312 -0.101106
389.721 4.54752 0.406776
562.299 12.3618 0.125327
798.817 11.7448 0.178959
82.4315 39.5478 0.380129
345.608 4.9227 -0.182668
575.329 9.99054 -0.354681
371.46 44.5131 0.441375
26.1812 24.8702 -0.465665
31.1278 5.69142 0.308673
582.386 35.9535 0.408913
519.323 25.3331 -0.151633
27.2309 36.944 0.423466
95.961 30.9398 0.224768
335.211 15.9834 -0.283151
616.988 18.71 0.129397
489.978 39.8342 -0.109369
739.571 10.0047 0.375832
732.815 6.03415 0.207695
399.86 37.131 -0.10335
648.526 32.2877 0.0978292
245.51 17.224 -0.490955
340.744 3.70915 0.462395
106.526 32.0377 0.312199
120.177 24.9683 -0.262867
560.808 45.5131 0.088542
316.666 18.9572 0.501665
721.959 42.8289 -0.116326
692.598 60.1879 -0.10079
496.837 20.024 -0.394516
772.165 12.431 0.60069
443.73 24.4526 -0.224991
286.175 24.6985 -0.293531
689.802 44.7911 -0.289209
288.473 29.2488 0.371125
592.819 12.1023 0.168121
343.449 36.4765 -0.192837
521.231 11.1111 0.515694
379.488 31.5518 -0.0881417
445.945 17.2692 -0.098179
328.945 42.7079 0.431653
196.638 29.7545 -0.121133
770.083 65.3633 0.15916
795.883 13.3556 -0.320452
6.16782 12.438 -0.451226
449.666 22.9744 -0.401998
39.6685 22.5553 -0.0831079
389.771 31.1513 -0.479615
410.082 25.4772 -0.246496
77.0005 11.8778 -0.511073
53.2798 34.9449 -0.487308
233.587 13.4749 0.428789
636.235 48.9299 0.428832
594.46 21.5686 -0.417891
76.8781 21.4077 0.494493
709.924 52.5542 0.406979
760.13 2.19817 -0.568135
682.406 51.7097 0.478057
704.37 1.67096 -0.661277
568.829 31.5875 -0.384303
604.124 45.107 -0.710804
530.41 18.3141 -0.370023
791.514 3.84029 0.223099
231.428 25.3715 -0.129704
132.419 35.8739 -0.191882
255.948 6.63216 -0.381553
97.5065 4.42277 0.286643
66.4226 10.0091 0.225654
286.237 36.476 -0.308025
17.2771 25.2584 -0.350088
574.045 20.8232 0.41792
623.458 47.6036 0.26071
480.722 21.8424 -0.362647
792.686 68.8421 -0.361032
422.635 8.62529 -0.105922
452.039 38.5948 -0.414915
556.253 3.46164 -0.154492
23.5519 24.0763 -0.404612
594.822 4.48378 0.463339
565.322 6.01758 -0.28171
213.676 11.2414 0.477927
441.681 16.5869 0.182136
323.343 6.23642 0.371319
403.746 19.195 -0.342934
739.286 54.3892 0.101334
198.814 25.6491 -0.425858
779.287 9.78039 -0.449993
741.218 51.2053 -0.314668
398.52 10.3647 0.170778
722.292 2.32226 0.473521
622.964 28.5162 -0.433846
742.216 23.9243 0.362294
447.51 45.3674 -0.28395
515.745 12.832 0.400849
482.367 45.5739 -0.223111
463.243 8.92445 -0.16427
686.006 52.5816 0.313001
685.259 48.0257 0.299353
199.104 38.8862 -0.307709
785.734 23.6365 -0.107826
605.324 45.7194 0.304429
11.7388 17.5282 -0.171053
424.561 25.6559 0.336607
193.806 23.1305 0.417395
96.7997 39.7887 -0.209538
769.254 37.0999 0.436869
679.411 56.4989 -0.226127
331.846 26.1998 0.359332
552.705 10.1807 0.314762
85.439 44.7374 0.168323
257.217 25.8251 -0.469278
575.311 26.3858 0.400867
505.557 18.9866 0.397183
272.962 0.906181 -0.35091
573.928 46.8131 -0.377569
553.829 45.3133 0.467873
500.514 34.7353 0.384843
519.043 1.71342 -0.66047
712.711 20.8092 -0.364134
185.965 12.1137 -0.172239
520.151 37.962 0.441432
585.055 42.7271 0.15245
75.6288 0.920839 -0.262385
261.516 4.63792 0.185678
795.535 16.2255 -0.198001
788.596 25.4019 -0.384117
802.472 18.6919 -0.464098
315.785 8.47762 -0.24331
751.156 27.2045 -0.42394
423.418 42.7137 0.355947
467.65 0.85545 0.448496
670.298 44.771 -0.459649
27.9869 30.512 0.322757
343.996 41.1986 -0.482294
262.442 2.80712 0.326592
783.443 64.5017 -0.17488
717.733 54.6128 -0.292936
299.103 10.9027 0.224559
680.379 38.5091 -0.0941293
577.071 2.58719 0.240504
562.502 7.30547 0.471236
100.574 18.6033 -0.493427
315.639 1.02189 -0.224971
357.214 2.30031 -0.347262
14.2185 7.59607 -0.405193
4.62521 31.7823 -0.255702
167.69 19.0227 -0.359357
71.0542 41.9465 -0.21894
69.0831 29.2652 -0.315384
441.382 14.8316 -0.396174
382.546 35.2465 -0.29596
756.335 57.9356 0.11542
20.0395 4.04278 -0.261391
73.2681 6.97576 -0.13107
645.953 45.469 -0.140388
306.821 0.922255 0.364115
379.936 16.0022 -0.107881
244.948 4.67927 -0.372198
668.219 27.5236 0.161784
470.385 8.91558 0.431582
751.474 23.9815 -0.457808
647.907 35.7655 -0.289908
682.149 21.5196 0.0943722
438.533 27.0923 0.458881
106.417 45.4136 -0.306398
563.435 49.8931 0.065855
738.511 18.8073 0.257876
247.479 30.5955 -0.239845
33.0685 16.7383 -0.182868
350.285 13.9826 0.483165
112.056 40.8885 -0.484567
278.925 42.6704 -0.203016
443.74 1.65764 -0.314261
776.029 50.7288 0.412337
698.495 0.773611 -0.553304
346.189 3.33314 0.53267
312.738 27.0742 -0.159022
481.573 42.3131 0.219703
84.7542 7.98118 0.393132
205.561 44.9893 -0.378553
762.361 41.9512 -0.375221
515.538 40.8684 0.0743612
207.966 40.9991 -0.26542
167.016 42.9816 0.366592
799.419 47.5744 -0.432825
797.18 12.0358 -0.562056
627.965 3.06519 -0.564441
197.445 24.4456 -0.0932258
570.986 33.6716 -0.111296
570.906 30.353 0.271015
427.204 5.62637 -0.142896
501.737 0.920423 -0.304141
754.428 60.8967 -0.501888
88.4586 31.1497 0.216344
671.374 20.5806 0.560107
285.851 15.5007 -0.351305
9.76033 2.32137 0.354098
130.952 37.5889 -0.182602
69.1727 23.31 0.475754
710.939 39.147 0.358608
783.641 74.925 0.17601
192.802 28.3745 -0.183661
792.622 15.4611 -0.311001
47.3128 37.0837 0.254006
94.6641 29.3016 0.15846
652.545 18.8032 0.37988
431.701 18.4305 -0.48435
541.262 17.0993 0.0975809
248.054 28.6888 0.189898
644.1 4.857 -0.555221
800.757 11.18 0.459503
31.0471 31.6042 0.271706
281.563 7.65817 0.189181
231.208 15.3087 -0.239672
1.10522 36.7247 0.146919
234.708 14.5858 -0.381601
220.438 10.9291 0.12137
222.925 26.338 -0.278588
138.603 28.4704 0.138012
568.815 16.8668 0.345385
173.48 14.2728 -0.329554
777.089 63.6614 -0.225217
181.056 3.95139 -0.492969
49.1262 39.5693 -0.346962
732.281 74.6858 -0.426614
293.61 32.4837 0.388516
688.009 31.541 -0.459019
780.359 47.6255 -0.467403
313.818 9.1376 -0.10818
743.049 41.2034 0.342419
343.063 2.57753 -0.389469
435.077 24.4226 -0.388248
686.189 18.5646 0.468834
109.763 11.5385 0.507738
503.41 3.88655 -0.489251
754.503 21.5009 0.156391
91.9566 7.70019 -0.254956
293.939 14.7001 0.187101
442.39 12.0852 -0.227819
790.399 2.55802 0.601749
415.786 1.98831 -0.521587
183.622 39.0468 0.296883
741.063 15.7126 -0.352354
134.237 37.0136 -0.212892
274.714 31.5987 -0.375328
418.932 21.878 0.212829
595.667 13.7107 -0.326385
404.383 9.84026 -0.450647
476.494 28.3926 -0.434987
765.869 67.7533 0.386427
49.5101 11.064 0.138119
312.056 38.8656 -0.274699
396.715 26.1347 -0.412401
428.275 20.3515 0.238458
541.71 45.6832 0.358992
747.176 60.0239 0.197978
689.728 49.4341 -0.380874
235.014 34.673 0.397397
13.9895 32.1168 0.158874
683.262 47.7266 -0.122479
531.268 41.7185 -0.449736
239.433 39.343 0.0916
694.401 38.9107 -0.121569
157.124 9.19877 -0.198316
384.536 21.9819 0.266261
483.218 43.5429 -0.124543
432.517 19.9176 0.207043
761.988 69.3948 -0.290677
445.235 3.89869 0.504596
51.9582 25.4925 0.312412
490.623 33.152 0.333453
454.139 43.3048 -0.347295
780.402 58.787 0.216476
739.868 41.0964 -0.234482
562.81 20.2015 -0.152139
771.201 58.6378 0.41179
306.355 2.2153 -0.461161
396.665 29.1506 -0.463688
30.3873 38.754 0.298565
745.612 42.2911 0.139589
630.1 20.6993 0.510665
482.83 0.785414 -0.467546
131.044 4.58846 -0.307924
445.324 42.7766 -0.0979508
12.2718 0.905256 -0.314629
789.186 6.97538 -0.193111
387.01 39.2545 -0.411163
[...]
POINT_DATA 13483
TENSORS Strain_matrix float
-0.164661 0.425057 -2.26921 
0.0852529 0.123389 0.855904 
-0.000985046 -0.000873631 -0.0264615 

-0.166913 -0.355526 64.3318 
-0.0228446 0.02642 23.9958 
0.00236781 0.000833998 0.0620656 

-0.013653 -0.00039166 0.093247 
0.00823653 0.000625582 0.383052 
-0.000677697 -0.000228576 0.0597485 

-0.00997796 0.0213388 0.080767 
0.0183447 -0.0156478 -0.0444684 
-0.00344184 0.00644936 0.0578908 

-0.153197 -0.0858874 0.105101 
0.0599104 0.0835914 -0.231238 
0.0138435 -0.0145388 0.180508 

-0.0147466 0.0074264 -0.476994 
-0.00741132 0.00903454 -0.907611 
0.000287017 0.000620861 0.0383132 

-0.00666978 0.00181301 -0.0350065 
0.00341566 -0.00594579 0.0156574 
-0.000196659 0.000904512 0.0111621 

-0.0214924 0.0276672 0.0161193 
0.000259294 0.0155854 -0.0169553 
0.000472955 -0.00195814 0.00450529 

-0.187183 0.145808 0.149719 
0.130172 0.18078 0.559558 
-9.16686e-05 0.0297248 0.123278 

-0.0522624 0.0458834 -0.242331 
0.0786321 0.0695304 -0.134666 
0.0489825 0.0147511 -0.155556 

-0.00705127 -0.00432499 0.000872908 
0.00988013 0.000992106 -0.0103442 
-0.000806444 -0.000296229 0.0127736 

-0.00693283 -0.0121736 0.00884523 
0.0182146 0.00240839 -2.61966e-05 
0.000275061 0.000198193 -3.00853e-05 

-0.0197337 0.00953739 0.23155 
0.307296 0.0893604 1.41408 
-0.00171295 -0.000797467 -0.0893752 

-0.160596 -0.181706 0.384551 
0.266991 0.166238 -0.883317 
-0.0637699 0.075569 0.30927 

-0.00744397 0.0239097 -0.763465 
0.013235 -0.0225777 -0.0374948 
-0.000137741 -0.00139418 -0.0878064 

-0.00527797 -0.00862636 -0.0293688 
0.0173851 0.00368686 -0.0238191 
-0.00247143 0.00130004 0.00589509 

-0.00495675 0.0116447 0.00330359 
-0.00773402 0.00172105 0.00343582 
-7.93541e-05 0.000589659 -0.000528311 

-0.00896601 -0.000574743 0.00205109 
0.00874045 0.00231656 -0.0185609 
-0.000587374 0.000707978 0.0119571 

-0.00295727 -0.00293165 -0.0165031 
-0.0171295 0.000574976 0.212908 
0.000222966 0.000171245 0.00401349 

-0.0192478 0.0589475 -0.00393504 
-0.0668512 0.0170141 -0.0126553 
-0.00878763 -0.00174569 0.0422157 

-0.151845 -0.0323213 0.794227 
-0.0578221 0.0362664 -0.156993 
-0.0489698 0.0311026 0.492317 

-0.687869 -0.0818867 -0.362117 
-0.37942 0.32125 0.956774 
0.0803314 -0.0146811 0.363268 

-0.000912551 -0.143699 -0.348732 
0.126421 0.0799377 1.58229 
-0.00203882 0.00148653 0.0761442 

-0.233314 0.703016 3.24914 
-0.353553 0.36128 -1.70928 
0.0117321 0.00980446 0.677672 

-0.000490349 0.0150751 0.112334 
0.0159641 -0.0134417 -0.118644 
0.00616077 -0.0446069 0.0144418 

-0.0113044 -0.00188617 -0.0268707 
0.000307909 0.00863705 0.0345746 
0.000291365 -0.000937733 0.00354615 

-0.1349 0.020695 6.14317 
0.0282548 0.0846123 -0.42194 
-0.00915472 -0.0112063 0.75993 

0.0358296 -0.0609425 0.486232 
-0.00967857 -0.0533131 0.233001 
0.000809116 -0.000527098 -0.0217055 

-0.00474757 0.0067654 0.186771 
-0.000560921 0.0048004 0.0319279 
0.00103611 0.000340827 0.0153311 

-0.0871533 -0.16573 0.0513448 
0.190122 0.07078 -0.345826 
0.0391244 -0.022354 0.212156 

-0.0133792 -0.0274935 -0.149469 
-0.0313089 -0.0130394 0.0118304 
0.000280788 -0.00308568 0.066473 

-0.018524 0.0255962 -0.183267 
-0.0886725 -0.0344909 -0.0906259 
-0.00368236 -0.000961642 0.0267464 

0.00966418 -0.00254011 0.223592 
-0.0313575 0.0156762 0.110877 
-0.00120734 -0.000287609 0.000305883 

-0.0286185 0.109047 -1.91886 
-0.00121687 0.00342467 -0.091908 
0.00301987 -0.000291108 0.104566 

-0.0236115 0.00638955 0.0479011 
0.00728913 0.00221537 0.0139703 
0.0107561 0.00364937 0.0592844 

0.0180043 0.000939563 -0.111251 
0.0401069 -0.0450038 -0.26932 
-0.00302076 -0.00892043 -0.0535119 

-0.110462 0.107709 1.70453 
-0.0110096 0.0731021 0.6427 
-0.0020473 0.00426724 0.0851224 

-0.0148997 0.0699921 -0.0525003 
-0.0351322 0.0283784 -0.197524 
0.000818616 -0.000143618 0.00697639 

0.00182536 0.0907593 0.0349003 
-0.111649 -0.00852923 0.715556 
-0.0056284 -0.00133874 0.0151172 

-0.00624898 -0.0127258 0.0252812 
0.00700605 0.00539087 0.0565149 
-0.000174761 -0.00100898 0.00176345 

0.000573875 -0.0125358 0.0809869 
0.0124958 0.00381359 0.0594094 
0.000803159 9.31856e-05 -0.00876249 

-0.0226247 0.125003 0.00571525 
-0.0929222 0.0183291 -0.0412351 
0.00230032 -0.00941619 0.0558067 

-0.0545601 -0.00650985 -0.0624339 
-0.0964441 -0.0449505 0.162423 
0.00313202 -0.00179221 0.0660945 

-0.00408932 0.00166525 0.0243437 
-0.002816 0.00424861 -0.00431227 
0.00236712 -0.000395668 0.0177815 

-0.0168088 0.0120986 -0.00667436 
-0.0195139 0.00719848 -0.0114284 
-0.00108716 0.000309711 0.0114652 

-0.0102032 0.0150056 0.0906059 
0.000286725 0.00583392 0.0337267 
0.00074788 -0.000528887 -0.00385555 

-0.185933 -0.144424 0.0546566 
0.179787 0.110219 -1.27192 
0.0732878 0.0191918 0.0205255 

-0.0107028 -0.0109788 -0.0852523 
-0.0365498 0.00746774 -0.0195622 
0.0342665 -0.0326331 0.180883 

0.0840721 -0.172284 -0.229494 
0.277854 0.00663036 -0.696588 
0.0475127 0.0134813 -0.199028 

-0.388495 -0.0259622 -0.0683193 
0.106189 0.248201 0.000764976 
0.00602869 -0.0066491 0.0929843 

0.0199772 0.029396 0.0821662 
-0.0573992 -0.00129453 -0.0172974 
0.000954479 0.000979349 0.00903468 

-0.226086 -0.7593 -0.293122 
0.0763086 0.548283 -1.96985 
-0.0074068 0.0390514 -0.0327398 

-0.00245869 0.014849 -0.0344433 
-0.00569316 -0.00408884 0.0158801 
-0.000510643 0.000588994 -0.00323763 

-0.00596795 -0.00833475 -6.62409e-05 
-0.00486757 -0.0102436 0.0854417 
0.00200616 0.00141659 0.0272704 

-0.0262196 0.00549409 -0.0139908 
-0.0138369 -0.00471334 -0.0120829 
-0.00479827 -0.00174466 0.0181289 

-0.0985135 0.133152 -2.09999 
0.218925 0.0076174 0.58946 
-0.00583486 -0.0121183 0.0951087 

-0.0893616 0.125901 -0.124683 
-0.202885 0.124643 0.143323 
0.00199553 -0.01653 -0.0674829 

-0.00898234 -0.00533894 0.0322702 
0.00126969 0.00884754 0.00600161 
-0.000209304 -0.00276646 0.00269473 

-0.0071847 -0.00170144 0.00811709 
0.00635187 0.00308893 -0.00154469 
-0.000247453 0.000521451 -0.0014614 

-0.00300579 0.00393062 0.0504336 
-0.0215761 -0.00626598 0.0440834 
-0.00108707 -0.000262397 0.0146045 

-0.0480662 0.218588 -1.17787 
0.0440173 -0.0543177 3.46592 
-0.00656948 0.0317684 -0.183327 

0.00878355 -0.0645239 0.0851635 
0.0911702 -0.0238556 0.175447 
-0.00837244 0.00348922 0.0530688 

-0.0082494 -0.00278761 -0.0121123 
-0.00619434 -0.00887943 -0.0273753 
0.000129485 0.0025347 0.0212328 

-0.0600514 -0.0405709 -0.773366 
0.0709232 0.0424854 0.612834 
0.00399705 0.00526404 0.0682051 

-0.0253321 0.00854223 -0.00979277 
-0.0229879 0.0227233 -0.00451903 
0.0155332 -0.0496905 0.0840081 

-0.00219265 0.00115064 -0.00293339 
-0.00708487 0.00664203 -0.0142589 
0.000389354 -0.000221303 0.0029745 

-0.231032 -0.0571966 0.365653 
-0.0157329 0.255513 -0.344555 
0.00594762 -0.0245183 0.0468036 

0.0786556 -0.0573707 0.083846 
0.228842 0.0105031 0.0408063 
-0.00458045 -0.00705411 -0.0461753 

-0.0203421 0.00580308 0.957734 
-0.0126482 -0.0167749 -0.610244 
-0.000980433 -0.00217481 0.240476 

-0.0123289 0.0206057 0.0165872 
-0.0154492 -0.00730118 -0.00918958 
-0.0044208 0.000561467 0.0261326 

0.0776232 0.0461283 2.33036 
-0.0685 0.0117089 0.277347 
-0.0877366 -0.00418464 0.114786 

-0.0191505 -0.00234672 -0.0202667 
-0.00133709 0.0194845 -0.0494075 
0.00490175 -0.000285028 0.00334106 

-0.0795777 0.240894 0.707823 
-0.123034 0.138896 0.478222 
-0.0155218 0.00382651 0.0616066 

-0.140273 0.295631 -0.75921 
-0.197021 0.280384 1.0898 
-0.0255672 -0.0245749 -0.00859759 

-0.00145951 0.0127696 0.0675412 
0.00135035 0.00227173 0.393757 
0.000573001 -0.000633659 -0.0259766 

0.00603493 0.00137785 -0.0794854 
-0.0221932 0.00664887 0.0272923 
0.000427324 0.00137082 -0.00633024 

0.0919516 0.154289 -1.47558 
-0.242428 0.031565 -0.991972 
0.00662135 0.0238056 -0.122653 

-0.00637012 0.00779622 0.0118141 
-0.0158089 -0.00155815 0.0475239 
0.000213104 -0.000371522 0.0218852 

-0.379672 0.121304 -0.749254 
-0.125818 0.283334 0.431735 
0.0283348 -0.021371 -0.061204 

-0.0627082 -0.189945 0.186142 
0.114025 -0.00821801 -0.0447914 
-0.0281865 -0.00711048 0.263478 

0.0195871 -0.0953935 0.122652 
0.103292 0.0165469 -0.0290801 
-0.00412934 0.00894254 -0.0414257 

-0.00830001 -0.0699873 0.480316 
0.0806826 0.0100592 0.518486 
0.00119292 -0.00175175 0.0554029 

-0.00237581 0.00444565 0.00741616 
-0.00249538 0.0039602 0.00963674 
0.000183028 -0.000384313 0.00118803 

0.695077 1.04743 0.378496 
-0.953404 0.580586 0.457095 
0.0170311 -0.0105811 0.0386008 

-0.0405925 -0.0654315 0.191899 
0.0355207 0.0538077 -0.138961 
-0.0284417 -0.0370923 0.11343 

0.129644 -0.0536496 0.158385 
-0.0759395 -0.149317 0.212815 
0.00114637 -0.0041158 -0.0620128 

-0.634391 -1.64491 0.928843 
-0.0249865 0.544838 0.24005 
0.00872737 0.0579413 0.17622 

0.00337328 -0.0128865 -0.132136 
-0.00140651 -0.0200455 0.22082 
-1.29756e-05 -0.000329987 0.107446 

-0.0491594 -0.0349773 0.00197482 
0.0424204 0.0125173 -0.00430709 
0.00961372 -0.0127151 0.0628471 

-0.0101589 -0.0050912 2.15891 
-0.00290815 0.0212879 -0.555886 
0.00104529 0.001785 0.103269 

-0.00968076 -0.0306405 -0.00804005 
0.00600481 0.00508097 -0.0390436 
0.048148 0.0237424 0.189842 

0.00643994 0.0454697 0.00644338 
-0.0144243 -0.0135561 0.0294932 
0.000900083 -0.00141677 0.0120348 

-0.0341352 -0.319442 -1.44199 
0.0980718 0.105849 7.12289 
-0.00689545 0.00863459 0.0919084 

-0.00813885 -0.011267 -0.00809165 
0.0176859 0.00306721 -0.0333406 
-0.00078158 -6.03834e-05 0.0130591 

-0.0517894 -0.0406364 0.569195 
0.073584 0.0588404 -0.613357 
-0.0245328 -0.0219384 0.795367 

-0.0098448 0.272284 -0.540751 
-0.000647114 -0.0101087 0.02439 
0.00714181 -0.0230334 -0.0575651 

-0.0223988 -0.000839034 0.0719565 
0.0151877 0.00132879 -0.127147 
0.0291943 0.0167241 0.121369 

-0.223265 -1.38066 -6.3895 
-0.414932 0.395905 -0.6366 
0.0259097 -0.0451813 0.333173 

-0.0286669 -0.0764396 -1.35216 
0.286209 0.0849755 -0.355411 
0.00520256 -0.0151891 0.0864035 

-0.00864591 -0.00345343 -0.273456 
0.00309374 0.023251 -0.208905 
-0.000116161 -0.000597246 0.0143267 

0.00179296 0.0704629 -0.430846 
0.0193509 -0.0292146 -0.805296 
-0.000812291 -0.00265169 0.0398283 

-0.0500957 -0.0324238 7.58659 
0.0209305 -0.0533417 18.7407 
0.000559236 -0.000332298 0.561685 

0.00105367 0.0165784 0.222726 
-0.00951008 -0.00398653 0.835647 
-0.00287179 0.000936247 0.143104 

-0.0249224 -0.125211 0.160076 
0.0856866 0.0182 -0.008636 
0.000214702 0.00113871 -0.00566016 

-0.0167138 0.015082 0.0746525 
0.016373 0.0129983 -0.0284784 
0.0130673 -0.0116022 -0.020549 

-0.17477 -0.0729996 -0.129443 
-0.00343438 0.0616828 -0.203505 
0.000685393 0.0371521 0.488792 

-0.0280368 -0.0887156 0.0862271 
0.0354379 0.0425722 -0.0794969 
-0.00704054 -0.00376949 0.010318 

-0.0134814 0.0172697 -0.052122 
-0.00571513 0.00553745 0.0350684 
-0.00643177 -0.00663475 -0.0215244 

-0.0150573 -0.0106209 0.0306972 
0.0243308 -0.0020454 -0.0325378 
-0.00125456 0.00266262 0.0438489 

-0.0959886 0.275854 -0.107586 
-0.186517 0.148182 -0.355101 
0.0185866 0.00807805 0.0251365 

-0.0170266 -0.0308325 -1.38196 
0.00297862 0.03237 0.906972 
0.00179438 0.00769465 -0.67168 

-0.017614 -0.0110218 0.17476 
-0.0144487 0.0136956 0.427139 
-0.000132861 8.43839e-05 0.0450958 

-0.00853594 -0.00817646 0.000244022 
0.0145346 0.00388983 -0.00768489 
0.00021529 0.00148468 0.00570623 

0.00975429 0.122882 1.13966 
-0.119236 0.0123997 -1.29916 
0.0135016 -0.0237467 0.063595 

0.0627502 0.00247802 0.120892 
-0.0723599 -0.0522291 0.0471564 
-0.0150868 -0.0186226 0.076483 

-0.010712 0.014837 -0.0582184 
-0.00848066 0.000723473 0.107693 
-0.000206424 0.000760898 0.00801816 

-0.00122621 0.00915746 0.00922203 
-0.000401154 -0.00377289 0.0162848 
-6.62989e-05 -0.000172605 0.00804429 

-0.0304051 -0.0874935 -0.00945126 
0.122829 0.0740061 -0.037928 
0.00306032 0.00361646 -0.00275626 

0.0154042 -0.0549352 0.218314 
0.202122 0.0180903 -0.184937 
-0.00427741 -0.00465093 0.0565729 

-0.00623567 -0.107594 0.0578693 
0.158851 0.0239475 -0.0295152 
0.00398592 -0.000561353 0.00153396 

-0.354702 -0.517437 0.340755 
0.0946721 0.426116 -0.766268 
0.0145185 0.00781994 0.101844 

-0.0480099 -0.0652859 0.0681003 
0.00315706 0.0153904 0.0195175 
0.00424561 -0.00264071 0.0798045 

-0.0151645 -0.0501208 -0.0117778 
0.0495838 0.007839 -0.0109271 
7.02845e-05 -0.000523863 0.0238523 

-0.00197124 0.104965 0.0379848 
-0.0951889 0.00723658 -0.116718 
0.00176856 -0.0546112 0.297588 

-0.0142604 -0.0171814 -0.523966 
-0.00204851 0.00658703 -0.376019 
0.00172869 -0.000603505 0.089839 

-0.00897281 -0.000590645 -0.154949 
0.00610724 -0.00944858 0.186579 
-0.00107451 0.000221717 0.0235384 

-0.0148752 -0.0237482 0.0461146 
0.0173686 0.011641 -0.0225659 
0.000253258 0.00192153 -0.000640056 

-0.0271685 -0.000357682 -0.00557743 
0.0517235 0.0233711 0.0493351 
-0.00324916 1.0878e-05 -0.0208717 

-0.0832947 -0.165476 0.45297 
0.188703 0.0502685 -0.406811 
-0.000810093 0.00346236 0.755495 

-0.00199961 0.0626686 -0.242979 
-0.0166539 -0.0207227 1.10536 
-0.0036256 -0.0037962 0.124843 

-0.342523 0.835651 5.43046 
0.0981319 0.34717 1.82812 
-0.00329855 0.0558328 0.28512 

0.0604217 -0.0773774 0.151838 
0.075931 0.0410259 0.0489673 
0.0925974 -0.0334814 -0.192089 

-0.163208 0.131012 -0.994816 
-0.198912 0.181263 -1.19596 
0.00302853 -0.0117978 -0.0311205 

-0.313343 -0.000468688 -1.13214 
-0.299274 0.312002 -0.98591 
-0.00760956 0.0105857 -0.0560107 

-0.0192733 -0.0354153 -0.0814278 
0.00899224 -0.00486682 -0.020554 
-5.1749e-05 -0.000296334 -0.00723849 

-0.02034 0.0119361 -0.0688258 
-0.00614274 0.0329728 0.0800339 
0.00241956 -0.000697742 -0.0096866 

-1.1922 0.267849 1.22878 
-0.48226 0.725348 -3.3466 
-0.0046916 0.0301294 -0.222064 

0.00366211 -0.0105898 -0.260813 
0.00304783 0.00619569 -0.163499 
-0.00074788 8.8071e-05 0.041682 

-0.0116252 -0.0370628 -0.00288929 
0.0261921 -0.00498483 -0.0264945 
-0.00406507 -0.00288858 0.048179 

-0.0149982 0.0215192 -0.0662155 
-0.0398612 0.00546653 -0.0512586 
0.000335185 0.000251166 0.00455642 

-0.0605851 0.0255779 0.738516 
0.033589 0.0512658 1.17294 
-0.00246143 -0.00275828 0.232957 

-0.0298576 0.0113623 -0.183217 
-0.0787395 0.0470783 -0.133375 
-0.00100222 -4.16463e-05 -0.0052599 

-0.0186168 -0.0277477 0.0228383 
0.0243124 0.031378 0.0852432 
-0.00177205 -0.000617892 0.0115187 

-0.0050812 0.00249921 -0.0621801 
-0.00172401 -0.00059765 -0.124011 
-0.000351943 -0.000347903 0.0080072 

-0.008471 0.00899279 0.0433973 
-0.00713463 0.00310079 -0.021996 
0.00022402 6.43297e-05 -0.00129853 

0.0519697 0.00130252 -0.150142 
0.0224222 -0.0312446 0.0212306 
-0.0303253 -2.58824e-06 -0.227038 

-0.171371 0.0473594 0.107996 
-0.0424402 0.172431 -0.567143 
-0.0225238 0.0172234 0.290524 

0.0150917 0.0148423 0.151562 
0.00300172 -0.0166604 -0.259817 
-0.000467803 0.00437032 0.0433135 

0.024378 -0.0471306 0.618106 
-0.0784877 -0.00690321 -0.388422 
-0.00132039 -0.000817137 0.00597023 

-0.00170307 0.0252868 -0.0251191 
-0.00425711 0.00261904 0.00097916 
0.00102601 -0.000258998 0.00529186 

0.00401065 -0.0111451 0.145611 
-0.00526023 0.00587196 0.22976 
-0.00221569 -0.00870084 1.727 

0.000446164 0.00603121 0.0283867 
0.0305116 -0.0306283 0.240413 
0.000452337 -0.00168838 0.0140316 

-0.0247886 -0.0101295 -0.54433 
0.00165487 0.0153928 -0.182636 
0.000161752 -0.00431327 0.00718008 

-0.0294364 0.014174 -2.49077 
-0.00389739 0.0478217 -4.99505 
0.00954566 -0.00671368 -0.210908 

-0.0140497 0.0215121 0.45589 
-0.0240247 -0.00344495 0.419253 
0.000215929 0.000534701 0.0205508 

0.00795021 0.128715 -0.227591 
-0.192847 0.0110855 -0.413202 
-0.000874459 0.00737465 -0.0904458 

-0.044681 0.105062 -0.285164 
-0.125388 0.0108957 0.293067 
-0.0133923 -0.00885479 0.0584967 

-0.00964376 0.0054937 1.93323 
-0.0264067 0.00812457 -0.385343 
7.5491e-05 -1.77294e-05 0.0710492 

0.0598623 1.32629 -0.0927837 
-0.256704 0.515022 -2.19467 
-0.0275382 0.024487 1.39169 

-0.201424 0.255846 -0.713841 
-0.0914313 0.188478 0.29382 
-0.00137995 0.00680736 0.157444 

-0.162075 0.159068 -12.7845 
0.0418519 0.100655 -13.3445 
0.00293124 0.00258075 0.317382 

-0.122841 -0.299029 -5.12941 
0.0123233 0.0154526 0.578272 
-0.00536056 0.0307907 0.846412 

-0.220466 0.117116 -2.28643 
-0.178825 0.185271 -0.315131 
0.0038553 0.0276399 0.124504 

-0.040099 -0.271086 46.4615 
0.0126292 0.0333597 11.8236 
0.000293481 -0.000780211 0.440389 

0.00696435 -0.0366814 0.135345 
0.0188642 -0.00626428 -0.0655067 
0.000294203 0.00102204 0.00115661 

0.00666562 -0.00481752 0.00256218 
-0.00567722 -0.00854359 -0.0101078 
0.00186676 -7.83452e-06 0.00634399 

-0.0104391 0.0215248 0.0181273 
-0.0151328 0.035682 0.127699 
0.0189166 -0.00225544 0.0375923 

0.00153368 0.0101886 -0.043384 
0.0266701 0.00436345 0.0308641 
-0.000921614 0.00173244 -0.0190112 

-0.0110528 0.00789261 -0.0577839 
-0.0109856 -0.00163628 -0.151322 
-0.000399309 -0.000430583 -0.0100556 

-0.0618933 -0.0114545 0.189357 
0.0116793 0.0556529 -0.46498 
0.0289172 -0.0144164 0.0523131 

-0.000268755 0.00986435 0.182295 
0.0106407 0.00450092 0.0611145 
-0.00166232 -0.000626441 -0.0105635 

-0.0120622 -0.000436453 0.0513359 
-0.00324033 0.00700457 0.0931305 
-0.00825755 0.00218906 -0.0151889 

-0.0288586 -0.0640833 -0.212161 
-0.0199554 0.0208808 -0.0481747 
0.00242073 -0.00202955 -0.0312259 

-0.0771228 -0.0271772 -0.174935 
-0.0850086 0.047475 0.178486 
0.00840838 0.0144437 -0.130877 

-0.110891 -0.246672 -0.113836 
0.290802 0.100777 0.144632 
-0.0886368 0.0204795 0.425857 

0.00893447 -0.0101492 0.343667 
0.0147212 0.00864895 0.0258373 
0.0012109 0.00161651 0.00812018 

0.050455 0.0739402 0.297184 
-0.117549 -0.000118094 -0.497682 
-0.017222 -0.0145958 -0.497543 

-0.0230361 0.00056513 -0.0157832 
-0.00598489 0.0122836 0.0111283 
-0.00543091 -0.0407309 0.123188 

-0.00516548 0.0471319 0.0765165 
-0.0538831 0.000886697 0.137417 
-0.00100918 -0.000332642 0.00957424 

-0.0410983 -0.104953 0.0404197 
0.0180943 0.0279679 -0.0593855 
0.00176286 0.0136768 0.0129392 

-0.00723784 -0.0604832 -0.0165724 
0.0573466 0.0398521 -0.0694939 
0.0035328 -0.00119264 0.0220518 

-0.0265645 -0.00646957 0.00308954 
0.00684388 0.00133889 -0.00695795 
-0.00044374 -0.00351777 0.0297067 

-0.18641 -0.0768931 0.557056 
-0.000740287 0.114858 -0.162195 
-0.0533663 -0.0273476 -0.0264937 

-0.00884307 0.0102015 0.102452 
0.000711225 0.00619807 -0.0901726 
-5.4756e-05 0.000182727 0.0192016 

-0.0186741 -0.00660694 0.0176528 
0.00269163 0.0100766 -0.00935269 
-0.000684856 -0.000682338 0.00287957 

-0.0198964 -0.0081488 -0.00253943 
0.00775119 0.00101333 0.0135556 
-0.000146899 -0.000639975 0.0330897 

0.0185152 -0.0408334 0.389957 
0.100541 -0.013276 -0.120233 
0.00059304 0.00276523 0.0247519 

0.00477562 -0.193861 0.0351544 
0.239397 0.0692378 -0.16723 
0.0284436 0.00934518 0.18087 

0.00141972 0.000632479 -0.010355 
-0.00610765 -0.00626363 -0.0309113 
-0.000360736 0.000254791 0.00798628 

-0.144855 -0.186448 -0.0785853 
0.583082 0.328254 -0.222182 
0.0127839 0.00510902 -0.000140252 

-0.00677184 -0.173795 0.122987 
0.199899 0.0369864 -0.326638 
-0.00191378 2.30475e-05 0.0110525 

-0.0349428 0.0574741 0.0913743 
-0.0182563 0.0217471 -0.0294871 
0.00226194 -0.000611176 0.0345937 

-0.0211725 0.00313713 -0.214354 
-0.0309885 -0.0664458 0.297179 
0.00562124 -0.00242013 0.0758956 

-0.230623 -0.112515 -2.05374 
0.0804838 0.285513 -0.0968025 
-0.00703696 0.0064292 0.075534 

-0.262195 0.117355 1.18122 
-0.101802 0.207872 0.00426929 
0.000851929 -0.0115004 0.05032 

-0.0162208 0.0635999 -0.0769111 
-0.0838233 0.00850132 -0.000401958 
0.00179446 -0.00490238 0.0650217 

-0.0111581 0.0604763 -0.236269 
-0.0924207 0.0102074 0.357925 
0.00841615 -0.0173126 0.0229332 

-0.0639349 -0.124493 -0.0331908 
0.0831489 -0.00295854 0.00893725 
0.000160769 -0.00338524 0.0476665 

-0.019116 -0.0250825 3.78614e-06 
0.0242819 0.0111819 0.00396492 
0.000251945 0.000380766 0.0179157 

-0.100148 -0.0117737 -3.04257 
0.182816 0.119282 -3.05145 
-0.0120889 -0.0172897 -0.0265816 

-0.423423 -0.0349363 -4.10756 
0.162165 0.201575 -2.08235 
0.00374124 0.00156815 0.038358 
