# vtk DataFile Version 3.0
Output file generated by Yade's KinematicLocalisationAnalyser
ASCII
DATASET UNSTRUCTURED_GRID

POINTS 13483 float
535.85 41.217 -0.43895
642.262 80.2583 -0.543893
117.597 5.9006 -0.484299
676.114 7.79994 0.447288
463.064 12.3593 0.55773
307.139 40.1285 0.504513
153.202 6.98001 0.47797
509.252 11.9073 -0.159515
460.128 35.6307 0.140358
619.436 18.2963 -0.418009
205.528 8.84028 -0.109952
251.09 6.21154 -0.255877
563.015 54.502 0.1366
552.25 32.5113 -0.0889646
133.919 18.9539 -0.456308
215.223 37.7832 0.423014
212.737 13.1378 -0.273205
281.591 10.5713 0.445955
334.032 34.3104 0.434371
478.008 10.7932 0.448217
398.471 46.1786 -0.0987582
521.771 50.0147 0.300373
668.376 61.1058 -0.487547
592.592 56.9469 0.459551
434.851 21.2568 0.319433
235.175 46.0489 -0.139912
457.422 45.7869 -0.486276
521.716 23.6986 -0.216516
44.1378 16.4409 0.540555
610.567 41.5405 -0.338873
451.758 4.53466 0.480931
14.9996 24.6202 0.327094
656.574 78.7143 0.248944
461.814 4.17079 0.566734
76.7217 46.2143 0.103617
477.637 42.4766 0.328441
483.24 25.7659 -0.436203
334.969 24.1695 0.206293
487.786 35.6347 -0.371355
343.602 38.8086 -0.406707
236.215 14.7537 -0.307116
410.921 51.732 0.0799857
581.623 5.49404 0.226118
188.23 6.32038 0.361101
54.2967 7.14994 -0.102961
67.4582 9.17081 0.279092
594.824 8.37922 -0.522855
22.5912 11.8812 0.264768
519.164 64.7916 0.377554
582.762 34.0223 -0.334235
167.568 33.6048 0.2941
636.826 68.3756 0.118872
34.241 28.3345 -0.114886
484.916 2.59371 0.580483
138.993 7.16655 -0.50796
531.054 41.5534 0.473016
463.918 40.3675 -0.130997
171.597 0.973658 0.268944
32.1844 2.42625 0.294527
338.377 18.8248 0.30018
530.112 79.2162 0.136778
439.45 43.1147 -0.179924
383.963 1.04467 0.211307
603.579 9.56545 -0.525165
26.8855 43.5313 -0.238655
251.34 32.4065 0.286089
620.269 11.7394 -0.215553
581.612 75.9374 0.359275
401.271 9.26289 -0.659821
511.693 5.78278 -0.46631
633.893 50.0245 0.441081
128.169 8.04804 0.246197
461.679 40.5185 -0.124599
449.403 21.7881 -0.104985
287.747 17.3068 -0.369759
19.7955 13.9746 -0.267545
656.901 70.4756 -0.315133
325.705 40.5592 -0.328761
583.253 32.3081 0.319499
593.275 14.9773 -0.222398
667.709 34.1822 -0.230194
440.217 47.9058 -0.177371
91.0439 42.0816 -0.288442
586.592 50.6149 0.229621
559.224 65.7488 0.0913984
672.793 66.0816 0.115815
665.94 0.775986 -0.77395
286.156 29.9357 0.429084
554.433 7.97375 -0.1348
23.602 5.28561 0.564435
131.321 40.819 0.162951
474.294 21.2193 0.216175
651.321 54.0327 -0.487563
192.49 30.2191 -0.219851
44.3263 35.0426 -0.277498
461.362 2.6116 -0.130188
231.338 8.79766 -0.428437
616.708 73.7898 0.236255
644.142 41.3823 0.233009
351.029 24.5157 -0.255364
159.77 27.886 -0.474125
502.36 70.7364 -0.434862
367.203 17.2894 -0.520297
398.051 33.0816 -0.117529
365.376 5.88067 0.369166
494.973 14.2672 0.155865
677.184 19.4406 0.251531
79.3327 41.4176 -0.398879
326.452 5.71275 -0.162983
505.212 14.4778 0.489839
350.844 52.0074 -0.0673665
24.429 24.7414 -0.481589
29.8805 5.71027 0.304602
508.142 48.4679 0.441141
466.216 37.0085 -0.157719
25.702 37.0128 0.422162
92.6528 31.8185 0.243594
316.641 17.4444 0.310391
538.101 21.6629 0.110406
439.69 59.604 -0.336514
633.183 12.015 0.429813
626.8 7.45142 0.184302
376.951 38.6129 -0.102337
556.143 47.6236 0.111809
234.255 17.8624 -0.469911
322.43 4.16216 0.45848
101.284 34.0789 0.30107
114.618 25.8742 -0.265996
497.161 73.1677 -0.071803
301.072 19.4626 0.485239
610.468 48.1198 -0.129207
586.294 76.8811 0.103151
452.298 32.3036 -0.455171
661.57 14.4936 0.383931
409.685 29.6841 -0.238762
271.172 26.7518 -0.310285
582.567 60.3532 -0.283412
275.765 30.4938 0.376639
519.723 14.9592 -0.20854
327.038 37.322 0.186921
469.319 18.2486 0.603095
358.476 36.6456 -0.0900534
414.297 17.5663 0.1088
313.728 45.7893 0.437364
188.511 30.5192 -0.122761
647.132 78.4642 0.158982
674.627 21.7655 -0.323722
6.12613 12.7676 -0.41965
413.537 26.8718 -0.398766
37.9739 22.7811 -0.081822
367.677 35.3305 -0.476552
384.701 26.4511 -0.300994
74.1826 12.025 -0.520139
51.201 35.5828 -0.522879
223.164 13.8658 0.448999
529.785 73.3513 0.390678
518.715 25.8725 -0.478093
74.5342 21.3753 0.479416
595.58 59.1038 0.420592
650.293 2.20955 -0.435339
575.962 69.1928 0.490003
601.469 1.87982 -0.54069
499.652 41.3095 -0.419537
520.914 48.6658 -0.460001
475.519 27.8719 -0.363049
676.165 5.70243 0.393401
221.499 27.1946 -0.124297
127.229 37.468 -0.206998
244.109 6.87189 -0.404588
93.6746 4.46712 0.29988
63.7225 10.196 0.226333
272.972 38.4995 -0.315736
15.9198 26.1048 -0.350832
501.499 28.4486 0.480359
523.601 65.9438 0.302711
443.008 29.6365 -0.404871
669.857 80.2713 -0.350744
394.842 8.79686 -0.114217
414.556 45.7743 -0.380603
492.222 3.42749 -0.313215
21.5416 24.3359 -0.398206
520.713 6.41395 0.547553
500.097 8.80836 -0.274345
203.88 11.4715 0.513498
410.931 18.2161 -0.207482
306.897 6.34809 0.386289
377.692 21.4249 -0.356446
622.775 62.8948 -0.0983186
190.948 26.408 -0.404533
667.72 11.0822 -0.396885
625.154 60.066 -0.327678
373.4 11.0048 0.21425
618.4 2.3317 0.480574
539.839 39.0486 -0.463356
634 25.0187 0.369335
418.062 55.2417 0.279302
463.419 19.397 0.391477
432.4 57.1888 0.222565
430.496 12.3302 0.160845
579.666 69.4987 0.272971
578.76 65.3437 0.305844
190.417 39.9566 -0.332202
665.487 33.8646 -0.125366
524.087 46.6108 0.340791
10.9779 18.2364 -0.183409
395.726 26.9903 0.360231
185.647 24.042 0.394573
92.7039 43.0939 -0.220591
648.734 45.9404 0.469934
573.077 74.0621 -0.225757
314.696 28.3607 0.356843
488.865 10.5439 0.308486
81.7824 46.9429 0.176741
245.302 27.5343 -0.470963
503.566 33.5725 0.432631
458.074 26.2554 0.429677
260.418 0.911758 -0.359527
510.244 65.7967 -0.385025
490.807 69.1187 0.432295
454.764 55.2761 0.37666
468.521 4.79764 -0.616108
608.116 21.4517 -0.361589
177.875 12.8674 -0.187242
466.576 53.1435 0.456886
511.153 52.8101 -0.134834
72.8315 0.953859 -0.317042
249.384 4.72478 0.187699
673.478 25.0801 0.224817
667.922 36.1262 -0.404494
679.469 28.4205 -0.44739
299.668 8.6727 -0.26024
639.198 29.6637 -0.458645
395.69 53.2539 0.308944
432.439 2.29958 0.573755
564.266 62.2718 -0.442324
26.2173 30.6778 0.321396
327.941 41.9017 -0.56402
250.229 2.83499 0.377719
660.42 76.9286 -0.181855
603.3 58.2323 -0.247083
283.993 11.8729 0.265545
575.886 53.627 -0.0782879
508.567 2.61756 0.283431
497.487 8.21029 0.541394
96.5143 18.7365 -0.510385
299.393 1.10699 -0.234356
336.261 2.31435 -0.344655
13.5401 7.64567 -0.47115
4.59321 33.4496 -0.247642
159.902 19.1598 -0.337822
68.5732 42.7802 -0.220897
67.0594 29.922 -0.307914
411.56 14.7956 -0.411511
360.803 42.0914 0.465114
633.249 70.6641 -0.121811
19.1268 4.05181 -0.262212
70.5026 7.12926 -0.141378
538.856 65.9969 -0.156216
290.9 1.1329 0.400619
356.364 16.6658 -0.0980066
233.75 4.72216 -0.34319
572.847 41.3064 -0.166864
433.746 11.5194 0.393123
642.808 27.5007 -0.487594
550.784 52.9306 -0.286923
583.746 25.99 -0.0801686
405.374 33.5787 0.467239
102.665 47.5777 -0.307487
502.86 74.6866 0.0658415
631.159 21.3644 0.234166
235.152 31.6966 -0.229324
31.2488 16.9414 -0.17013
330.577 15.4527 0.498662
107.593 42.4075 -0.494288
265.823 44.8683 -0.206306
415.017 2.20062 -0.253362
652.822 64.1228 0.395821
596.417 0.7398 -0.533914
326.999 4.11887 0.536158
297.882 28.6983 0.141182
435.352 55.0886 0.157307
81.4124 8.15429 0.502245
195.507 46.9333 -0.39295
645.152 50.8252 -0.381161
463.445 57.8948 0.0684291
198.456 43.1875 -0.282624
159.591 44.7498 0.395249
676.901 59.3839 -0.449908
675.809 20.3606 -0.540299
547.42 2.99535 -0.641914
189.432 25.2621 -0.0976181
501.538 45.9717 -0.107253
500.318 39.5322 0.303131
399.376 5.8295 -0.142691
458.3 0.961842 0.375958
632.222 73.2596 -0.562687
85.7518 33.2505 0.22114
574.334 30.4689 0.461526
271.199 16.5698 -0.358992
9.11444 2.35185 0.339944
125.62 39.121 -0.183774
67.2722 24.4377 0.504863
598.434 43.9409 -0.325737
660.895 87.3998 0.174446
184.696 29.0326 -0.171256
672.04 26.3086 -0.320078
45.5851 37.4474 0.247888
91.4476 30.218 0.147741
561.876 31.2919 0.368252
404.572 17.6707 -0.542679
481.831 26.9702 0.127945
235.745 29.7858 0.185431
559.226 7.59935 -0.498649
678.589 20.9914 0.456607
29.3523 31.7282 0.260933
267.984 7.57421 0.189384
220.821 15.6863 -0.233093
1.09044 39.83 0.146931
224.215 14.7849 -0.401182
210.374 11.121 0.111586
212.49 28.0784 -0.326163
132.522 30.1622 0.138737
498.852 21.4443 0.351925
164.794 14.6044 -0.326783
654.108 76.4148 -0.22893
173.531 3.99648 -0.495412
47.3572 40.0749 0.346758
609.651 83.8464 -0.426315
280.477 34.136 0.398069
584.087 35.1267 -0.425772
657.334 61.1825 -0.459742
297.873 9.44363 0.155098
628.668 46.7948 0.348278
324.605 2.6376 -0.405974
404.221 25.4896 -0.371723
584.663 20.1451 0.481687
105.541 11.7513 0.517902
458.54 4.0005 -0.578154
644.638 22.4489 0.229823
88.2364 7.7158 -0.274078
279.039 15.6753 0.193665
412.793 12.2855 -0.212917
676.379 2.32743 0.656429
388.715 2.02216 -0.550815
175.307 39.3142 0.32421
632.835 17.5615 -0.366329
128.895 38.7466 -0.221972
261.782 33.3631 -0.380302
391.563 22.2953 0.20286
520.728 16.5972 -0.411299
377.655 9.31311 -0.506781
440.256 35.669 -0.443613
643.152 80.9651 0.391969
47.6997 11.5069 0.143104
297.512 41.9551 -0.323376
371.669 28.4648 -0.401581
398.522 21.3547 0.249553
482.739 59.1242 0.384204
626.032 71.3067 0.204031
583.813 66.1977 0.349903
223.499 36.2701 0.390635
13.7694 34.5236 -0.154085
576.754 65.2995 -0.131717
477.911 52.2846 -0.280545
228.238 40.5721 0.097416
586.489 44.1513 -0.114247
150.481 9.53806 -0.193433
359.938 23.6332 0.273516
434.548 57.0961 -0.130232
402.489 20.2337 0.18786
639.143 82.2974 -0.290371
415.592 4.17647 0.65125
50.1444 25.7451 0.346009
446.86 49.2917 -0.333352
418.771 48.5737 0.368935
658.236 71.8475 0.217877
625.472 46.4843 0.229612
494.022 25.083 0.185466
648.141 71.566 0.413891
290.6 2.50004 -0.506309
372.023 31.5237 -0.447409
28.8561 38.9084 0.311585
629.829 48.342 -0.157121
546.966 24.9676 0.505408
440.879 0.732916 0.582515
125.468 5.02343 -0.388142
414.729 54.4432 0.103111
11.5109 0.902441 -0.317461
674.08 9.35305 0.228593
365.381 45.0566 -0.415112
[...]
POINT_DATA 13483
TENSORS Strain_matrix float
-0.00161471 0.0124369 -0.264086 
-0.0294457 0.0263091 1.0027 
0.000217773 -0.00755867 -0.031638 

-0.0124455 0.321845 -52.7395 
0.0254734 0.1439 -24.8245 
0.000816975 -0.00812471 1.29956 

-0.00331531 0.00351953 -0.0868376 
-0.00412845 -0.0103882 0.106375 
-0.00586528 -0.00677346 0.0808463 

-0.465141 -0.801226 -0.72219 
0.749552 0.700409 0.267516 
-4.7643e-05 -0.00199206 -0.109191 

-0.132957 -0.273931 -0.371588 
0.288823 0.0652563 -0.0482622 
0.0034393 0.00721979 0.1596 

-0.063342 0.0395678 -0.583567 
-0.0468191 0.0448837 -1.61399 
-0.00533948 0.000915226 0.54744 

-0.0252281 -0.0062193 -0.443784 
-0.000219376 0.00539689 0.393178 
0.00247213 -0.00114238 0.14066 

-0.105433 0.10165 0.229996 
-0.034063 0.116169 -0.303815 
0.0603863 0.0252199 0.16054 

-0.524169 -0.049869 0.20056 
-0.0363296 0.25028 0.364568 
-0.0283361 -0.0419159 0.508962 

-0.150433 -0.00945203 0.092109 
0.0690278 0.0835612 -1.27391 
0.0151867 0.0167406 -0.110607 

-0.00190566 -0.0348454 0.0247216 
0.000646027 0.00282792 -0.0592337 
-0.00461735 0.00210855 -0.015148 

-0.0112397 -0.00661083 0.00816096 
-0.00381407 -0.00256063 -0.0105158 
0.000457879 0.0016725 0.0142173 

-0.301826 -0.248468 0.3494 
-0.102302 0.201277 0.753874 
0.0221555 -0.0295563 0.05505 

-0.156282 -0.0713706 -0.45869 
0.0147533 0.167925 0.302472 
-0.012644 0.0589985 0.181881 

-0.145593 -0.15519 -0.308872 
0.158221 0.107367 0.202488 
0.00756553 -0.00354481 0.175893 

-0.022154 0.094057 -0.0408708 
-0.0658132 0.0258621 0.0617376 
0.0110421 -0.00215113 0.105266 

-0.00201134 -0.0084274 0.0376491 
0.000818255 -0.00923567 -0.0109167 
0.00330883 -0.00423095 0.00761335 

-0.0598166 0.0250491 0.00115316 
0.0671846 -0.0141707 0.0338059 
-0.0735651 -0.0760534 0.247329 

0.0704642 0.0567504 -0.125602 
0.0194045 -0.00506563 0.00213659 
-0.0574348 0.0862134 -0.132102 

-0.171315 0.0626143 0.807602 
0.050388 0.108025 0.0885684 
0.00239929 0.0059377 0.0451148 

0.00495367 -0.0614195 0.984416 
0.360221 0.0744356 0.137827 
-0.0172275 -0.0682097 0.308344 

0.080525 -0.150368 0.626637 
0.137953 -0.101141 0.518648 
-0.00196344 0.000426443 0.0594192 

0.0280494 0.0119388 0.208016 
0.00044846 -0.00938331 0.109167 
0.000309072 0.000887846 0.0084576 

-0.077925 -0.00959419 0.188779 
-0.00811323 -0.010502 -0.0264746 
-0.000917605 -0.00519885 0.0989548 

-0.00721712 -0.0705251 -0.183902 
0.0806423 -0.00559893 0.0696666 
-0.00344432 -3.14824e-05 0.0481603 

-0.0111923 -0.0229485 -0.00147887 
0.00647059 0.00167471 0.0129194 
-0.00556699 4.15089e-05 0.0157356 

-0.167327 -0.0835076 4.24988 
-0.00928116 0.151161 13.0163 
0.00818524 -0.000567634 -0.0137748 

0.00632341 -0.0621962 -0.0419267 
-0.0487124 -0.0500512 -0.0613851 
-0.00527278 0.00425589 0.119124 

-0.00304519 0.0106863 -0.705748 
-0.00465347 -0.0157266 -1.5415 
0.000152722 -0.000514179 0.387212 

-0.203765 -0.623508 -1.32333 
0.123489 0.210533 -0.784247 
-0.00427566 -0.0373825 -0.122209 

0.0143013 -0.0604658 0.0220714 
0.0201471 -0.0354141 0.0879274 
-0.00219119 8.31536e-05 -0.0247265 

-0.057085 0.0857018 -0.0511423 
-0.0341055 0.0462853 0.123594 
-0.000745902 0.00135989 -0.00230949 

0.00923817 -0.00880395 -0.0154399 
0.0337317 0.000824092 -0.0344273 
-6.61825e-05 -0.00073532 -0.0179174 

-0.444409 0.0376765 -3.09545 
0.0766584 0.474765 -1.55412 
-0.0270099 -0.0248045 0.217696 

0.00349528 -0.126076 -0.00343838 
0.145234 -0.00606227 -0.0619753 
0.000586698 -0.00133473 0.00908596 

-0.282423 0.169237 -0.607389 
0.036156 0.0887639 -1.16397 
0.00112903 0.00381299 0.074874 

-0.499383 0.149773 -0.923067 
-0.642104 0.400738 -0.856403 
0.000293352 0.00646169 -0.121799 

0.0501747 0.18648 0.0385976 
-0.124129 -0.094243 0.156411 
0.0148891 -0.00713307 0.0526244 

-0.403325 0.213795 -0.224372 
-0.382761 0.14169 0.12616 
0.00981803 0.0412464 0.00443346 

-0.119157 0.144618 -1.18636 
0.18534 0.0363503 0.439868 
-0.00898046 0.0153416 -0.239454 

-0.0804609 -0.0631157 -0.0803344 
0.0371938 0.102713 -0.326825 
0.00218712 -0.00190359 0.0603952 

0.280234 0.53471 0.157995 
-0.809835 0.182506 0.581144 
-0.00565546 -0.0121174 -0.101092 

-0.00137198 -0.0115673 -0.00498749 
-0.00367811 -0.000472408 0.0115418 
0.000923993 -3.4691e-05 -0.00396853 

-0.0535552 0.0621171 0.2405 
-0.0879988 0.021391 1.00897 
0.00199798 0.00401189 0.271568 

-0.000643402 0.0278167 -0.0421957 
-0.0306305 -0.000643369 -0.00715918 
0.00200675 0.00103869 0.00208696 

0.0114833 0.00505492 -0.0101427 
-0.0231559 -0.00340567 -0.166819 
0.00284174 0.00324693 -0.00648559 

0.00562052 -0.016844 -0.00102212 
-0.000924045 -0.0127699 0.00615553 
0.00156967 -0.00220337 -0.00066262 

-0.0101246 -0.00473853 0.0335896 
-0.030068 0.0203556 -0.0252202 
0.00489959 -0.00140246 -0.00320283 

0.0846905 -0.491885 -0.0976151 
0.616558 0.134662 0.182182 
-0.0343049 -0.0750183 0.689741 

-0.054136 -0.660339 0.36047 
0.0849839 0.136845 0.0877657 
0.000798907 -0.00806836 0.0148494 

0.0625494 0.0605495 0.183823 
-0.176737 -0.0659454 -0.172333 
-0.00298451 5.02209e-05 0.00600006 

-0.000419398 -6.20963e-05 -0.0814782 
-0.00139059 0.0185121 0.0374666 
-0.0334027 0.00199739 0.0390057 

0.00368367 0.00254506 0.0223036 
0.00128882 -0.00872135 -0.0202032 
-0.000292893 -0.000225992 0.00279398 

-0.105324 0.00784447 0.104133 
0.060448 -0.0636365 -0.0524627 
0.00256815 -0.0133506 0.0970275 

-0.0120678 -0.000156618 -0.0866644 
0.0145359 -0.0148482 0.0165566 
0.00242529 -0.000351463 0.0311661 

0.000342885 0.00447369 0.155054 
0.048024 -0.0577086 -0.216581 
-0.0193491 -0.0292001 0.629677 

-0.279182 0.166023 0.23872 
-0.13778 0.266541 -0.496779 
0.0189127 -0.00546874 0.111682 

-0.000528567 0.0290003 -0.0575071 
0.00422745 0.00875391 0.0546779 
2.0581e-05 -0.0165219 0.0305118 

-0.00174939 -0.0107402 0.00819978 
0.00253283 0.0073493 -0.00364957 
0.00113976 0.000200301 -0.00588475 

0.0146206 0.202142 0.0327245 
-0.168875 0.00230362 0.0911421 
-0.00177621 0.000141299 0.0629235 

-0.16253 1.0581 -8.60145 
-0.0876779 0.601007 -3.73864 
-0.00102094 0.00749014 0.0133489 

-0.248826 -0.0758578 0.407884 
0.270678 0.233838 0.327046 
0.0024036 -0.00202762 -0.11357 

-0.0336254 -0.0528408 0.0477709 
-0.00343746 0.00279722 -0.02138 
-0.00114855 0.00110809 0.0534861 

-0.00738837 -0.0428359 -0.133054 
0.0443496 0.0116289 0.0618319 
0.00104643 0.000343115 -0.0268577 

-0.00834077 0.0100435 -0.00428418 
-0.00314059 -0.00305041 -0.035606 
0.00164959 0.00158946 -0.00684764 

0.0221791 -0.0683624 0.0611869 
-0.0449096 -0.0638456 0.041111 
-0.000880349 -0.00114225 -0.00698327 

-0.200836 0.166119 0.448717 
0.0754273 0.191277 -0.156147 
-0.00526861 0.0158681 -0.0535728 

0.00198318 -0.00294563 0.0166537 
0.0193546 -0.00499768 0.0359963 
-0.00298422 -0.0371876 0.0384057 

-0.0843827 0.0132068 -5.54639 
-0.0112045 0.0830991 -11.5121 
0.00235334 -0.00444802 1.21907 

-0.0684769 -0.228935 0.0136155 
-0.0947318 -0.0212071 0.0224177 
-0.0183512 0.0243514 0.0602421 

0.0235565 0.0139938 -0.365722 
-0.0126668 -0.0598537 0.461579 
-0.000532583 0.0137972 0.0743389 

-0.0108126 0.0272219 -0.00762648 
-0.0426794 0.00531249 -0.00209888 
-0.00841443 -0.0120946 0.00999273 

-0.443523 -0.049548 0.461735 
-0.0173922 0.378534 0.0760701 
-0.0244069 0.00967524 0.0923904 

-0.541758 -0.0788623 0.252209 
0.0643729 0.37475 0.288891 
-0.0964725 0.0137549 0.681354 

-0.0164631 0.00818814 0.226822 
0.0193303 0.0193988 -1.06522 
-0.00334494 0.00255046 0.0639442 

0.00303261 -0.0197631 0.0276257 
0.0105465 0.00895618 -0.0217791 
-0.00413231 -0.00118734 -0.00563035 

0.018856 -0.00289257 0.1518 
0.0195277 -0.0220194 -0.096566 
-0.000887687 0.000353009 -0.00170852 

0.00166198 0.0775605 0.010267 
-0.0908269 0.0123631 -0.0281966 
0.000910181 -0.00109981 0.000424525 

-0.133945 -0.543567 -0.295236 
0.0646833 0.1813 0.46375 
0.00742547 0.000628297 -0.0268414 

-0.00893073 -0.0369859 0.0312725 
-0.0149211 -0.00834633 -0.0202271 
0.000743824 0.00306571 0.045493 

0.0172173 -0.030663 -0.0107484 
0.00711582 -0.000434736 0.0699573 
0.00164344 -0.0050542 -0.0172835 

-0.0457638 -0.431383 1.17759 
0.378139 0.254774 1.17245 
0.0132832 0.000501886 0.0830098 

-0.0559245 -0.0185335 0.151791 
0.00202367 0.0507471 0.486619 
-0.0176341 0.0259456 0.327653 

-0.176806 0.0624459 0.567863 
-0.0278643 0.079418 0.303756 
0.0265797 -0.105867 0.401922 

0.00269736 0.0291132 -0.00133904 
0.000383382 -0.00558003 -0.000696611 
-0.000122452 0.000330402 0.00847106 

0.014605 0.0002479 0.0291282 
-0.0455386 0.0180728 -0.00892714 
-0.000551065 6.31364e-05 -0.0555057 

-0.0686589 0.0550283 -118.248 
0.0196965 0.0761309 9.77341 
-0.00131358 0.00361268 3.79392 

-0.146812 0.429495 -0.0605289 
-0.0316326 0.223776 0.0178618 
-0.0395621 -0.024543 0.0571034 

-0.0229952 -0.0194306 -0.0129606 
-0.0134071 0.0209313 0.043068 
-0.00347198 0.00142118 -0.0149281 

-0.00982368 -0.0018331 -0.50409 
-0.00118602 0.00177561 -0.0970575 
0.000644465 0.00289131 0.211135 

-0.00512505 -0.0754297 -0.0128985 
0.0760467 0.0026483 -0.0279134 
-0.000758854 -0.00372822 0.0296724 

-0.119055 -0.149239 0.000920068 
-0.153226 -0.0588004 -0.499469 
0.0433074 0.017741 0.124557 

-0.0077493 -0.0594874 0.562373 
0.0581324 0.00381981 1.09586 
-0.00235682 -5.05514e-05 0.073994 

0.00116291 -0.0107105 0.0109342 
0.0140704 0.00354216 0.0017745 
-0.000339082 -0.000187329 -0.00227783 

-0.00608066 0.0211799 0.300525 
-0.0189905 0.000768923 -0.16207 
-0.00117445 0.00173052 0.0323097 

-0.51975 -0.310257 -0.554944 
0.148303 0.507636 0.0194848 
0.0193558 -0.0248106 -0.00626389 

-0.0105643 0.0139273 -0.16367 
-0.0153303 0.00836936 -0.769341 
0.000827385 -0.00128256 0.124845 

-0.00310854 -0.0548651 -0.00930445 
0.0535062 -0.0109127 -0.0180125 
-0.000123512 0.000348754 0.0325182 

-0.224312 -0.51236 2.12114 
-0.138433 0.0596055 0.317781 
0.012907 0.039609 -0.0156852 

-0.0410664 2.53901e-05 0.657644 
0.109875 0.0560795 0.0308881 
-0.00363823 -0.00600509 -0.0423458 

-0.0330432 0.000974627 -0.307214 
0.0252717 0.0312491 -0.786013 
0.00222014 0.00179567 0.101526 

0.0340288 0.136656 10.5453 
-0.567477 0.148892 5.82594 
0.0130337 -0.0269325 0.877432 

-0.104204 0.0222416 0.878211 
-0.00466051 0.0608628 3.60237 
0.0241246 0.00480461 -0.0575814 

-0.296103 0.136358 -0.20761 
0.135917 0.242957 -0.30673 
-0.0029137 0.00126406 0.0402919 

-0.0666541 -0.0578515 -1.2648e-05 
0.0597122 0.0375243 -0.080158 
-0.00356394 0.0790175 0.118653 

-0.0683774 -0.258223 0.173628 
0.276262 0.0710346 0.0332908 
0.0308302 0.0231085 0.259652 

0.0195592 -0.0409453 0.0367551 
0.0863 0.0420012 -0.0166801 
0.00115659 -0.000532005 -0.0228003 

-0.0142655 -0.0662457 0.0464612 
0.106771 0.00578447 -0.00367607 
0.00350783 -0.000169092 -0.0211325 

-0.0268082 -0.0455024 0.0531077 
0.0440938 0.0160073 0.0231884 
0.0519833 0.0237245 0.0262968 

-0.0242248 0.0265232 0.0830487 
-0.0783575 -0.025376 0.00656092 
0.0139686 -1.90098e-05 0.125959 

0.0317237 -0.115142 -0.0807516 
0.124825 -0.0378111 -0.0612874 
-0.0484954 0.0482104 0.206216 

-0.00713187 -0.00839239 1.85151 
0.00169105 0.0174517 -1.00932 
0.000556857 0.00133957 -0.114227 

-0.0013852 -0.0115163 0.00645796 
0.000815888 0.00488695 0.00585331 
0.000418361 0.000366488 -0.00712314 

-0.216714 0.190788 0.30229 
-0.192416 0.132678 -0.803895 
0.0331894 -0.0090426 -0.484994 

-0.0454292 -0.0806454 0.345283 
0.172836 0.120777 -0.468355 
-0.0145641 -0.000849846 0.148366 

-0.00826022 0.01568 -0.0284382 
-0.00327791 0.00302856 0.16533 
-0.00483423 -0.030443 -0.625828 

-0.292644 -0.147063 -0.250296 
-0.240202 0.140634 -0.1501 
-0.0315692 0.0283064 -0.0428572 

-0.144245 -0.163517 0.15248 
-0.0149898 0.095913 -0.134362 
-0.0129824 0.0161402 0.0525542 

-0.0301547 0.00429532 0.169943 
-0.063325 -0.0169209 0.0971298 
0.00517471 0.0086141 0.0633364 

0.0382326 -0.468833 -0.394496 
0.274351 0.129272 0.126508 
-0.0142196 -0.0167511 0.181724 

-0.0513246 -0.0974991 0.256921 
0.0260031 0.00482126 -0.132018 
0.00286606 -0.0090623 -0.0084703 

0.0239407 -0.0242599 -0.264621 
-0.0148665 0.0177619 -0.101957 
0.0059925 0.0222895 -0.0128865 

0.0329829 0.1216 -0.0359435 
-0.110648 -0.0190067 0.0482957 
0.00695668 -0.0159287 0.0824464 

-0.0379026 -0.039127 -0.052758 
0.0648449 0.0314036 -0.203755 
0.0228891 0.0104454 0.0434236 

-0.0432567 0.00367749 -0.716522 
0.0500561 0.0275909 0.642839 
-0.000569071 0.00312594 -0.0486942 

-0.066609 -0.131228 -0.478476 
0.0874746 0.0196856 0.224798 
-0.0471314 0.0210924 0.43237 

-0.0214927 0.0185286 0.127833 
-0.0636399 0.0630864 0.00772328 
-0.00140986 2.75168e-05 -0.0177845 

0.0381016 -0.0572422 -0.0459137 
-0.270452 -0.0447241 -0.410511 
0.00397557 0.00213776 0.0204548 

0.21613 0.344063 -1.26811 
-0.128383 -0.0225035 0.110963 
0.0240615 -0.0214027 0.617545 

-0.0749379 -0.0292795 -0.613433 
0.0873308 0.0744172 0.407173 
0.0142696 0.0113873 -0.0177385 

-0.0523201 0.170359 -0.00764919 
0.0718907 0.0195128 0.489329 
0.00348189 0.0439819 0.029802 

0.0011495 -0.00115636 0.00314052 
0.0120142 0.000564333 0.013563 
-2.17791e-05 0.000457297 -0.000664448 

-0.293617 0.0640367 -2.33718 
-0.217837 0.25494 -1.85867 
0.0233394 -0.00407318 -0.044249 

0.190684 -0.194701 -0.429478 
0.487981 0.2878 0.494511 
0.0484429 0.071905 0.20825 

-0.358716 -0.15327 -0.278519 
0.45058 0.403261 0.558807 
0.00599714 0.00188309 0.0281896 

-0.0905074 0.195563 -0.107003 
-0.127791 0.161214 0.500671 
-0.00178517 0.00028412 -0.0018899 

0.02932 -0.240969 0.522855 
0.10658 0.0715278 -0.519606 
0.000643377 0.000429412 -0.0167927 

-0.0599422 0.226161 0.357636 
-0.0442667 0.0153857 2.48804 
0.0060886 0.00865823 -0.245596 

-0.0635929 0.101029 -0.0979954 
0.00617899 0.0262967 0.169649 
0.0037921 -0.011525 0.0736084 

0.0110982 0.071071 0.03679 
-0.0576895 0.0167133 0.00460375 
-0.00142749 0.00306423 -0.0483767 

-0.00169041 -0.0584779 3.75346 
0.161901 -0.026365 0.98093 
-0.0150678 0.000554524 0.203024 

0.0137415 0.452255 -0.499517 
0.19832 -0.117367 -0.0981284 
0.0013187 0.0191514 -0.00244097 

-0.00312778 -0.0711859 -0.286708 
0.0769315 -0.010613 -0.732848 
0.00441279 0.00125968 0.0417555 

-0.0210326 -0.0338769 -1.81403 
-0.0820042 0.0395509 0.288986 
-0.0024361 -0.00326039 -0.00368181 

-0.0016333 -0.00835294 -0.042489 
0.0301085 -0.00599422 0.0460224 
-0.000212111 -0.000416165 -0.00233803 

0.00895184 -0.000152064 -0.0112571 
0.0256815 -0.00483773 0.0121528 
-0.0134899 -0.00296215 -0.0338931 

0.0250006 -0.178985 -0.0999426 
0.139629 0.0203412 -0.120483 
0.0416187 -0.0432538 0.0523921 

0.00160514 -0.0248227 0.125387 
-0.00749125 -0.00451244 0.152724 
-0.00402381 0.00243382 0.0538612 

-0.170566 -0.329456 -1.57737 
-0.0747328 0.0751424 -0.195532 
0.0143629 -0.0321256 -0.078799 

0.00306647 0.0106384 0.00947226 
-0.00158547 0.00183892 0.0539434 
3.41811e-05 -0.000320737 6.21792e-05 

-0.074358 0.0967553 4.91126 
-0.0633799 0.0851248 -1.78121 
0.0014064 -0.00201192 0.0991295 

-0.105006 0.193312 0.226669 
0.097106 0.0757872 -0.652866 
0.00579493 -0.00031942 0.00448072 

-0.00910511 0.0176614 -0.264484 
-0.0042362 -0.00433759 1.67384 
-0.000704941 0.000420331 0.200634 

-0.00554258 -0.00375814 0.417845 
-0.0016577 0.00773558 1.45618 
-0.000170679 -0.000105231 0.645598 

-0.0118714 0.0117197 -0.23135 
-0.0144911 0.00550136 -0.0607536 
-0.000876704 -0.00237372 0.0680908 

0.115928 -0.0275901 0.739323 
0.0320409 -0.0829972 -0.0337863 
0.0687511 0.0661815 0.591686 

-0.040067 -0.0445329 -0.20449 
0.142834 -0.0122947 -0.103186 
0.000849399 -0.00124054 0.098406 

-0.0468154 0.104863 0.599404 
-0.099158 0.0167564 0.0117444 
0.00144767 -0.00080317 0.286459 

0.0125861 -0.01902 0.0194435 
-0.0256585 0.0188135 -0.0057145 
-0.00920598 0.0142114 0.0517481 

-0.00735035 0.0126977 0.00892673 
-0.00133313 0.00223506 -0.00470376 
-0.00223585 0.00121046 0.00367175 

-0.00463907 -0.0340283 0.13846 
0.00398259 0.0107362 0.467093 
0.000739801 -0.0007262 0.0962955 

-5.28747e-05 -0.00650327 0.0969467 
0.00996109 -0.00369347 -0.0475641 
0.000726448 -0.00252148 -0.0043591 

-0.247792 0.287998 1.16112 
-0.368994 0.306893 0.0564146 
0.00108418 -0.00320412 0.00398248 

0.123528 -0.0458603 1.95403 
0.0826729 -0.214423 2.85353 
0.0192076 -0.00376981 0.0428498 

-0.0173981 -0.36964 0.410261 
0.234285 0.0769585 -0.0188342 
0.0142838 -0.0212085 0.040064 

-0.212718 -0.368241 -0.549568 
0.461118 0.156988 0.194752 
0.0631643 0.0146116 0.0945479 

-0.0801056 -0.0201377 0.731921 
-0.195611 0.125434 -0.176654 
0.000156312 0.015123 -0.0117323 

0.00236125 -0.110381 -0.00631629 
0.123861 0.0185737 0.0736584 
0.0012627 -0.00201309 -0.00947566 

-0.014771 -0.00338669 -0.074179 
0.00505464 -0.000520855 0.033878 
0.00126274 -0.000459272 0.0128895 

-0.00951023 -0.00854378 -0.0215375 
0.0135064 -0.0053685 0.0146401 
-0.00052144 0.000530167 0.0338065 

0.00919696 -0.0141271 0.212716 
-0.0030762 0.00361789 -0.523104 
0.00271546 0.0031233 0.0833355 

0.0152889 -0.0910095 -0.547879 
0.0174529 -0.0313031 -0.129342 
-0.00260866 -0.000561564 0.213514 

-0.0550698 0.0377893 0.164716 
-0.0271896 0.0492371 0.15554 
-0.000637227 -0.00126546 -0.0116472 

-0.050579 0.0767014 2.05896 
-0.106168 0.034825 -0.0658529 
0.000472463 0.00415591 0.171212 

0.0366146 -0.542169 -0.26687 
0.457964 0.20117 -0.134714 
-0.0358477 0.0350065 0.596558 

-0.0715961 -0.165061 2.50804 
0.265726 0.00886121 0.848291 
-0.0128955 0.0412401 0.0756237 

0.0197545 0.00555571 0.116179 
0.0382739 -0.018402 -0.0406372 
-0.0139466 -0.0144764 -0.336626 

-0.0230016 -0.031097 -0.00631571 
0.008389 -0.00194337 -0.00104792 
-0.00106185 0.00184221 0.0218403 

0.0982106 0.0939239 0.123414 
-0.180488 0.0199607 1.06066 
0.0921418 -0.0641668 0.979663 

-0.0172452 0.00817037 0.00711107 
-0.0103852 -0.000346482 0.00883942 
-0.00496428 0.00106236 0.0130297 

0.00395505 0.00217928 -0.0210366 
0.00436846 -0.00249081 0.0319408 
-0.000967097 0.00194514 -0.0129257 

-0.0562941 -0.0160346 -0.0648762 
0.0304634 0.0117471 0.202738 
0.00371712 -0.00433443 0.120301 

-0.11429 -0.216275 0.698769 
0.140039 0.101083 -0.27306 
-0.00787084 -0.00153017 0.16674 

-0.00909386 0.0395575 0.0664565 
-0.0361943 0.0299585 -0.532182 
0.000893558 -0.00124634 0.100501 

-0.203405 -0.163034 -0.616998 
0.0136374 0.129283 -0.444507 
-0.00608312 0.000290492 0.0597053 

-0.0463104 0.0249017 -0.296045 
0.0120977 -0.0150526 0.0292867 
0.0072988 0.000819945 0.0739262 

-0.240307 0.288186 0.970214 
-0.213004 0.265395 0.989817 
-0.00340908 0.00144207 -0.00357045 

-0.0023548 0.0281718 -0.0225203 
-0.0261845 0.0240863 0.0767912 
0.00260708 0.00520248 -0.0575913 

0.0149562 0.0164705 -0.0956408 
0.0230362 -0.0155364 0.146164 
-0.000560153 0.000312909 -0.00763661 

0.207188 -0.391906 1.14399 
0.176706 0.103221 -0.749772 
0.0103521 0.00360129 -0.142017 

0.00247357 -0.00445712 0.0795225 
0.0197432 0.0157304 -0.0903438 
0.00324511 0.00040642 -0.0506394 

-0.0676177 -0.0612642 -0.910479 
-0.153575 0.0348406 -0.389725 
0.00731138 0.0175212 -0.0550256 

-0.0361244 -0.00628915 0.164141 
-0.0266838 0.0137167 0.185644 
0.00440152 -0.0126726 0.0225036 

-0.0751191 0.0296483 -0.253034 
-0.0135715 0.0439146 0.128203 
-0.00177038 0.00838697 0.0287188 

-0.288061 -0.151011 0.0975925 
-0.418767 0.374325 -0.0369942 
0.0237379 -0.0122788 -0.0948007 

-0.704237 -0.0977816 -3.6606 
-0.130548 0.423318 2.48454 
-0.0100048 -0.00342129 0.188008 

-0.023017 -0.115053 0.542527 
0.170575 0.00547829 0.0736055 
-0.00223085 0.00245019 0.0661032 

0.163849 -0.422446 0.0181954 
0.560273 0.174271 0.0522134 
-0.00291962 0.00503385 -0.0790037 

-0.20797 -0.102335 -0.295402 
0.0420862 0.216821 -0.400842 
0.00159479 0.0731814 0.61377 

0.00609613 -0.019642 -0.0327041 
0.0120464 -0.00642876 0.0367821 
-0.0012174 0.000173236 0.000157234 

-0.00678888 0.0687525 0.00469981 
0.0531707 0.0114403 0.152902 
-0.00119893 -0.000768214 0.006071 

-0.000863771 -0.0420519 0.0184642 
0.0354263 0.000773746 0.0104674 
-0.00289393 0.00154488 0.00109962 

0.00518178 -0.0186133 0.0174058 
-0.00277251 0.00575903 0.00482895 
-0.00200045 6.86043e-05 -0.0206081 

0.152627 0.0494877 0.0917035 
0.0543324 -0.1878 0.868673 
-0.00918858 0.0437085 0.0377208 
