# vtk DataFile Version 3.0
Output file generated by Yade's KinematicLocalisationAnalyser
ASCII
DATASET UNSTRUCTURED_GRID

POINTS 13483 float
396.77 44.0869 -0.554212
478.615 93.0007 -0.543477
95.1069 5.84366 -0.493105
515.562 10.071 0.402891
333.009 14.0948 0.406921
217.725 67.2118 -0.492047
127.112 7.75126 0.497984
376.372 11.9987 -0.188404
336.034 44.1852 0.189156
469.574 19.0133 -0.409981
159.11 11.5065 0.138872
192.137 6.06964 0.42914
414.388 57.2883 -0.154259
410.918 35.9924 -0.096992
110.927 21.4055 -0.53314
167.174 47.1115 -0.399859
164.319 16.0009 -0.318253
215.164 12.0195 0.512136
240.7 58.212 0.421964
346.332 10.7772 0.49843
295.132 74.3875 -0.0967702
382.734 54.4458 0.311201
504.458 73.1177 -0.487793
432.329 65.857 0.449984
313.691 27.2488 0.36074
179.723 60.6308 0.132243
330.926 56.3655 -0.493713
386.181 26.5011 0.26813
35.8303 18.892 0.5199
453.389 50.4617 -0.371974
323.211 4.28722 0.496833
11.6359 30.1307 0.331457
492.874 91.3686 0.246802
332.363 4.05082 0.632284
63.7411 55.5834 -0.102707
346.509 48.9794 0.423001
352.144 27.3752 -0.506914
241.876 42.3376 -0.199286
355.354 39.647 -0.350268
250.745 65.7786 -0.392608
181.825 18.6149 -0.383018
300.719 68.9428 0.0752518
438.779 5.19293 0.251957
148.058 13.1721 0.467766
43.7745 7.62315 -0.0716835
51.9027 11.2879 -0.245891
451.639 8.29456 -0.527636
19.2697 13.9282 -0.322907
377.131 68.0348 0.376925
439.026 37.2219 0.382507
128.736 47.5287 0.284636
474.11 81.5105 0.138095
27.8777 33.7374 -0.126191
353.157 2.62958 0.586084
114.354 7.23772 -0.561705
393.213 47.5326 0.446463
337.404 51.1094 0.138841
143.31 0.917429 -0.326106
25.344 2.26244 0.435745
245.975 37.7725 0.330252
369.235 90.1804 -0.0525356
320.798 55.4891 0.196498
273.872 9.3093 0.206123
460.225 9.08205 -0.591298
17.9322 47.6259 -0.288437
195.218 41.5543 0.304534
474.827 11.8695 -0.264303
421.293 88.6286 -0.0841155
287.382 11.5943 -0.617959
378.219 5.71355 -0.421574
472.12 60.8191 0.441337
105.167 8.4859 -0.323489
335.551 49.8892 -0.150189
326.995 27.2923 -0.0867596
219.571 18.9643 -0.428317
16.8399 16.1864 -0.266644
493.184 83.2298 -0.31138
233.234 63.8962 -0.316068
439.753 35.5286 0.339955
450.142 14.8975 0.24347
504.033 44.8936 -0.240304
319.69 60.8054 -0.177893
77.9919 50.6609 0.0805257
428.303 57.2842 0.25253
399.313 78.0564 0.104238
508.636 78.221 0.113809
507.428 0.710426 -0.582032
216.89 32.7839 0.548403
417.994 11.2078 -0.278606
19.4157 6.38846 0.606172
104.6 51.1 0.145288
344.391 22.5569 0.24008
487.008 66.8508 -0.481494
152.22 44.9187 -0.235888
34.7021 43.9145 -0.286864
332.14 2.67638 -0.210843
178.664 12.0078 -0.422873
453.764 85.765 0.24978
481.104 51.6352 0.231501
252.257 52.3879 -0.253726
125.502 35.8994 -0.463122
359.905 76.3651 -0.408615
266.432 36.0744 -0.545256
289.141 43.8214 -0.128226
261.627 26.122 0.372445
363.25 14.5107 0.122042
515.405 26.1826 -0.205905
66.3816 51.0851 -0.43637
252.733 5.89512 -0.19652
373.157 15.566 0.385362
256.73 79.5811 0.10216
19.6954 28.9143 -0.514494
23.975 5.75539 -0.468012
369.97 48.4947 0.425641
340.894 45.7354 -0.16436
16.8064 40.9061 -0.406267
74.8634 38.6607 0.221721
243.084 17.7561 0.422331
400.649 24.0373 0.126925
317.077 73.0813 -0.293433
484.624 14.7878 0.410213
481.988 7.505 0.26859
277.045 58.7621 -0.12265
412.688 53.2256 0.0983417
180.778 22.492 -0.529675
249.166 5.02612 0.500024
82.1137 38.5547 0.323725
93.8549 26.36 -0.298583
356.201 83.8328 0.0277055
229.898 20.6775 0.618881
451.126 58.2875 -0.120025
426.413 89.2815 -0.105338
328.213 41.2941 -0.517469
506.776 20.7411 0.429643
297.538 38.5735 0.259869
205.051 32.9072 0.334106
424.041 72.8216 0.304001
208.564 35.2776 0.440232
386.262 14.8504 -0.245902
234.904 60.8473 -0.186984
339.152 20.4014 0.533149
264.132 62.7729 -0.0827581
295.851 19.0923 -0.177341
222.39 71.5135 0.471469
150.115 45.319 -0.117355
483.473 91.2775 0.160016
512.084 31.8742 -0.249942
4.98294 14.6654 -0.425006
297.915 31.5079 -0.497721
32.1463 28.7768 0.0793702
268.105 59.8059 -0.460314
277.492 41.5102 -0.286691
57.9144 15.536 -0.490973
38.4413 44.6615 -0.437034
172.306 18.0427 0.490226
370.305 83.3507 0.450769
384.659 26.5485 -0.547387
58.9806 25.3069 0.518529
435.628 68.1458 0.448721
498.411 9.83093 0.649289
415.759 81.0322 0.490692
457.982 1.62912 -0.551607
365.279 41.866 -0.427093
382.102 53.0021 -0.484452
345.391 28.9664 -0.442194
514.528 5.46832 -0.512156
174.639 35.7932 -0.161295
108.468 45.8184 -0.212042
186.639 7.48149 -0.522968
74.8227 4.6266 0.338687
49.9595 14.7189 0.247673
206.601 45.1739 0.301424
12.5372 31.5182 -0.38578
367.771 29.1405 0.470438
381.236 70.3821 -0.186575
321.427 37.8058 -0.406576
505.869 92.5512 -0.347427
283.187 13.9449 0.247123
300.613 61.2895 -0.404076
360.44 3.41495 -0.319925
18.5182 27.7977 -0.411963
387.658 6.34648 0.598814
367.117 8.52877 -0.40966
159.711 16.9674 0.575813
293.155 20.6026 -0.23896
235.142 6.90266 0.501492
272.362 39.0243 -0.347717
461.497 74.3334 0.113979
151.358 40.2354 -0.413378
510.312 12.7453 -0.408517
463.788 71.45 -0.341372
270.306 26.9653 0.213151
473.988 2.22546 0.491831
399.769 43.7672 -0.515108
478.506 29.3519 0.438553
307.523 66.8011 -0.283964
333.095 20.9129 0.447716
310.258 67.9734 0.233397
309.221 18.3479 0.190173
419.422 81.8124 0.273414
419.087 77.655 0.308186
149.327 54.8519 0.354687
501.735 44.5718 -0.104941
385.544 51.4214 0.340947
9.15679 21.8512 0.177742
286.078 38.5186 0.429656
147.078 36.8513 0.407178
79.6094 51.72 -0.236711
485.866 57.6016 0.438642
413.177 85.8407 0.159522
238.014 36.3771 0.41014
357.331 10.4895 0.306334
69.1589 56.5095 0.16325
186.913 38.6388 -0.504495
369.507 34.0456 0.424172
332.065 33.4991 0.490305
197.691 0.881589 -0.706497
368.245 70.4021 0.346933
347.999 77.9758 -0.444604
329.32 73.0684 0.386974
337.497 4.65178 -0.624551
462.698 21.4608 -0.386513
140.431 21.2855 0.245534
337 69.5571 0.404295
372.784 55.5009 -0.170878
56.5162 0.963957 -0.344314
190.717 4.81456 -0.285248
510.867 35.3448 0.157832
504.338 46.794 -0.412449
515.529 39.9723 -0.517385
229.079 9.19231 -0.270361
481.664 35.7263 -0.482591
294.068 80.0572 0.309232
308.255 2.12617 0.647298
405.574 72.2181 -0.402891
19.7732 35.4557 0.320835
235.396 65.347 -0.561269
191.494 3.31076 0.65117
496.733 89.4993 -0.182077
443.115 67.9609 -0.238987
217.175 13.5107 0.305306
418.052 65.7833 -0.091236
376.452 2.64115 0.475687
366.159 7.75858 0.619191
76.1618 22.7185 -0.476906
229.909 0.983417 -0.357192
260.034 3.47825 -0.597382
10.6866 9.32895 -0.60698
2.65848 47.3208 0.263336
129.469 26.4965 -0.390063
55.897 51.6341 -0.223843
56.0289 37.9555 -0.306354
293.972 14.2399 -0.646147
265.327 70.095 0.497295
470.555 82.8286 0.120196
15.7854 5.25899 0.36428
55.2876 9.37527 0.141909
379.749 79.628 -0.165567
222.108 0.915922 0.505578
256.615 42.7224 -0.106297
179.274 4.67936 0.550353
429.879 45.9641 0.17111
312.34 17.5328 0.469869
485.087 36.851 -0.400054
404.988 61.8981 -0.308517
443.564 28.1016 -0.0828228
295.957 44.365 0.514137
90.5018 51.5507 0.0330143
361.404 80.2088 -0.0723439
476.207 25.4367 0.28378
184.566 44.1426 -0.247342
26.6704 21.0261 0.174685
253.74 16.1412 0.545227
91.4523 43.9802 -0.552367
209.229 57.381 0.221531
298.081 1.80488 -0.462771
489.485 76.7248 0.405547
453.07 0.717984 -0.571667
253.338 4.31268 0.477693
227.277 33.8953 0.166859
313.547 66.7327 0.192686
63.9235 8.74865 0.612766
152.104 63.9561 -0.379237
481.235 62.2446 -0.371225
338.247 75.1345 -0.0777807
155.379 61.0498 -0.268573
120.953 60.7758 -0.347461
512.566 71.1957 -0.422663
514.087 28.6968 -0.575638
413.359 4.12044 -0.676699
150.715 38.5287 0.0928856
365.458 47.0468 -0.116326
365.691 40.1766 0.314734
284.911 8.79319 0.172016
329.235 0.937988 0.39153
468.767 85.8321 -0.547276
70.4609 41.4001 0.208903
434.076 33.7542 0.491009
206.389 21.0282 -0.338198
8.16004 2.59802 -0.39653
106.935 44.3869 -0.192938
54.3845 31.1136 0.455031
439.804 53.6473 -0.309336
497.207 99.9845 0.175614
147.28 42.3634 -0.169338
509.138 36.4129 -0.294245
34.417 47.7248 -0.278799
75.4854 36.7845 -0.15166
419.934 34.8482 0.431057
289.788 21.7253 -0.624022
350.612 28.2691 0.139443
184.744 37.4662 0.185945
422.859 12.0284 -0.526787
515.467 30.9023 0.60918
22.6632 36.7111 0.262098
204.875 8.78182 0.301342
169.83 19.6415 0.24968
1.11414 61.0998 0.146495
173.059 19.0345 -0.455438
162.493 13.7862 0.111587
167.055 36.5355 -0.276275
110.208 33.9386 0.117999
365.769 22.2108 0.398733
133.238 19.8002 -0.470548
490.43 89.1805 -0.221896
143.578 4.97714 -0.745758
35.7734 50.8367 0.447714
445.684 94.6224 -0.426228
213.982 37.5199 0.483443
440.057 38.271 -0.493393
493.508 72.2921 -0.4648
227.397 10.07 0.2907
467.038 57.6204 0.391993
251.128 2.59575 -0.340504
293.091 35.073 -0.371106
442.931 20.6103 0.451827
85.3886 13.8927 0.485758
329.4 4.09088 -0.513406
487.271 29.6007 0.282226
69.5754 7.68985 -0.428032
212.243 16.758 0.247927
294.098 12.6745 0.299685
512.347 2.28319 0.646016
277.802 8.26564 0.493651
134.761 50.9431 0.292567
479.145 22.5876 -0.337017
107.06 48.9278 0.212858
199.278 47.5824 0.408223
281.239 33.954 0.235412
386.605 16.8121 -0.442219
273.068 22.7492 -0.52322
318.549 44.1888 -0.520361
479.494 93.7152 0.391348
37.8036 12.0131 0.110053
219.114 58.1626 -0.258242
271.809 49.7827 -0.431165
288.269 31.2011 0.358158
349.776 65.3859 -0.55132
462.856 83.1309 0.187629
423.97 79.1385 0.338838
176.29 45.5571 0.416149
4.78566 42.586 0.172953
417.108 77.4292 -0.132855
346.059 60.8993 0.52877
178.561 50.7333 0.13683
433.691 51.6221 -0.141624
124.556 10.3107 -0.290042
260.958 46.139 0.272909
312.293 68.4168 -0.122701
290.474 27.8251 0.202661
475.449 95.0385 -0.290717
299.639 3.9225 0.672518
41.6877 31.7312 0.340698
326.036 65.0039 -0.345078
304.626 61.2844 0.379049
494.497 84.698 -0.23898
463.908 57.4558 -0.271719
360.041 24.7687 0.142285
484.601 84.3623 0.417154
222.141 2.10779 -0.534819
270.751 56.226 -0.471856
19.9108 42.8409 -0.308421
468.174 59.1624 -0.15063
407.458 28.0141 0.597226
312.376 0.672681 0.511676
102.328 5.50818 -0.423101
304.767 68.5926 0.116613
10.5893 0.881321 -0.294907
514.034 11.4561 0.101028
270.631 70.9416 -0.290044
[...]
POINT_DATA 13483
TENSORS Strain_matrix float
-0.0717688 0.0479931 -0.102672 
-0.0607719 0.136718 3.65091 
-0.0115218 -0.0123093 -0.134803 

-0.0342848 0.180767 -29.0747 
-0.00687308 0.0244725 -0.943772 
-0.000213883 0.00490509 -0.714914 

-0.0105523 -0.0074116 0.020342 
0.00788958 0.00577788 -0.006567 
0.000760981 0.000581026 0.0105309 

-0.249452 0.0526807 0.282843 
0.0642773 0.175918 -0.193361 
-0.0530469 0.00801205 0.120554 

0.0159649 -0.10096 -0.528944 
0.074977 0.0059608 0.0857815 
0.000780512 -0.0037229 -0.0428802 

0.100169 -0.37734 -14.2742 
0.233649 0.0666112 6.41736 
-0.0103305 -0.00385342 -0.23561 

0.00683568 -0.0160021 -0.191406 
-0.0052131 -0.0141914 -0.596177 
-2.40333e-05 -0.000545979 0.0877607 

-0.00446731 0.108462 -0.0111535 
-0.103181 -0.00196275 -0.0315023 
-0.000649082 0.00399924 0.0436055 

0.0131928 -0.0208129 0.0678802 
0.0174705 -0.00592571 -0.0174447 
0.00829854 -0.0115035 -0.0302902 

-0.196662 -0.226574 0.555804 
0.0189597 0.132785 -0.194054 
-0.0509386 0.00783665 0.0765799 

-0.395118 0.47329 -0.871073 
0.230767 0.190587 -0.761153 
-0.0493905 0.0506263 0.362053 

-0.157213 -0.194957 -0.0940446 
0.211498 0.125529 0.338565 
-0.0356534 0.0445101 0.132632 

-0.0141863 -0.0928297 0.129266 
0.143183 0.0274376 0.432935 
-0.012443 -0.0173468 0.0844771 

0.00838593 -0.00356374 0.055113 
-0.0224651 0.0107853 0.0790413 
0.00276871 0.00101527 -0.0532313 

-0.0758038 -0.0813225 8.55795 
0.0156682 0.00978089 1.17383 
-0.00901662 -0.00101925 0.242601 

0.000671166 -0.17702 -1.85392 
0.113146 0.0214605 -3.37822 
-0.0115313 -0.0268711 -0.520024 

-0.40176 -0.176414 -0.405539 
0.0607328 0.183878 -0.0633019 
-0.0294656 -0.00985736 0.182042 

-0.0406417 0.00243342 0.0618194 
0.0667672 -0.027257 -0.0729588 
-0.00561994 0.00794964 0.0801901 

-0.0609296 -0.114352 -0.587534 
0.0124071 0.0393662 0.120401 
0.00124741 -0.00354868 -0.013702 

0.00447595 -0.00672417 0.0132184 
0.00962484 -0.00601301 0.0173644 
9.31351e-05 -0.00048618 0.00459474 

-0.0230336 -0.0390831 0.0634144 
0.0224843 0.00795422 0.00987972 
-0.0029257 -0.000145295 0.0332216 

-0.0135069 0.00894963 -0.0720047 
-0.00955887 -0.0075152 0.00588828 
-0.0242883 -0.0383432 -0.181504 

-0.0170835 -0.00179564 0.44378 
-0.00451739 0.00790956 -0.104178 
-0.00385511 0.00204131 0.0333594 

0.0258589 -0.0247607 -0.118595 
0.0477168 -0.016767 0.46357 
-0.00117632 0.023483 -0.353492 

-0.0196382 0.0486638 0.00921389 
-0.0815617 0.0309819 0.00655824 
-0.0013891 -0.00449285 0.0110294 

-0.0425881 0.0324775 0.486512 
0.221915 -0.0294174 0.191832 
0.00789738 0.004383 -0.0538702 

-0.0395338 0.0843522 -0.425806 
0.0904348 -0.0100046 3.35861 
-0.000415531 -0.00840818 0.104262 

-0.307969 0.190225 -1.02194 
0.0935532 0.345758 0.425107 
-0.0180181 0.0873972 0.00826227 

-0.130967 0.0912875 -0.558548 
0.0571643 0.123071 0.0883077 
-0.000433407 0.00156957 0.200388 

-0.0243188 -0.0666749 -0.16887 
0.0241764 0.0124175 0.114406 
0.00138293 -0.00662087 0.0435905 

-0.00550778 0.0134773 -0.00232913 
-0.0089855 0.00456365 -6.5065e-05 
9.84855e-05 0.000583842 -0.00127673 

0.0237914 -0.0824348 0.343015 
-0.0573547 0.0197927 -0.0391091 
0.00876122 -0.00459252 -0.000292611 

-0.00790744 0.000415207 -0.0234726 
-0.00679473 -0.00145024 0.0289865 
-7.28722e-05 -5.61993e-05 0.0198758 

-0.0218984 -0.00355184 -0.15068 
0.0228273 -0.00723995 -1.27856 
0.0232162 0.0214292 -0.132977 

0.0251281 -0.0669552 0.00799067 
0.0475754 -0.0170468 -0.0236566 
-0.00185028 0.00233066 -0.0228241 

-0.0651266 0.0919974 -0.742856 
-0.320289 0.0038182 0.265229 
0.000292437 -0.0150429 0.12534 

-0.0547242 0.0186085 -0.671098 
-0.00294864 0.0513599 -0.236737 
-0.00075147 -0.0147167 0.147839 

-0.10739 0.034698 -0.208634 
-0.00738872 0.117041 0.62583 
0.0148781 0.0112132 -0.051289 

0.0104889 0.00906587 -0.0399204 
0.00363687 -0.0146063 -0.0390937 
0.000884609 -8.61592e-05 0.00477933 

0.00906775 -0.0378648 -0.264911 
0.0370477 -0.00360259 -0.052665 
0.000991178 0.000352969 0.045412 

-0.0362296 -0.0956052 -0.317796 
0.061945 -0.0318305 0.108151 
0.0681837 -0.0470179 0.898898 

-0.00140983 0.00241409 0.00961635 
-0.0199044 0.00269828 0.00288192 
-0.000162474 0.00156907 -0.0171491 

0.000971512 0.0196769 0.018885 
-0.0130504 0.00113585 -0.0120254 
-0.000377076 7.97572e-05 -0.00235271 

0.00422212 0.171393 0.0456402 
-0.126319 -0.0683825 -0.220421 
0.0250796 0.000350973 -0.0258827 

-0.120587 -0.119607 -0.215371 
0.296958 0.0676718 0.060073 
-0.0135158 -0.0144525 0.155266 

-0.220382 0.229424 -0.272907 
-0.190524 0.223034 -0.35258 
0.0030591 -0.00374712 -0.130061 

-0.00940459 0.0118812 0.0042236 
-0.00463915 0.0056826 -0.0172675 
-0.000568567 -0.000487968 0.00422811 

-0.0888126 0.0879544 -0.114376 
0.0781857 0.0973962 0.127655 
0.00090235 -0.00450144 0.0714908 

0.00210362 -0.0558622 -0.0173097 
0.0576093 -0.0112642 0.0322754 
-0.00229318 -0.000812681 0.0223531 

0.114103 0.0302353 0.6489 
0.0299327 -0.0712415 0.567287 
-0.00152649 -0.00694175 -0.0848031 

-0.123791 -0.36231 0.60608 
-0.0387489 0.174664 0.405692 
0.00489282 -0.0387906 0.0603619 

-0.00294787 0.000353755 0.00623321 
-0.00322784 0.000292506 0.00119639 
-0.000175516 9.07143e-06 0.00675447 

-0.105488 -0.215195 -0.907953 
0.0683497 0.0326147 0.105952 
-0.00481194 -0.0158379 0.058687 

-0.0178261 0.0146347 0.000915786 
0.00883078 0.0088575 0.00168314 
0.000197206 -0.00106783 0.0038392 

0.00648359 -0.00732261 0.028206 
0.00786724 -0.0185279 -0.110469 
0.00200986 0.000600441 -0.0190805 

-0.0420996 0.0233043 -0.378258 
-0.122624 0.0529873 -0.554318 
0.00121397 0.000189858 0.0225409 

0.0613037 -0.129274 -0.143508 
0.0742628 -0.0210545 0.0175793 
0.00610538 0.0332958 0.163276 

-0.106037 0.266718 0.267694 
-0.077455 0.0943778 0.532822 
-0.00152907 -0.127514 0.166816 

-0.0267376 0.044753 0.00736037 
0.00237393 -0.0485801 0.15018 
-0.00745326 0.00624726 0.0701673 

-0.125622 0.0476562 0.269171 
0.00393092 -0.0105295 0.275204 
-0.0286064 0.0367625 0.0253961 

-0.0694998 0.32566 -0.0235748 
-0.0174633 0.0323229 0.117812 
-0.000552055 0.00446437 -0.00853747 

-0.0875102 0.336039 0.0727713 
-0.303465 0.202631 0.405891 
0.00280843 -0.00337292 0.0199081 

-0.382414 -0.484262 0.136429 
0.239977 0.322978 0.491 
-0.0228562 -0.0176527 -0.039995 

-0.0105761 0.00811435 0.0810802 
-0.00911422 -0.0143871 0.0826477 
-0.00102981 -0.000135605 -0.00861239 

-0.0167472 0.117553 -0.0667518 
-0.0216016 -0.0197433 -0.0861906 
-0.000520646 -0.029106 0.046531 

0.258921 0.601802 -0.218113 
-0.374849 -0.120209 0.263723 
0.0035338 -0.00535095 0.0811406 

0.00672419 -0.0238523 -0.00476541 
0.063997 -0.00237219 -0.000377113 
0.00463433 0.00188293 -0.00905185 

-0.0236282 0.0306087 0.0646597 
-0.0549999 0.0413121 0.0279748 
-0.00109191 0.000510645 0.00406845 

-0.0700877 0.280675 -0.547468 
-0.445867 0.1224 0.507181 
0.0433154 -0.0102425 -0.21869 

-0.00047152 -0.282124 -0.24191 
-0.118417 -0.0253657 0.200223 
0.0327602 0.00959045 0.0839408 

-0.0469583 0.0209262 -0.261763 
-0.014238 0.0174442 -0.459859 
0.00224321 0.00500877 0.039978 

0.0062084 0.0121801 -0.00613668 
-0.0241309 -0.0195364 -0.0337011 
-0.000268978 0.00103728 0.00762084 

-0.0397925 -0.119057 -0.235293 
0.0586277 0.0565907 0.148455 
-0.0365091 0.00274795 0.107689 

-0.0883777 -0.0409697 -0.19853 
0.0981955 0.0812519 -0.209922 
-0.00117835 -0.0193915 0.0601147 

-0.138002 -0.0419942 0.206664 
0.0610004 0.0675121 0.530424 
-0.00495412 -0.00137666 0.0793757 

-0.0973358 0.161787 0.347785 
-0.0866835 0.13247 0.139315 
0.003415 -0.000334436 0.0320412 

0.0132078 -0.023767 0.146916 
0.047807 -0.00742394 0.131815 
-0.0316873 -0.0344545 -0.027397 

-0.0126478 0.0284048 0.253911 
0.00395152 0.0229225 0.21529 
0.000570046 -0.000415299 -0.0192805 

0.00888233 0.104999 -0.262061 
-0.00565407 0.0299168 -0.023532 
-0.00139652 -0.00489474 -0.102644 

-0.0385211 0.04488 -0.00599457 
0.0161427 0.00822977 -0.0492038 
-0.00270492 0.00282166 0.0313556 

0.0031302 0.00151436 0.0344402 
-0.0340925 0.00350899 -0.0262819 
-0.000205029 -5.25523e-05 -0.00231904 

0.0129977 -0.177707 -0.279911 
-0.235772 -0.00988604 0.389291 
0.0260654 -0.0253403 0.0139067 

-0.00442329 0.0868989 0.165019 
-0.0633252 0.0120718 -0.0345233 
0.0034266 0.000173533 0.0207179 

-0.0577493 -0.313506 0.0764511 
-0.0688992 -0.0119938 -0.343741 
0.00176197 -0.00384193 -0.0255911 

0.00940409 0.110432 0.122247 
-0.058771 0.00844559 0.0330217 
-0.0238996 -0.0538879 0.299949 

-0.00863282 0.000125094 0.0724111 
0.0031525 0.00485964 0.0204865 
-0.000575831 0.000430628 -0.00518056 

-0.0308316 0.0569729 -0.0266704 
0.00736421 -0.0141667 -0.0270377 
-0.00358078 -0.000693244 0.00501435 

-0.0448112 -0.00154195 0.213672 
-0.0975918 -0.0455686 -0.340895 
-0.000830088 -0.00211532 0.224499 

0.00391902 -0.021566 0.029477 
0.000159657 -0.00127034 -0.0449922 
-0.00028269 0.000473465 -0.0179869 

-0.0202658 0.0525261 1.00402 
-0.0786819 0.0205968 0.144366 
-0.0070961 -0.00590783 0.295674 

0.105882 -0.83026 0.514728 
0.274171 0.287724 -0.208228 
-0.0217257 0.117878 0.138912 

-0.00363457 -0.0050089 -0.00177642 
-0.0151374 0.00283908 -0.00822767 
-0.000780332 -0.000831893 0.00263843 

-0.00960581 0.00876699 0.15111 
-0.022961 0.00899826 -0.0870844 
-0.000239087 -0.000657614 0.0448801 

0.00610314 0.010519 0.342257 
-0.130243 -0.00548096 0.253313 
0.0208534 0.0206439 -0.215477 

0.00446567 -0.07138 0.0129212 
0.0508622 0.00112716 -0.0442705 
0.00177917 -0.000930553 0.012131 

0.000847487 -0.00827587 0.0497988 
0.0357546 -0.0251035 0.0637125 
-0.00706193 -0.0259427 0.0824843 

-0.0323267 0.161479 -0.412482 
-0.0953081 0.0942315 -0.235813 
0.0183912 0.0108904 -0.0314607 

-0.00787119 -0.0243631 -0.00685764 
0.0343971 0.00522959 -0.00556917 
-0.00154455 0.00138323 0.00679862 

-0.0161335 -0.0947692 0.449984 
0.0862155 0.0236426 -0.1891 
-0.00188238 0.000607297 0.0380149 

-0.0542908 -0.116848 -0.0579576 
-0.112984 -0.012629 -0.328785 
0.023628 0.0058144 0.078537 

-0.144697 -0.210241 0.757006 
0.102496 0.154369 -2.58394 
0.00588856 0.00861389 0.00642167 

-0.0897223 -0.315204 -0.602584 
0.0664546 0.023352 0.574851 
0.00894151 -0.0157393 -0.222181 

-0.0817176 -0.0242356 0.457333 
0.0576828 0.0961639 -1.54372 
-0.00364104 0.000550764 0.00624395 

0.0724092 -0.121306 0.230366 
0.192553 -0.0343448 0.109473 
-0.00687498 -0.00342972 -0.00488734 

0.0305532 0.124054 -0.0785904 
0.0495066 -0.0188945 0.0471942 
-0.0491521 -0.0722844 0.299544 

-0.0319289 -0.094963 -0.0257549 
0.203348 0.0740324 0.0188227 
-0.000318419 -0.00128899 0.0414537 

0.00232347 0.120973 0.201378 
-0.099834 0.0168523 -0.162395 
0.0104844 0.0300804 -0.0246967 

-0.00604194 -0.0071651 0.605577 
-0.00986957 0.000672234 0.820232 
-0.000932363 0.00335219 0.0359844 

-0.0147118 0.00203586 -0.0057764 
0.0118286 -0.00585613 0.000314324 
-0.000510371 -0.000979713 0.0336345 

-0.0327751 0.119114 -0.138326 
-0.129798 0.018738 -0.0238395 
-0.00343461 0.000907421 0.0196753 

0.00133336 0.0463236 -0.00892257 
-0.0499203 -0.00878309 0.0196751 
0.000382011 0.00186255 0.0428252 

0.0145904 -0.171121 1.16692 
-0.0592301 -0.0178756 1.13361 
0.00133239 0.00183422 0.102752 

-0.16159 0.0802836 -0.199472 
-0.00871858 0.0743967 -0.294657 
-0.0589318 -0.0101831 -0.0818365 

-0.237793 -0.159567 -0.54338 
0.428715 0.253412 0.929342 
-0.00793947 -0.00124546 -0.00384599 

-0.0869259 -0.00516525 0.165548 
-0.00833471 0.064122 -0.230685 
-0.0119957 -0.00142699 0.0594395 

0.00903065 -0.0821721 -1.41685 
-0.101918 -0.00570935 -0.746526 
0.00958498 0.0237646 -0.192987 

-0.149411 0.0792684 -0.782373 
0.103571 0.252821 -1.15179 
-0.0139888 -0.0087819 0.137391 

-0.0107467 -0.0260823 -0.306287 
0.0312521 -0.0260737 -0.0309282 
-0.00623339 0.0030189 0.050943 

-9.17548e-05 -0.177449 -0.0569425 
0.089729 0.0479614 0.0347936 
0.00140512 -0.00844907 -0.0123793 

-0.0396309 0.0331822 -0.239375 
-0.00675779 0.0255952 0.00988343 
-0.00097281 -0.000213871 0.00382815 

-0.195938 -0.0601758 -0.0177825 
0.214924 0.197378 0.330977 
0.0156276 0.0165072 0.041493 

8.43609e-05 -0.0171828 -0.0157412 
0.00620052 -0.000909315 -0.0108462 
-0.00228043 0.00371414 0.01291 

0.0108371 0.0213923 0.000623824 
-0.00642022 -0.0141956 0.0309201 
0.000433169 -0.000961835 -0.000693248 

-0.0205948 -0.046355 0.0874354 
-0.0349082 0.0220375 0.0171994 
0.0068825 0.00585518 0.0782304 

-0.130472 0.0338636 0.691905 
-0.0456558 0.136891 -1.5796 
-0.00971082 0.0323261 -0.274404 

-0.0151077 0.00125081 0.0045589 
-0.00866311 -0.00490221 -0.008937 
-0.00187809 -0.00159278 0.00741599 

-0.0688284 0.394109 0.968131 
-0.234881 0.149044 -1.08253 
0.00638629 -0.0155604 0.119263 

-0.0310874 0.0601617 -0.0272102 
-0.0197714 0.0269595 0.107364 
0.00327337 -0.00153891 0.0661251 

0.229696 0.754559 -1.36403 
-0.814531 0.363872 -0.112194 
-0.0149271 -0.00353368 1.02665 

-0.115248 0.125299 0.705089 
-0.198718 0.0479444 -0.59114 
0.0117373 0.00631177 0.243595 

-0.0559024 0.103951 0.253648 
0.070815 -0.0067908 0.0758249 
-0.0389213 -0.00391879 0.50892 

0.0322568 0.0912397 0.00749 
-0.123699 -0.00948781 0.135265 
0.0199999 0.0149768 0.233161 

-0.0420259 0.0116493 0.48385 
0.00671078 0.00962745 -0.0602412 
0.000933432 -0.00177305 0.172764 

0.0469573 -0.180362 -0.0441886 
0.258197 -0.136711 0.0762144 
-0.00578857 -0.000174827 0.109729 

-0.184207 -0.0324719 0.177448 
-0.109829 0.142375 -0.447626 
0.00211841 -0.00518834 -0.030837 

-0.180153 -0.0677872 1.37591 
-0.380706 0.167526 0.564489 
0.00551215 0.000560615 0.0313784 

-0.0458439 0.391326 1.32629 
-0.512222 0.218801 -0.270259 
-0.00676235 -0.00270375 0.0100392 

-0.0641197 -0.0139609 2.10675 
0.0163147 -0.0217177 1.71591 
0.00566532 0.0176494 0.00889885 

-0.10403 0.00347211 0.00723891 
-0.0239285 0.124676 0.260371 
-0.00503119 0.00689675 0.0251846 

0.0506905 0.059154 -0.11306 
0.052134 0.0351305 0.174433 
-0.00257408 -0.00374271 -0.0142869 

-0.00367244 -0.0448572 0.0926993 
0.00824142 0.0121293 0.0916694 
-0.00869033 -0.00191335 -0.0513204 

0.078047 0.114366 0.154944 
-0.0879409 0.0628068 0.226954 
0.000432328 -0.00556762 0.0105439 

-0.253299 0.163253 -0.31047 
-0.143576 0.268496 0.0694151 
0.0107522 0.00200622 0.00920762 

-0.0571816 -0.449988 4.61867 
-0.00979932 -0.189148 -20.079 
-0.00346842 -0.0078686 -1.99471 

-0.0376885 -0.0643345 0.257612 
0.127404 -0.00767726 -0.22698 
-0.0205691 0.0220253 0.0217674 

-0.0130947 -0.00130995 0.0378602 
-0.0222958 0.0111835 0.00418282 
0.00798474 0.0005625 0.0621982 

0.0416287 0.0623439 0.0435327 
-0.0618334 0.0200465 0.00637041 
-0.00558525 -0.00214767 -0.0589727 

-0.225516 0.231461 -0.504784 
0.0534467 0.251815 -0.0607355 
0.0335897 -0.00934277 0.0796358 

-0.191063 0.139845 -1.16102 
-0.152777 0.217984 -0.0531354 
-3.28504e-05 0.00771778 0.0888998 

-0.272759 0.177001 0.487261 
-0.00355514 0.247297 0.821838 
0.00470935 -0.0180345 -0.0137583 

-0.00664786 -0.00305649 -0.0911781 
0.00322177 0.00996169 0.0344433 
0.000901481 -0.000365077 -0.000744249 

-0.037355 -0.0820464 -0.0981558 
-0.000866645 0.00239028 -0.0506429 
0.0103243 0.0226143 0.179768 

-0.00438273 0.285746 0.866908 
-0.279963 0.127936 0.0861641 
-0.0056334 0.00361648 0.0449409 

-0.0062103 -0.070756 0.518992 
0.0601805 0.00990691 -0.262181 
0.000410268 -0.000278886 0.10961 

-0.11467 -0.0146436 -0.150273 
0.0230394 0.0692289 -2.14615 
-0.00827061 0.00587696 0.341272 

-0.0318749 -0.0312089 1.33023 
-0.0482289 0.0225718 -1.38023 
-0.031093 -0.0182986 0.287611 

-0.172399 0.0362029 1.15036 
0.0821647 0.131018 0.868727 
-0.00193868 0.00680369 0.217666 

-0.102737 0.075994 -2.46017 
0.0670039 0.110378 -2.48653 
0.00222503 0.00106739 0.320779 

0.00171027 -0.0319955 -0.964008 
0.0160441 -0.000391351 1.14072 
-0.00926835 0.0012223 -0.21023 

-0.154248 0.0956192 -0.421496 
-0.0147654 -0.144505 0.446125 
-0.0155215 -0.0110442 0.232458 

-0.00945567 -0.0176475 2.18726 
0.0214975 0.00925269 -1.14672 
-0.00139384 0.000807964 0.124187 

0.000552638 -0.0198487 -0.0321543 
0.00347756 -0.0130601 0.184537 
-0.000993925 0.00995793 -0.00830483 

-0.018018 0.0017289 0.166447 
0.0469668 -0.00592905 0.104068 
-0.00117094 0.00185736 0.0305635 

-0.0141799 0.00843108 0.543019 
-0.0104771 0.00867089 0.953795 
0.000908335 -0.0117051 0.175381 

-0.000653068 -0.0117177 0.410801 
0.0371926 -0.00889501 -0.406714 
0.00119305 -0.000113982 0.0956619 

-0.057451 -0.0185714 -0.00636243 
0.0940881 0.0270003 -0.0088801 
0.0184173 -0.0148929 0.0567522 

-0.139307 0.0595176 0.240438 
0.146595 0.0910192 -0.639738 
-0.000442956 0.000487223 0.0528545 

-0.130731 -0.554479 0.152117 
0.557038 0.312019 -0.26958 
0.00975298 -0.0434169 0.139541 

-0.154369 -0.0363068 -0.684007 
0.00115656 0.0646183 -0.94034 
0.0479166 0.0123618 -0.227612 

-0.154755 -0.0572661 -0.760894 
0.270919 0.102391 0.665581 
0.00843755 -0.00619367 0.0951559 

-0.0266877 -0.00353914 -0.109855 
0.0610109 0.0126551 -0.582952 
-0.0668774 -0.0158366 0.678998 

-0.0408793 -0.0668643 0.222931 
-0.387873 0.0489601 -1.06081 
0.00559778 -0.00637048 0.0665945 

-0.0656077 -0.0173989 -0.204994 
0.0362246 0.0177905 -0.276099 
0.000279192 -0.00178675 0.0141522 

0.0330512 0.0188326 0.118371 
0.0174879 -0.0334573 0.286231 
-0.00145406 -0.000968703 0.018879 

-0.034595 -0.0508421 -0.027807 
0.0210373 -0.00412811 -0.0366153 
0.0193598 -0.041025 0.698816 

0.000332666 -0.0799422 -0.489547 
0.046931 0.0466784 0.689785 
-0.00138643 0.00583342 0.0841849 

-0.0127022 0.000299546 0.0162996 
-0.0204163 0.0162821 0.0948377 
-0.000230088 1.67272e-05 0.00727045 

-0.285692 0.183825 0.0214964 
-0.293967 0.262155 0.135407 
-0.00772025 0.0244541 0.173787 

-0.0127085 0.024289 0.064808 
-0.0310205 0.0105146 -0.0168942 
0.00280055 0.000391444 -0.0157046 

-0.0117583 0.027677 0.013148 
-0.015546 0.0107113 0.0328845 
-0.0100731 4.58953e-05 0.0104857 

0.03291 -0.207658 0.0934968 
-0.257399 -0.052049 0.409442 
0.011148 0.0323348 -0.0400795 

0.00214395 -0.00558138 0.065075 
0.0125114 -0.0139209 0.010464 
-0.000645142 -0.00164541 -0.00344261 

-0.259041 -0.146372 -0.347931 
0.130395 0.194238 -0.583554 
0.0341477 -0.00124917 0.150461 

-0.314766 -0.10297 2.02798 
0.035686 0.141808 -0.245373 
-0.00919085 -0.0264142 0.236313 

-0.0927517 -0.1466 -0.284024 
-0.0859582 0.159183 -0.43485 
-0.0007691 0.0377138 0.00718598 

-0.0133207 -0.026887 0.263216 
-0.0162014 0.0114044 -0.217549 
-0.00862259 0.000616226 0.0485437 

-0.183284 0.016995 -0.0318789 
0.0331208 0.160659 0.544289 
-5.04261e-05 -0.00492618 -0.013609 

-0.00760415 -0.0104732 -0.0134961 
0.0130908 -0.00773758 -0.0332827 
1.99953e-05 0.000833424 0.0177845 

-0.110135 -0.0482072 0.625044 
0.0454014 0.103631 -0.199831 
0.000287751 -0.0141375 -0.0179431 

0.0554524 0.0700306 0.0303233 
-0.0884583 -0.0108053 0.000613201 
-0.00823754 0.00813328 -0.00560406 

-0.0145915 -0.000881981 -0.0293403 
0.000930381 0.00237563 -0.00143065 
0.00106634 -0.000622445 0.0148007 

-0.000171104 -0.00183832 -0.0316375 
0.0342027 -0.022572 -0.0653222 
0.00575836 0.00199567 0.0112998 

-0.0209143 -0.00992635 -0.0330982 
0.00211699 0.00122985 0.0282987 
0.00586014 -0.00320838 0.0239752 

-0.0824004 -0.0506645 -1.17757 
0.135883 0.089551 2.759 
0.00549026 -0.0112884 -0.105445 

0.0423715 -0.0261964 -0.0839433 
-0.0805911 -0.0672825 0.0196181 
-0.00299592 -0.00196918 0.0304158 

-0.0446845 0.0268749 0.0866735 
-0.0300267 0.027466 0.145473 
0.029969 0.00713805 -0.0726928 

-0.189675 0.186831 -0.694133 
-0.0401674 0.147889 -0.681773 
0.0117864 -0.00701498 0.158429 

-0.0755025 0.0345294 -0.236457 
-0.0487301 0.0617873 0.0692906 
-0.00161372 -0.00010298 -0.0320158 

-0.076658 -0.0259871 -0.225147 
-0.0132434 0.00970371 0.0508037 
-0.00217288 -0.00845861 0.0622309 

0.00193704 0.0100534 0.206706 
0.0211422 0.0250967 0.17912 
-0.00159769 -0.00176007 0.0345534 

0.0413173 -0.0904665 -0.127192 
0.0723704 -0.107579 -0.618453 
-4.14827e-05 0.00240228 0.0129286 

0.00787824 -0.0838448 0.484992 
0.0838127 0.00283107 -0.329519 
0.0047851 0.0179621 0.379754 

0.00736056 -0.0210837 0.0450541 
-0.0191795 -0.0067973 0.0396926 
0.00131576 -0.000941373 -0.0251936 

0.00773316 -0.00462718 -0.0326709 