# vtk DataFile Version 3.0
Output file generated by Yade's KinematicLocalisationAnalyser
ASCII
DATASET UNSTRUCTURED_GRID

POINTS 13483 float
638.026 29.614 -0.41251
807.801 59.4184 -0.554456
124.566 6.05805 -0.473286
833.983 5.20674 0.275947
520.104 7.72286 -0.283439
327.107 35.2623 -0.454362
162.469 6.85974 0.426034
595.42 10.6533 0.103344
517.295 23.3468 -0.158941
755.111 14.1182 -0.374346
218.543 8.75727 -0.115816
266.904 6.27108 -0.268905
684.753 30.9926 0.159968
664.622 15.497 0.0908052
142.225 17.3745 -0.452924
229.946 34.5195 -0.39001
225.937 12.8973 -0.260548
300.282 9.54641 0.379473
354.683 32.8486 0.445429
546.95 8.49954 0.368325
428.004 35.9749 0.105201
617.808 44.9674 0.265016
832.821 42.3987 -0.510227
732.832 48.6735 -0.0500858
477.815 16.3847 0.290502
250.194 44.1685 0.123027
512.049 27.9572 -0.460185
612.381 20.4472 0.285109
46.7379 15.8537 0.46312
754.038 37.354 -0.316959
502.451 4.8308 0.330863
17.0324 23.2107 0.278432
821.603 58.6433 0.264175
515.982 2.48637 0.480319
81.2686 44.255 0.100311
544.291 30.4143 0.32437
553.543 16.5433 -0.413663
357.579 22.3257 -0.169096
557.517 25.7467 -0.302876
365.298 33.7889 -0.391238
250.657 14.3865 -0.313829
452.659 37.4606 0.0785116
709.615 6.4865 0.18038
200.249 6.19152 0.375407
57.5444 7.02336 -0.108487
71.1592 8.97158 0.287884
726.149 8.50974 -0.552896
24.4658 11.7855 0.276138
639.432 46.0183 0.384556
712.119 26.5496 -0.321629
178.923 32.5158 0.298931
798.912 46.6578 0.125637
36.4258 27.9334 -0.11163
557.517 3.02387 0.317194
147.53 7.19528 -0.475461
620.993 34.2107 0.379209
525.455 27.3774 0.137249
181.708 0.960644 0.262407
34.1173 2.42215 0.290712
363.048 17.8224 0.260075
651.417 48.5468 -0.13554
481.77 34.3676 -0.171196
416.133 1.03517 0.193465
735.661 8.00847 -0.404326
27.7247 42.8197 -0.235269
266.961 30.1234 0.291753
755.418 9.06513 0.266979
707.577 49.736 0.41119
435.426 8.59232 -0.491895
596.204 3.85369 -0.312089
785.128 38.7582 0.39071
135.778 7.67614 0.273931
520.164 25.2119 -0.135523
498.205 14.9463 -0.130884
306.616 16.6535 -0.341253
21.4786 13.5815 -0.272467
822.97 49.5295 -0.3193
346.445 38.9738 -0.293759
709.931 25.7314 0.357757
724.908 13.8994 -0.228375
825.329 18.8764 -0.23381
485.257 34.9821 -0.166314
96.4233 38.4903 -0.269629
722.141 39.6714 -0.222105
684.351 41.6298 0.0906379
837.514 47.4171 -0.106688
820.208 0.694366 -0.58823
302.951 28.4521 0.475281
653.812 6.25006 -0.108933
25.3197 5.28118 0.499214
138.418 38.7309 0.145096
536.37 13.8236 0.201217
808.591 34.5412 -0.519363
203.543 28.4346 -0.250899
46.3139 34.4694 -0.286469
514.893 1.15698 0.129083
245.516 8.75104 -0.39308
782.465 57.0362 0.0872478
800.799 31.0115 0.2419
377.281 20.5534 -0.270912
170.696 26.8724 -0.443831
576.143 41.5899 -0.493023
396.804 15.162 -0.47506
432.981 29.1221 -0.0941712
394.961 4.42427 0.406082
574.236 10.7251 -0.095003
839.756 11.6659 0.182771
83.5985 39.2512 0.380586
350.231 4.82311 -0.180908
588.797 9.57845 -0.403
376.331 44.2873 0.439106
26.5409 24.3403 -0.47002
31.7766 5.68811 0.307528
595.392 34.2271 0.403932
528.818 25.2246 -0.144166
27.5815 36.728 0.420434
97.2863 30.7074 0.223245
339.597 15.8753 -0.287918
632.097 18.4218 -0.111246
497.642 38.3832 0.291783
771.383 9.91215 -0.384249
764.089 6.14083 0.201389
405.182 37.0119 -0.0992475
669.024 27.8019 -0.0926496
248.943 17.133 -0.481926
345.252 3.70832 0.462152
107.924 31.802 0.31656
121.703 24.6088 -0.262643
571.328 40.8669 -0.067958
320.383 18.9691 0.482087
749.032 39.7494 -0.106339
712.183 49.9177 -0.11511
504.929 19.9067 -0.381608
807.301 11.5223 0.344872
450.391 23.8205 -0.224558
289.891 24.3871 -0.292687
712.02 38.1501 -0.278526
292.096 29.1656 0.379974
606.971 12.0504 0.182255
348.061 35.9571 -0.192546
530.083 11.3171 0.495553
384.584 31.5634 -0.0844492
452.426 16.7191 -0.100764
333.461 42.0382 0.434896
199.518 29.7839 -0.118976
812.425 58.0295 0.170555
836.719 13.4338 -0.26341
6.09152 12.0375 -0.449989
456.054 22.6291 -0.399234
40.2109 22.3956 -0.0823555
395.123 31.3753 -0.485099
415.035 24.586 -0.260456
78.3422 11.9406 -0.512522
54.3217 33.7625 -0.441105
236.812 13.5187 0.438499
653.576 42.3201 0.422088
609.586 21.3751 -0.427893
78.1828 21.3223 0.497648
736.83 50.7693 0.406074
794.827 2.12646 -0.550364
701.515 43.8311 0.48525
731.737 1.99376 -0.520651
580.244 28.8536 -0.431014
619.429 44.9912 -0.448263
539.391 18.1101 -0.374298
832.518 3.84702 0.227891
234.47 24.9694 -0.132342
133.999 35.5881 -0.188863
259.445 6.61247 -0.374736
99.1332 4.18277 0.280299
67.3824 9.98386 0.221422
289.955 36.287 -0.306829
17.2752 25.0974 -0.35408
586.563 19.9994 0.42587
639.976 40.9649 0.224473
487.499 21.375 -0.370134
833.887 62.444 -0.363644
428.363 8.50654 0.0849015
459.025 38.0668 -0.438049
566.172 3.45641 -0.186604
23.8329 23.9055 -0.398771
608.917 4.49737 0.445167
576.316 4.26211 -0.298235
216.687 11.1979 0.479655
448.138 16.113 0.190943
327.562 6.23139 0.352096
408.635 18.9535 -0.327072
775.425 50.3091 0.0960414
201.702 25.644 -0.422306
816.089 6.41852 0.338049
776.861 46.7726 -0.321913
403.729 10.2506 -0.157894
752.994 2.4046 0.413846
641.321 24.794 -0.40977
775.668 22.2372 -0.413401
454.08 44.507 -0.277864
524.483 12.626 0.396289
490.777 44.8451 0.218297
470.01 8.836 -0.14741
705.24 43.5227 0.277646
703.385 39.7903 -0.313974
202.019 38.8511 -0.27895
823.175 19.2916 -0.113104
621.751 45.6116 -0.249292
11.835 16.9009 -0.176247
430.358 24.9524 0.329593
196.722 23.0903 0.41539
98.0514 39.5559 -0.207621
806.182 30.7463 0.514249
698.652 48.8661 -0.230645
336.27 25.5242 0.349966
562.96 10.2541 0.311313
86.5758 44.3779 0.165688
260.741 25.6861 -0.470338
587.917 24.9101 0.385072
513.811 19.4302 0.381978
276.635 0.898225 -0.343832
585.072 42.9836 -0.384021
564.264 41.8985 0.477382
508.807 33.5853 0.381219
527.31 0.793007 -0.50511
741.704 20.6173 -0.446604
188.847 12.0201 -0.170685
529.028 37.0758 0.443369
596.963 41.0401 0.13442
76.7072 0.914594 -0.257754
265.048 4.65762 0.179234
836.583 15.5072 0.188775
826.111 20.6261 -0.438426
841.853 19.1433 -0.476504
319.876 8.53557 -0.235872
783.82 25.2358 -0.413748
429.819 41.0409 0.355611
474.247 0.80516 -0.396604
689.364 38.1263 -0.405133
28.4552 30.3328 0.324379
348.598 40.7752 -0.474104
265.969 2.81531 0.322529
825.471 57.3618 -0.187994
747.651 53.231 -0.238818
302.982 10.8413 0.226619
704.608 32.8617 -0.0835706
590.859 2.59728 0.225162
574.012 6.33944 0.425852
101.908 18.45 -0.500751
319.712 1.03254 -0.223667
362.132 2.2897 -0.352062
14.7444 7.63852 -0.347235
4.53885 31.394 -0.24977
170.571 18.8888 -0.361565
72.0077 41.5542 -0.217975
70.2911 28.8383 -0.317638
447.802 14.3956 -0.408389
387.692 35.1951 -0.41287
799.569 48.8411 -0.112779
20.6408 4.03457 -0.26591
74.3018 6.95886 -0.127522
663.409 40.6854 -0.161713
310.841 0.916964 0.354011
384.969 15.9447 -0.106692
248.321 4.65368 -0.381027
691.942 22.8628 0.181288
477.287 8.57492 0.410997
785.78 23.0516 -0.408065
667.991 31.0609 -0.31321
709.026 20.3362 -0.0733117
445.272 26.5449 0.466151
107.794 45.0852 -0.30632
574.389 45.1942 0.0719241
771.718 18.2406 0.215072
250.833 30.2475 -0.234711
33.6487 16.5574 -0.170515
355.186 13.8243 0.480746
113.466 40.5326 -0.488075
282.557 42.485 -0.199289
449.912 1.09579 -0.22761
816.968 42.8201 0.43322
725.51 0.741459 -0.519743
350.806 3.20368 0.520913
316.663 26.8095 -0.144586
489.367 41.7098 0.215701
85.912 7.90306 0.400556
208.571 44.8013 -0.37838
800.692 37.7185 -0.411478
524.149 39.4892 0.0764985
210.988 40.9412 -0.262338
169.407 42.355 0.29225
841.306 40.7282 -0.463524
838.068 12.1257 -0.568189
643.702 2.71223 -0.476344
200.348 24.4213 -0.0917491
582.315 30.3454 -0.106002
583.45 28.6216 0.26727
433.058 5.60013 -0.134266
509.719 0.921653 -0.292859
797.32 51.7941 -0.463071
89.7858 30.932 0.216145
697.071 18.9887 0.520895
289.614 15.4153 -0.348156
10.3752 2.3023 0.347262
132.519 37.3696 -0.192355
70.4128 22.9123 0.476839
740.361 37.5456 0.297356
824.936 67.6845 0.176434
195.702 28.3394 -0.181853
832.205 14.7397 -0.481213
47.654 36.7173 -0.257068
95.9877 29.0569 0.158185
673.453 14.552 0.413151
438.032 18.0087 -0.467969
550.135 16.6197 0.101813
251.458 28.3521 0.19149
661.34 4.36896 -0.456067
841.733 11.1325 0.461503
31.5057 31.4377 0.273959
285.332 7.64687 0.187188
234.378 15.2338 -0.24665
1.09451 36.0867 0.14791
237.961 14.7895 -0.355504
223.5 10.864 0.123232
225.968 26.0629 -0.281088
140.233 28.1564 0.129008
580.954 15.2529 0.326228
176.371 14.1741 -0.341653
819.196 56.3073 -0.220086
183.837 3.93307 -0.488344
49.9811 38.0289 -0.388169
773.563 61.6985 -0.425837
297.359 32.1268 0.377031
717.033 27.9402 -0.487489
820.993 40.1131 -0.486597
317.905 9.17746 -0.106571
776.12 36.7744 0.342583
347.597 2.60284 -0.372603
441.714 23.9545 -0.38407
713.601 17.0569 0.430474
111.377 11.5697 0.483959
511.419 3.88047 -0.484528
788.57 20.3396 0.170149
93.3124 7.67761 -0.221577
297.754 14.6999 0.184844
448.828 11.597 -0.216535
831.395 2.54024 0.613158
421.221 1.95785 -0.517994
186.395 39.1914 0.285411
773.956 14.5784 -0.318476
135.799 36.7445 -0.204707
278.318 31.4619 -0.37608
424.238 21.431 0.217001
609.786 13.8007 -0.307941
409.822 9.89881 -0.427085
483.54 28.1161 -0.436893
808.576 60.2555 0.395004
50.309 10.9988 0.128538
316.401 38.3748 -0.265972
401.736 26.1018 -0.41634
434.351 20.7434 0.248547
552.476 44.4865 0.356388
790.333 52.1862 0.205208
708.578 39.6786 -0.351161
238.273 34.2726 0.403082
14.4185 31.5593 0.15972
701.348 40.0511 -0.119452
540.531 42.2049 0.435354
242.706 38.9534 0.0911961
721.985 35.0338 0.106294
159.642 9.28641 -0.19102
389.678 21.8554 0.262128
491.182 42.719 -0.106632
438.994 19.4712 0.197793
804.723 61.0197 0.294789
451.457 3.38919 0.442845
52.4864 25.3327 0.304102
497.943 32.0383 0.350614
460.893 42.8297 -0.353921
821.998 51.1663 0.244212
772.921 37.3361 -0.221644
575.073 18.556 -0.160618
813.634 51.1419 0.428768
310.352 2.20754 -0.46071
401.772 29.1414 -0.460318
30.7568 38.5567 0.296911
779.189 37.6076 0.142495
648.529 20.1655 0.46138
490.451 0.784186 -0.467569
133.184 4.54445 0.274481
452.089 41.7225 -0.103052
12.8867 0.909123 -0.312677
829.921 6.84473 -0.202458
[...]
POINT_DATA 13483
TENSORS Strain_matrix float
-0.0525271 0.0431383 0.398712 
-0.0637545 0.0468683 -0.248995 
0.00667147 -0.0165559 -0.00696338 

-0.0602507 0.0563316 -1.16607 
0.00216442 0.041778 4.59719 
-0.00271352 -0.000510525 0.621819 

-0.0239695 -0.00883256 -0.95482 
0.00361305 0.0257835 0.496737 
0.0230068 -0.00392132 -0.020053 

-0.136802 -0.00280476 -0.0854838 
0.0233939 0.128644 -0.527174 
0.0198656 -0.046383 0.540125 

-0.0226091 0.0226655 0.016741 
-0.012138 0.0103067 0.00691102 
-0.00395487 0.00208052 0.0304758 

-0.0105144 0.00736977 -0.112833 
-0.00253603 0.00233946 -0.0205744 
-0.00161511 0.00402199 0.0856107 

-0.0181726 0.00367477 -0.0461275 
-0.00325514 0.00764464 -0.0123628 
0.000508333 -0.000221903 0.0105648 

0.00178389 -0.0306514 0.0199743 
-0.0118922 0.00794497 -0.0428146 
-0.00387236 -0.00434865 0.00577989 

-0.032758 -0.015691 0.0587271 
-0.0167589 0.0205971 -0.13501 
-0.0326993 -0.00439265 0.348347 

-0.0639065 -0.150581 -0.131898 
-0.00601102 0.0330955 -0.148208 
0.0413158 -0.0142587 0.698926 

-0.00703446 -0.00257311 0.000589246 
0.00609955 0.00109823 -0.00133984 
0.000141062 -0.000928493 0.0133668 

-0.0093658 -0.0030005 0.0137397 
0.00301054 0.00429164 0.00718429 
0.000776458 0.000141561 -0.00356582 

-0.0540873 0.100001 -0.0711885 
-0.178833 0.0668139 0.175969 
-0.0139995 -0.00504961 -0.0120079 

-0.00158645 -0.0416231 0.017413 
0.0957419 0.021009 -0.0617401 
0.00352662 -0.00504877 0.0214449 

-0.0084905 -0.0373191 -0.0702202 
0.0189525 -0.0137622 0.293523 
0.00038836 0.00196915 0.0252979 

-0.00828522 -0.00454753 -0.0613418 
0.012852 0.00735013 -0.0512207 
0.000115857 -0.000724102 0.0330072 

-0.00602409 -0.00608311 0.00819451 
0.0045902 0.00171428 0.00473551 
3.16038e-06 0.00038589 0.00352247 

-0.0135943 -0.0118079 -0.0302102 
0.00337477 0.00871762 0.00430531 
0.0359985 -0.00243993 0.254062 

-0.00405636 -0.0106991 -0.0279505 
0.00277276 0.000749722 0.0557349 
0.000293906 0.00120414 0.00356101 

-0.0123818 0.0051999 0.0135819 
-0.00728656 0.00176593 -0.0136605 
-0.00162781 -0.0010962 0.0230172 

0.00502654 -0.0690642 0.0924751 
0.0194758 0.0195128 0.141309 
0.0330089 0.022537 0.154195 

-0.0365937 -0.0376142 0.0120373 
0.0179921 0.0254411 0.161134 
0.000260542 -0.00109764 0.0250166 

0.0435956 -0.0746616 -1.25055 
0.0456741 -0.00285278 1.02926 
-0.000988056 0.00139781 0.331187 

0.131407 0.652549 0.00148708 
-0.923754 0.444149 -0.0351613 
0.0712829 0.0781625 0.317414 

-0.0252462 0.0308227 0.0142204 
-0.0581726 0.00670962 0.0647055 
0.00871936 0.00205597 0.0926408 

-0.0131593 0.00686396 -0.0508614 
-0.0119023 0.00686503 0.0124178 
0.0145672 -0.0143961 0.0665406 

-0.00745502 0.0181334 -0.549435 
-0.0246938 0.0118493 -1.86159 
-0.000282067 0.00357011 0.261246 

-0.0314417 0.0349045 -0.0778831 
-0.047762 0.0483593 -0.0152027 
-0.00224973 -0.00326481 0.0793028 

-0.0158189 -0.00846828 0.108064 
0.00404396 0.011683 -0.049068 
0.00131355 -0.00042026 0.049102 

-0.301133 -0.240758 0.0118004 
0.0207828 0.150141 0.188933 
-0.0714095 -0.0342639 -0.0213049 

-0.0168498 0.00698375 -0.0235561 
-0.0134659 0.00523035 -0.00292585 
0.00104386 7.29037e-05 0.00705629 

-0.0552445 0.000916822 0.091286 
-0.0541767 0.076655 -0.072514 
0.00174174 -0.000311252 0.0222604 

0.0141842 -0.067713 -0.0974797 
0.0983651 -0.0243474 0.012795 
-0.00202854 -0.0264829 0.460983 

-0.0227266 0.0156289 -0.222647 
0.00527636 0.00615793 -0.00463082 
0.000804417 -0.00271948 0.0589447 

0.000149705 -0.00378405 -0.0271083 
0.00678953 0.00488042 -0.00471474 
-0.00120718 -0.000944239 -0.00409783 

-0.0125858 0.0460217 -0.0441971 
-0.0280331 0.0130031 0.0528704 
0.00127848 -0.000135313 0.00494194 

-0.0214873 0.0174727 -0.108072 
0.00435091 0.0144202 -0.245702 
0.00016674 0.00197494 0.010679 

-0.0347042 -0.0344822 0.0723032 
0.0037713 -0.0101861 0.102517 
0.000681906 -0.00103405 0.00351584 

-0.0284134 0.0213819 0.12198 
-0.00588396 -0.00282672 0.0294829 
0.000636489 0.00094067 0.0298214 

-0.0204981 -0.0426596 0.12555 
0.092181 0.0472211 -0.328251 
0.0378363 -0.0121831 -0.196963 

-0.00890068 -0.0188502 0.0309802 
-0.0123015 0.00594163 0.0358423 
0.000667034 0.00190658 0.00350485 

-0.0507379 -0.0169004 -0.00150091 
0.0650856 0.0366888 -0.104515 
-0.0227435 -0.0102769 0.240819 

-0.105985 0.120424 -0.114572 
-0.0969727 -0.0166039 0.0978632 
0.00781256 -0.00845839 0.106589 

-0.00914555 0.000321526 0.0305751 
-0.000921086 0.00579797 0.00994004 
0.00246411 -0.000575345 0.0215317 

-0.0204147 0.00955475 -0.00871731 
-0.0140017 0.0104642 -0.00253646 
-0.00156869 -0.000723294 0.00964628 

-0.0136648 -0.00868371 -0.0303533 
0.00283311 0.00617691 0.00455792 
-0.000703903 0.000644735 0.00684296 

-0.148284 -0.0131143 0.28847 
0.0338028 0.0580391 0.295691 
-0.0365139 0.0295167 0.113639 

-0.00962282 -0.00851787 0.00564163 
-0.000910755 0.00578797 0.00463643 
-0.000678612 -0.00163927 0.00554889 

-0.0329103 -0.158627 -0.344827 
0.158742 0.0329288 0.0945395 
0.0097113 -0.0382362 -0.515278 

-0.0862372 0.184184 -0.20785 
-0.206116 0.288712 -0.483108 
0.014987 0.010975 0.0372859 

-0.0151325 0.000927222 0.114119 
0.0135036 0.0079592 0.0322905 
-0.000670536 0.000300575 0.00551801 

0.095593 0.0912975 -0.931484 
-0.144426 -0.072481 0.359946 
-0.0300189 -0.00751209 0.103219 

-0.0106013 0.0147744 -0.0273035 
-0.0110138 0.0229286 0.0541151 
0.000372204 0.00022643 -0.00159656 

-0.0163977 0.00504471 0.0183154 
-0.00329875 0.00568073 0.0101213 
2.13039e-05 -0.00102941 0.00458213 

-0.0157628 -0.00147317 0.0191932 
0.000723384 -0.00295359 -0.0276769 
-0.00130113 -0.000641632 0.0187074 

-0.058699 0.00405066 0.0868837 
0.0228533 0.0412166 0.282805 
0.0028584 -0.00586776 0.0669317 

-0.00453257 0.00658192 -0.00102443 
0.00312543 0.00504105 -0.0283011 
7.25043e-06 0.000727001 -0.00932952 

-0.00970725 -0.00473445 0.0365859 
0.000276529 0.00211982 0.00860895 
-0.000185932 -0.00168701 0.00648647 

-0.00854467 -0.00150287 0.0197429 
-0.000491879 0.00125885 0.0114472 
0.000401451 0.000120063 0.0118376 

-0.00283008 0.0109276 -0.0718383 
-0.0105453 -0.000778413 0.112082 
0.00132871 0.000892847 -0.00266708 

0.0371392 -0.0096223 -0.210378 
0.116735 -0.159671 0.255559 
-0.00346713 -0.00058157 -0.00879525 

-0.0184654 -0.0506951 0.147062 
0.0591013 0.016497 -0.176585 
-0.00289432 -0.00477775 0.017167 

-0.00897999 -0.0101604 -0.0530357 
-0.00083847 0.00119451 0.000565988 
2.86581e-05 9.41073e-06 0.00142684 

-0.108794 -0.0137777 -0.0590807 
-0.0973808 0.0679799 -0.619889 
-0.00725132 -0.00443431 0.0349752 

-0.0306866 0.0154237 0.011308 
-0.00429859 0.0144234 -0.0663607 
-0.00042268 -6.9189e-05 0.00726077 

-0.0122523 0.0115604 0.0127321 
0.00455646 0.0237299 -0.00467692 
-0.00147367 -0.000413643 0.00192711 

-0.0476625 -0.0609917 -0.0363298 
0.0426829 0.0254819 0.0471054 
-0.00124157 -0.00189054 0.041182 

0.00542799 -0.109564 -0.136422 
0.0632687 0.0337293 0.829072 
0.00682464 0.0175991 -0.0467778 

-0.0168312 0.00423769 -0.0444367 
0.00333017 0.00756698 -0.0701401 
-0.00157779 0.000571191 -0.00413204 

-0.053634 0.0803963 0.216757 
-0.0635168 0.027458 -0.109912 
-0.0434722 -0.00327533 0.131007 

-0.326809 0.171254 1.10852 
0.133735 0.287023 0.168643 
0.00781801 0.00185955 0.103055 

-0.0138815 0.00264392 0.00212642 
-0.00730615 0.00727711 -0.00995385 
3.75098e-05 -0.000872737 0.00873762 

-0.00933358 0.014849 0.102225 
-0.0017935 0.0072411 -0.00566875 
0.00673055 0.0324866 0.251728 

-0.0245114 -0.00301643 -0.0322091 
0.0298029 0.00841124 -0.199372 
0.000795261 0.00107049 0.0299024 

-0.00777157 -0.00555238 -0.0311593 
-0.00284714 -0.000391038 -0.0595757 
0.000374151 0.000777791 0.0553175 

-0.0139454 -0.00248288 -0.00258775 
0.00393318 0.00540301 -0.00354175 
0.00118154 -0.000159262 0.00868143 

-0.318346 0.724723 -3.14966 
-0.415874 0.418447 -2.37053 
-0.0130369 0.014573 0.0992645 

-0.011296 0.0152367 -0.0364513 
-0.0236513 -0.00478814 0.0539956 
-0.000552611 -0.000776288 0.031903 

-0.0222138 0.0562043 0.21684 
-0.0521476 0.12795 -0.0763571 
-0.00920229 -0.0457202 0.0645313 

-0.048172 -0.0761724 0.390193 
0.0943116 0.0118765 0.651485 
0.031731 0.00818428 0.196991 

0.0198866 0.123407 -0.839121 
-0.173154 0.0375439 0.419413 
-0.013181 0.00428551 0.122047 

-0.0298826 -0.0544617 0.270141 
0.0336458 0.0174755 0.698991 
-0.00195264 -0.00180202 0.0980479 

-0.00486167 -0.0127314 0.027891 
0.0127568 0.00350606 0.0169214 
0.000302365 0.000783962 0.010965 

-0.458801 0.556045 -0.130069 
-0.273802 0.576968 0.723887 
-0.0622699 0.0296827 0.213474 

0.0338335 -0.0606513 0.0270976 
0.0769975 -0.00615869 -0.00607727 
-0.0018794 -0.000977475 -0.014814 

-0.136909 -0.232829 0.542752 
0.0720018 0.153545 -0.203162 
0.0320466 -0.0151535 0.135099 

-0.716744 15.2831 19.3388 
-0.00688421 0.445884 -0.368274 
0.0127373 0.30877 -0.343611 

-0.0649247 0.0381238 -0.465009 
-0.0145565 0.0539006 0.0520112 
-0.000817151 -0.000887818 0.053046 

-0.0136778 0.00344171 -0.0311459 
-0.0136409 -0.0139952 -0.000124279 
0.00199092 -0.00130497 0.0390168 

-0.0167362 0.0123867 -2.21903 
0.00152288 0.00583704 0.464102 
-2.72673e-05 0.000407026 0.0292247 

-0.0258841 -0.0327249 0.0152823 
-0.0306356 -0.0126292 0.0227902 
-0.0147033 0.00335013 0.0929514 

-0.00340191 -0.0119569 -0.0103467 
0.00508966 0.000762686 0.0325241 
0.00275835 -0.000676688 0.0290256 

-0.195138 -0.284457 -1.60687 
0.00084948 0.129354 -0.144408 
0.0217644 0.0150678 -0.123928 

-0.0236074 -0.00970748 -0.0204744 
-0.0232812 -0.0297017 -0.0333904 
-4.75512e-05 -0.000612399 0.0191596 

-0.0154367 0.0134285 0.113211 
0.00191984 0.0193909 -0.0824427 
0.00952796 -0.0168181 -0.306932 

-0.0208138 0.0317407 -0.0388793 
0.00321881 -0.0101877 0.0253627 
0.000642746 -0.0078164 0.0263979 

-0.0118896 -0.00524522 0.0038463 
-0.00159216 0.00273228 0.0843393 
-0.000398032 0.000708648 0.0129943 

-0.0191369 0.100186 0.387857 
-0.00452432 0.112468 0.427547 
-0.103879 0.0148824 -0.0003718 

-0.423857 -0.159023 -2.93688 
0.0659332 0.379908 1.32369 
-0.000487851 -4.60141e-05 0.0145802 

-0.0162235 -0.00341079 -0.046617 
-0.0170897 0.0329371 -0.258903 
-0.00163598 0.00327163 -0.00552483 

-0.00468574 -0.00688759 -0.29446 
0.000374925 -0.000395583 0.242306 
-0.000698414 -0.000607859 0.0258159 

-0.0286319 -0.0165276 2.88761 
0.0180196 0.0164737 3.25799 
-0.00118881 0.00296981 -0.209548 

-0.010661 -0.00506958 -0.0336072 
-0.00563368 0.0110364 0.132928 
-0.000624924 0.000275163 0.0400927 

-0.00611185 -0.0170149 0.126059 
0.0447368 0.0216681 0.0621646 
-0.00177944 -0.000687658 -0.0136807 

-0.0130915 -0.00212447 0.0258056 
0.0026452 0.00772522 -0.00274977 
-0.000576472 0.000281766 -0.00130172 

-0.0111036 0.0171584 0.00902315 
-0.0120021 0.00180909 0.0110693 
-0.00105761 -0.00054884 0.010382 

-0.141789 -0.0652302 0.102498 
0.0701538 0.232836 0.344652 
0.0133155 -0.0156449 -0.024879 

-0.0104074 -0.0156804 0.00988011 
0.007853 0.00050179 -0.0665891 
-0.00101878 0.00135975 0.0284895 

-0.0230131 0.0246205 0.044533 
0.00681532 0.00038894 -0.0330725 
0.000809574 0.00178794 0.0278761 

-0.0704255 -0.0448627 0.799523 
0.0584299 0.0194881 -1.07243 
0.00114825 0.000922311 0.0818641 

0.00137958 -0.00571509 -1.87551 
-0.00204515 -0.0660922 -2.43305 
7.21771e-05 -0.00131357 0.0332411 

-0.0645021 -0.0479435 -0.526443 
-0.0336049 0.023572 0.0658972 
0.00089331 0.000535005 -0.00144759 

-0.0115441 0.00149125 0.000841282 
-0.000498603 0.00481467 0.00143586 
0.000435386 0.0012856 0.0110014 

-0.0496053 0.0593346 0.217142 
-0.0260374 0.048149 -0.198142 
0.000988896 -6.33989e-05 0.0363987 

-0.0186342 0.014784 -0.0205601 
-0.0147195 0.0140002 -0.0399586 
0.000266199 6.03579e-05 -0.00120253 

-0.0158031 0.0133989 -0.260345 
-0.00187802 0.00588537 0.149306 
0.00127212 0.00013846 -0.0304524 

-0.018665 -0.0568541 -0.0403363 
-0.00728234 0.0150607 0.106106 
-0.00017923 0.000591493 -0.0287863 

-0.0190372 0.00655748 0.0537078 
0.00682471 0.0249971 0.0209656 
0.00195892 0.00210916 0.00171867 

-0.167416 -0.0109145 -0.0499376 
0.366472 0.146372 0.429067 
0.00223162 -0.00100693 0.00654442 

-0.0127659 0.0479945 -0.050244 
-0.0566524 0.0126903 0.00547515 
-0.00957691 -0.0147774 -0.0706536 

-0.269729 -0.545198 0.0295525 
0.215275 0.422455 0.159922 
0.062133 0.0320694 0.443063 

-0.0542279 -0.0492783 0.146681 
-0.00643402 0.0720608 -0.0356534 
-0.00557887 0.117454 0.502775 

-0.0122673 0.0107518 0.0388745 
-0.00728333 0.00452883 -0.0296041 
-0.000260706 -7.93377e-05 0.0157741 

0.0298514 -0.0232713 0.0661328 
-0.0356902 -0.00741721 0.0458205 
5.53595e-05 -0.00178101 -0.00779418 

-0.025799 0.00794513 -0.531899 
-0.0141307 0.0206773 -0.698772 
0.000167651 -0.000800691 0.0626707 

-0.0113786 0.0121117 -0.151152 
0.002705 0.00713113 0.113144 
-0.00093858 -0.000968475 0.0330837 

-0.00422565 -0.0414999 0.00242186 
0.00815991 0.00892467 -0.0189227 
-0.00100241 0.000327277 -0.0222833 

-0.0328983 -0.0205829 0.0262878 
0.0689731 0.0300385 0.171131 
-0.00431665 0.00154568 0.00215006 

-0.0143923 -0.0632843 0.0080101 
0.0690395 0.0119116 0.0202232 
0.000802098 0.000687668 0.0173777 

-0.0209766 -0.00394589 0.583524 
-0.011157 0.00459584 0.102805 
-0.000481727 -0.00227842 0.110802 

0.0826251 -0.318123 0.0575057 
0.381086 0.0435555 0.273352 
-0.00155285 -0.0199618 0.083642 

0.0486798 -0.118016 -0.125612 
0.293988 -0.0680335 0.0402329 
-0.0805611 -0.01022 0.351161 

-0.062516 -0.0799951 -0.666288 
0.0303936 0.0570446 0.332368 
8.24139e-05 -1.77451e-05 0.0283987 

-0.139572 0.171418 0.00391205 
-0.303097 -0.0149448 0.119614 
-0.00572927 -0.0161783 0.254241 

-0.125571 0.0733239 0.461002 
0.0437853 0.0945833 -0.194287 
0.0107068 0.0103431 -0.0339071 

-0.122883 0.0736465 0.459673 
0.0983335 0.0762088 0.281946 
0.0029219 0.0003816 0.0179797 

-0.290552 0.577727 -1.46349 
0.230444 0.371053 -0.225335 
-0.00389638 0.0134218 0.0427343 

-0.0165161 -0.00330654 0.302791 
0.0162573 0.00192644 -0.406439 
-0.000315102 -0.000310498 -0.00940682 

-0.03934 -0.032359 -0.106111 
-0.132304 0.00892512 0.00450755 
-0.00726598 -0.000708494 -0.00478226 

-0.00547224 0.00514045 -0.0224091 
-0.00910207 -0.00107338 -0.00704038 
0.000577854 -0.000396938 0.0168921 

-0.00708736 0.00639576 0.112862 
-0.00684838 0.00508156 -0.026817 
-0.000204884 0.000717713 0.030286 

-0.00197887 -0.0204353 -0.196046 
-0.205987 0.0674408 -0.123658 
0.0257302 0.00259455 0.0554552 

0.0131955 0.0677595 0.009726 
-0.0212519 -0.0173271 -0.0458972 
0.000349404 0.0015969 -0.00871709 

-0.00612624 0.00646263 -0.0182457 
-0.0066373 -0.00508817 -0.401559 
0.000446851 0.000454761 0.00309755 

-0.0011167 -0.00793548 -0.150242 
0.0247324 0.0292592 0.211523 
-0.000199115 8.30764e-05 0.00158732 

-0.0191966 -0.0272144 0.0260246 
0.0372349 -0.00357934 0.00704204 
-0.00108109 -0.000565304 0.0313428 

-0.101706 0.101795 -0.0171633 
-0.084587 0.120393 -0.117806 
-0.0105132 0.00234022 0.0320284 

-0.0224081 -0.0041414 0.0314029 
-0.00607439 0.0103595 -0.0552009 
1.0297e-05 -0.000168878 0.0190359 

-0.0904935 -0.0941414 1.23241 
0.1806 0.123148 0.0509681 
0.000296149 0.00317336 -0.0194631 

-0.00482457 -0.00792536 0.0101749 
0.0111438 0.0047509 0.00326119 
0.000828234 -0.000499017 0.00175026 

-0.0320488 -0.0131572 1.62211 
-0.0459126 0.00955502 0.637849 
0.0016585 0.00030901 -0.190546 

-0.0113204 -0.00575727 0.00423368 
-0.0116675 0.00694303 -0.0203963 
-0.000242574 0.000184303 0.0123236 

-0.0132721 -0.00373154 0.187611 
0.00653719 0.00899501 0.131529 
7.33071e-05 -0.000457909 0.0403495 

-0.0177732 0.0167165 -0.157335 
0.00530942 0.0141438 0.0267473 
-0.00349118 0.00295147 0.0398806 

-0.00981214 0.0222116 0.374649 
0.0010612 0.0270954 -0.00378179 
-0.00128218 0.000203697 0.106232 

-0.0039772 -0.100813 -0.00910678 
0.089179 -0.00394613 -0.00540338 
0.0303658 0.0176116 -0.184007 

-0.00780263 -0.0203639 -0.191021 
-0.0251016 0.0309762 0.728493 
-0.00342996 0.00296336 0.0293334 

-0.0139306 -0.00844466 -3.82036 
0.0066103 0.00708551 -1.49302 
-2.64848e-05 -8.7813e-05 0.177214 

-1.0274 0.136233 4.80206 
-0.45087 0.736715 2.70511 
-0.0428296 0.0157072 0.134801 

-0.145987 -0.090135 0.910402 
0.166408 0.168931 0.0190904 
0.00778266 0.0207569 0.0839557 

-0.0709871 0.188395 -5.02967 
0.0888005 0.0505864 0.28517 
0.00099479 -0.00168117 0.21625 

-0.151059 -0.0629728 -0.878892 
-0.0846311 0.0408268 -0.315549 
0.0216993 0.035585 0.139265 

-0.062768 0.0179324 0.148263 
-0.0284748 0.0778172 -1.089 
-0.000669843 -0.0028699 0.00425435 

-0.041089 -0.0345363 0.188677 
0.00412634 0.111436 -1.65463 
5.84932e-05 0.000812871 0.145166 

-0.00855475 0.00438927 -0.0938438 
-0.00267774 0.00567524 0.0178324 
0.000984386 0.000676414 0.0116272 

-0.0520243 -0.104417 -0.0115062 
-0.0961508 -0.013126 -0.0935139 
-0.0294417 0.0554966 0.138938 

-0.0182205 0.0044972 -0.0447515 
0.008378 0.00673163 0.0857019 
-0.000181214 0.000165011 0.0135888 

-0.0218283 -0.0458907 0.108542 
0.0161847 -0.0102018 -0.024208 
-0.00342241 -0.00665777 0.0917242 

-0.0109464 0.00314619 -0.0299385 
-0.000974397 0.00404974 -0.016125 
0.000353657 0.000342436 0.0132823 

-0.0373913 -0.00112643 -0.110868 
0.00235721 0.0163805 0.150829 
0.000522385 -0.000822801 0.0655938 

-0.0194956 -0.0069965 -0.0235313 
0.0104716 0.00665845 -0.0413237 
-0.00138441 -0.00108772 0.00895955 

-0.0200495 -0.0243778 0.0162508 
0.0202577 0.0120208 0.109506 
-0.0101626 -0.0228571 -0.153172 

-0.0656371 -0.0479611 0.13997 
-0.0164118 0.0483136 0.523319 
0.000671102 0.00876722 0.0266695 

-0.0294194 0.0039541 1.08099 
-0.0445066 0.0204974 0.151488 
-0.00189117 2.44229e-05 0.0620932 

0.000433367 -0.0478836 -0.0786393 
0.0644489 0.0138213 0.0810156 
0.0104801 0.0544315 0.372898 

-0.00536158 0.0399304 -0.15437 
-0.00576969 -0.00933971 0.32333 
-0.00106401 0.000556735 0.0376001 

-0.477927 0.221564 -0.78483 
-0.64669 0.410214 0.101876 
0.0278444 -0.00754589 0.21823 

-0.00753782 0.00219902 -0.000733461 
0.00551693 0.00509765 0.000788529 
-0.0006685 -0.000134937 -0.00206389 

-0.0191802 0.0244109 -0.344845 
-0.0146027 0.0117533 -0.310504 
0.00190112 -0.000543695 0.0495581 

-0.0372929 -0.0133862 -0.00956602 
0.0166527 0.0114319 0.00966973 
0.00412911 0.000527525 0.0282704 

-0.0226579 -0.0975634 0.121869 
0.0377426 0.018005 0.0430657 
0.00231092 -0.00158785 0.00347476 

-0.0123321 -0.0240158 0.0559923 
-0.0131098 0.00418958 -0.0506902 
-0.00391688 -0.00468436 0.0904007 

-0.0117494 0.00284412 -0.00855097 
-0.0045742 0.00228762 0.0256298 
-0.000514859 -0.000262378 0.0172449 

-0.0104307 -0.00267325 -0.0949677 
0.00411739 0.00290709 -0.254288 
-0.000299363 -0.000266792 0.117876 

-0.00784763 0.0513541 -0.0105533 
-0.0300671 -6.95783e-05 -0.0263352 
0.0012323 -0.00304232 0.0099223 

-0.0144969 -0.00984605 0.00228321 
0.000675357 0.00490615 0.0167035 
0.000264866 -0.000820904 0.01338 

-0.00505065 -0.00188717 0.0140194 
0.00176179 0.000412543 0.0129644 
-0.000203303 5.11884e-05 0.000652193 

0.15281 -0.431585 -0.0372304 
0.530636 0.136469 -0.100069 
-0.0564494 -0.0137102 -0.0690037 

-0.0256295 0.022171 -0.204141 
-0.0158574 0.0173741 0.258709 
-0.000237965 0.000459029 -0.0014286 

-0.249391 -0.0224723 -0.510755 
0.486936 0.200508 0.487559 
-0.00560926 0.0276043 0.263141 

0.122073 -0.447253 -0.206354 
0.503841 0.122827 0.0322875 
0.00638352 0.0403091 -0.187407 

-0.0128385 0.00224329 0.0168916 
0.000752125 0.00572918 0.00717048 
0.00128925 0.000218049 0.00294837 

-0.0140925 0.027606 0.107687 
-0.0156722 -0.00111571 -0.0422614 
0.00203886 0.00447753 0.00572064 

-0.141481 0.159137 0.506994 
-0.0924063 0.116142 -0.488488 
-0.00208637 -0.0130464 0.0621355 

-0.0475423 0.000522696 0.362353 
-0.0403441 0.0253229 0.0460169 
-0.00403408 -0.00136573 0.0988608 

0.00899468 -0.0250733 0.0193597 
0.0544657 -0.00840193 -0.000350122 
-0.0019392 -0.036591 0.712834 

-0.0335435 0.0305723 -0.065801 
0.0208898 0.0292754 -0.435288 
-0.0680663 -0.0540323 -0.0108935 

0.00234638 0.0170927 -0.0188136 
-0.00969956 -0.00727132 -0.0171517 
0.00140643 0.00231498 -0.00322391 

-0.0674249 0.039839 0.0703464 
-0.0163991 0.0326951 0.0217853 
-0.0327073 -0.0192796 0.288918 

0.0199373 -0.00363765 -0.833778 
0.0625463 -0.0239539 -0.437965 