# vtk DataFile Version 3.0
Output file generated by Yade's KinematicLocalisationAnalyser
ASCII
DATASET UNSTRUCTURED_GRID

POINTS 13483 float
615.649 28.2281 0.58608
765.534 70.9333 0.442979
120.442 6.07239 -0.468446
794.901 5.42762 0.446783
503.822 7.8336 -0.253599
316.53 35.0974 -0.467857
156.848 6.93891 0.44276
577.06 10.2532 0.155307
500.31 23.7358 -0.201564
733.281 11.3509 -0.576525
211.257 8.80911 -0.082056
258.314 6.30016 -0.257937
665.037 29.883 -0.2111
643.769 15.6828 0.0824072
137.585 17.2898 0.429348
222.189 34.7382 0.409384
218.599 12.9515 -0.286088
290.481 9.70407 0.396938
343.134 32.8062 -0.531584
529.168 8.56391 0.351979
413.836 36.7266 0.0980598
598.982 44.8188 0.284028
791.705 35.8078 -0.589418
711.217 45.969 -0.515046
462.831 16.3359 -0.351198
241.952 44.3994 0.138964
495.311 27.7632 -0.495575
594.353 19.9542 0.226286
45.2662 15.6278 -0.373065
727.687 30.2525 0.379532
486.798 5.04043 0.361746
16.5182 23.7405 -0.317985
779.767 73.5512 -0.252572
499.49 2.57239 0.471781
78.2567 44.7085 -0.107234
526.659 30.5158 0.432071
535.831 16.6513 0.426568
346.221 22.7119 -0.220446
539.135 25.5739 -0.317649
352.817 33.5653 0.479285
242.226 14.7094 -0.305658
437.63 35.5148 0.0777671
688.882 7.32111 0.151795
193.274 6.24243 0.34582
55.7126 7.00945 -0.127478
68.9993 8.95689 -0.30958
702.904 12.6423 -0.614847
23.3215 11.6775 -0.270567
620.098 45.7015 0.367506
689.472 28.8985 0.432231
173.285 32.4499 0.326348
767.657 55.4825 0.171024
35.0156 28.3032 0.116536
539.606 3.01048 0.324109
142.626 7.55578 -0.542836
602.585 34.4649 0.440526
508.63 27.1211 -0.173364
175.777 0.941264 -0.272225
32.6954 2.38366 -0.314759
351.351 17.934 0.272253
630.892 47.1612 -0.139265
466.113 33.9306 -0.187682
402.525 1.02744 0.1996
711.709 7.33459 0.517158
26.6032 43.4885 -0.235762
257.737 30.6217 0.285757
733.704 6.28124 -0.212765
680.448 50.1132 0.106783
421.032 8.634 -0.5158
577.807 3.64606 -0.358109
752.285 41.8027 0.384397
131.289 7.73385 0.280456
502.854 26.1323 0.171913
482.291 15.0737 -0.164863
296.677 16.7545 -0.346702
20.5613 13.6783 0.299627
789.997 68.7701 0.34139
335.351 38.9761 -0.299782
688.908 21.7064 -0.365323
702.755 16.349 -0.255418
781.625 13.689 0.361419
469.554 34.705 -0.166512
92.7799 38.9158 -0.275463
698.695 39.3559 -0.267828
661.467 41.7276 0.153207
799.25 43.3564 -0.135394
775.205 0.676229 -0.536101
293.382 28.7873 0.466557
633.177 6.92573 -0.107838
24.2839 5.27511 -0.56169
133.659 38.5673 -0.164867
518.381 14.8698 0.260722
786.44 56.3526 -0.508931
196.951 29.0136 -0.230956
44.5156 34.4359 0.309076
498.344 1.29983 0.124997
237.58 8.97635 -0.375373
748.647 53.5106 0.270629
774.624 50.4322 0.273312
364.881 21.2481 -0.264093
164.962 26.9679 -0.465723
557.814 38.5408 0.431664
383.903 15.6914 -0.443806
418.001 29.6726 -0.0907995
381.88 4.50181 0.404024
555.771 10.9779 -0.0957994
798.519 13.2878 0.163118
80.5464 39.6574 -0.396486
338.913 5.01417 -0.20619
570.436 9.57371 -0.367212
364.152 44.0036 0.451849
26.0437 25.2879 -0.500084
30.3797 5.77659 -0.328381
578.734 32.2435 -0.23518
511.437 24.6397 0.138838
26.5469 37.3475 -0.431519
93.8609 30.9721 0.229605
328.669 16.0271 -0.277676
612.346 18.9581 -0.144063
481.799 38.3778 0.310556
751.43 9.31745 -0.501936
743.657 6.41691 -0.182293
391.851 37.2578 -0.10572
649.981 26.846 0.126315
240.701 17.1451 0.4916
334.281 3.89076 0.456186
104.359 31.7344 0.378625
117.524 24.5189 0.295362
553.048 38.7946 -0.096083
309.914 18.931 0.458774
725.354 35.5334 0.181295
684.798 48.1432 0.114984
487.801 20.6612 -0.439651
785.901 38.9287 0.251921
434.913 23.3251 -0.246812
280.037 24.4112 0.295106
687.908 36.0236 -0.28945
282.366 28.4459 -0.440047
588.636 12.1974 -0.198417
336.489 35.6947 0.207267
512.901 11.3489 0.480396
371.98 31.7188 0.0913421
437.03 16.7551 -0.109061
322.597 42.1147 0.429782
193.127 30.0364 0.136194
770.153 70.0828 -0.16022
794.576 13.6485 -0.329988
6.07523 12.5474 -0.486877
441.13 22.4036 -0.425621
38.5731 22.6427 -0.0918258
382.197 31.3547 -0.300221
401.224 24.9972 0.258678
76.0171 12.0896 0.498454
52.3656 33.306 0.422717
228.93 13.5804 0.419554
632.631 39.2494 0.500657
590.787 21.0854 -0.49925
75.904 21.1609 0.440546
714.131 48.3088 -0.500922
772.316 23.1696 -0.503145
674.504 45.0369 -0.479217
707.281 3.73996 -0.589281
561.963 26.6691 0.428448
600.414 45.5995 -0.450619
521.962 18.2347 -0.410436
792.768 3.13162 -0.167575
226.719 24.9413 0.149703
129.544 35.6049 0.228395
251.162 6.51162 0.388817
95.6228 4.44108 0.281411
65.3517 10.1158 0.199564
280.404 36.0039 0.332239
16.6329 25.4913 0.405903
568.05 19.4645 -0.406654
619.665 40.6158 0.24257
471.659 21.3242 -0.39004
798.094 79.5443 0.366326
414.128 8.65005 -0.110598
444.089 36.1401 -0.399005
548.167 3.40671 -0.197465
23.2018 24.2609 -0.396395
590.979 4.47407 0.484743
558.035 4.35144 -0.315212
209.468 11.2746 0.490882
433.173 16.5479 -0.201919
316.988 6.31156 0.362585
395.354 19.1221 -0.32186
739.733 49.123 0.137997
195.456 25.957 -0.443072
770.247 6.51969 -0.409109
739.808 43.8084 -0.361037
390.527 10.2672 -0.156936
731.173 2.30165 0.452205
619.645 26.3499 -0.469626
754.038 26.9208 0.392234
439.029 43.2976 0.262637
507.285 12.7592 0.384405
474.642 44.3805 -0.230006
454.706 8.64191 0.121291
677.732 43.0777 -0.268303
675.927 38.7773 -0.387922
195.444 39.3617 -0.363486
779.742 14.2517 -0.172455
602.067 45.8351 0.247957
11.6646 16.787 0.228143
415.325 25.305 0.3944
190.491 23.3865 0.396639
94.4994 39.7971 -0.215842
785.991 53.0154 -0.410017
673.672 50.7696 -0.274808
325.332 25.5954 -0.380602
545.07 10.2627 0.313908
83.3663 44.9656 -0.167618
252.056 25.9729 -0.501427
570.72 23.7637 0.390796
497.527 18.8078 -0.413536
267.749 0.886768 -0.345814
567.262 39.8218 -0.383344
546.427 40.949 -0.474005
492.274 33.3499 -0.146868
510.405 0.887648 -0.569161
717.9 18.7097 0.404732
182.618 12.4255 -0.20097
511.58 36.8299 0.463102
579.614 39.8813 0.13564
74.3248 0.972097 0.276901
256.514 4.7215 0.18452
793.571 15.4333 0.173419
782.024 15.2571 -0.604512
800.468 19.464 -0.707589
309.499 8.59854 -0.231801
756.213 32.518 -0.40757
415.674 41.4601 -0.311035
458.938 0.8051 -0.408406
666.873 37.0265 0.52532
27.559 30.9259 0.297802
337.383 41.6472 0.579754
257.367 2.85866 0.339667
783.847 72.2369 -0.186641
723.044 57.029 0.226982
293.035 11.0454 0.242767
682.001 31.0002 -0.129373
572.326 2.54125 0.280102
555.806 6.50716 0.441044
98.367 18.5185 -0.498565
309.375 1.03602 -0.226941
350.249 2.2494 -0.369492
14.0362 7.61617 -0.455752
4.55088 31.1394 -0.270118
164.64 19.1342 0.40071
69.3182 41.9605 0.219562
67.7375 29.057 0.378913
432.844 14.6684 -0.440846
374.941 35.1861 0.475674
765.697 56.3994 -0.162629
19.6617 4.02566 0.269461
72.0454 6.9842 0.134609
642.032 38.424 -0.193041
300.621 0.919619 0.36736
372.814 16.3961 -0.0942022
240.163 4.7262 -0.389471
670.651 21.5211 -0.230462
462.142 8.32106 0.431955
758.975 33.6489 0.477256
649.408 30.2918 0.390904
687.66 20.094 -0.102487
429.664 26.528 0.546735
104.025 45.062 0.320595
556.702 42.3355 0.076289
752.26 18.6101 0.219514
242.537 30.5924 -0.268178
32.522 17.2882 -0.213981
343.763 13.8861 0.509722
109.637 40.7294 -0.462183
273.238 42.312 -0.214221
435.191 1.61992 -0.315586
789.798 63.796 0.363451
702.404 2.24036 0.626219
339.427 3.46364 0.563971
306.484 26.5067 -0.156229
473.613 41.2102 0.225181
83.1867 8.32113 0.462039
201.449 45.4864 0.377777
776.211 53.637 0.400642
506.733 39.3596 -0.0850949
203.958 41.5893 -0.2946
163.898 42.6845 0.344445
800.442 37.2585 -0.58922
796.856 13.6837 -0.578717
624.257 3.15877 -0.632162
194.13 24.8305 0.109907
563.754 27.5812 0.115146
565.761 27.3582 -0.27689
418.708 5.68959 -0.140553
493.314 0.944961 0.374338
762.311 58.79 -0.547488
86.5901 31.4118 0.219282
675.225 19.0655 -0.444851
280.206 15.5861 -0.359034
9.53106 2.34927 0.34559
128.176 37.4935 -0.202997
68.2635 23.3812 0.527485
720.37 38.0734 -0.412356
786.022 79.9231 0.166051
189.328 28.6804 -0.194021
790.892 12.3314 -0.359617
46.0152 36.6254 -0.265842
92.7128 29.3121 0.186949
653.398 13.3675 0.385197
423.124 18.5368 -0.508929
532.539 16.6604 0.123161
243.057 28.584 -0.183554
640.131 4.31541 0.493595
801.117 14.0907 0.501026
30.2324 31.9693 0.295184
276.018 7.74121 0.196724
226.577 15.2286 0.255724
1.06806 35.7012 -0.148744
229.91 14.6321 -0.36629
216.128 11.0516 -0.102558
218.616 26.5182 -0.275912
135.579 27.9899 0.15666
562.394 15.0892 -0.36443
170.414 14.1954 -0.362169
778.043 70.6795 0.241736
177.776 3.8184 0.512073
48.3537 37.6246 -0.426953
738.257 59.2708 -0.443232
287.356 31.3541 -0.378641
693.946 27.5549 -0.519774
799.502 68.15 0.463747
307.538 9.21146 -0.106993
744.039 34.6446 -0.466141
336.358 2.5239 -0.417887
426.075 24.0957 0.344974
692.49 17.0319 0.484118
107.585 11.9548 -0.477484
495.179 3.82859 -0.554512
761.663 33.5461 0.218294
90.0762 7.72414 -0.22881
287.967 14.8153 0.202608
433.631 11.8503 -0.206376
791.267 3.87347 0.602641
407.513 1.99683 -0.528969
180.534 39.0212 -0.29248
755.642 18.2867 -0.51039
131.347 36.63 -0.218627
268.871 31.4404 -0.387751
410.056 21.7489 0.22008
591.071 14.1022 -0.318919
396.371 9.78864 -0.501845
468.002 27.8895 -0.34551
766.74 69.9634 0.451887
48.4545 11.0843 -0.112674
306.202 38.5756 -0.256326
388.805 27.1523 0.347329
419.611 21.0838 0.250634
534.669 44.3769 0.356409
756.785 54.6935 0.218612
680.735 38.4768 0.361453
230.78 34.3688 -0.377606
14.0341 31.8706 0.154954
674.572 40.3499 0.140304
522.214 41.4044 0.451953
234.456 39.518 0.115113
700.768 35.2789 0.131776
154.131 9.33708 0.225151
375.367 21.5539 0.342442
475.379 42.3341 0.1048
424.095 19.8588 0.231061
761.522 70.678 -0.290843
436.681 3.87359 0.515784
50.679 25.2373 -0.284481
482.142 32.0242 0.331037
445.439 42.2577 0.363265
783.325 66.1929 -0.248599
742.129 32.0591 0.27439
556.026 18.4851 -0.20127
774.939 63.601 0.439553
300.177 2.20515 -0.463695
387.491 29.589 0.503247
29.6791 39.0901 -0.329714
745.523 36.67 -0.174338
627.907 20.4386 0.531848
475.04 0.775385 -0.472821
128.665 4.58557 -0.312088
437.219 40.0236 0.122546
11.9597 0.910165 -0.316493
790.599 6.21845 0.252281
379.195 39.3861 -0.435994
[...]
POINT_DATA 13483
TENSORS Strain_matrix float
-0.283609 -0.10359 1.54413 
0.0868877 0.0859029 -3.32856 
4.27893e-18 2.96751e-18 1 

0.111663 -1.24245 -3.69561 
0.423609 0.301187 -2.27324 
1.48952e-19 -2.14789e-17 1 

-0.12957 -0.00271859 -0.131233 
0.0141941 -0.0240955 0.345938 
2.49451e-18 -5.17689e-18 1 

-0.892932 0.0559039 -0.190546 
-0.172541 0.204563 0.847467 
-7.58267e-18 1.10116e-17 1 

-0.325006 -0.0503912 -0.0361118 
-0.00904173 0.0470421 -0.447397 
3.01044e-18 -8.22496e-18 1 

-0.102708 -0.0376451 -0.490917 
0.0201588 -0.0141029 -0.143282 
-1.63355e-20 -6.61996e-18 1 

-0.100899 0.00328475 -0.0767025 
-0.0159155 -0.0878184 -0.0248286 
4.50882e-18 -1.55065e-18 1 

-0.100783 0.017483 -0.0860333 
0.0215516 -0.0642476 -0.0379562 
-1.04723e-17 -9.99524e-19 1 

-0.168148 -0.0608723 -0.0227206 
0.0538325 0.025156 0.303 
2.921e-18 9.00034e-18 1 

-0.21839 -0.113478 2.84465 
0.0274267 -0.0615775 0.172112 
-3.27422e-18 -6.91812e-18 1 

-0.0889903 0.0335876 -0.0869791 
0.00285455 -0.0715468 0.0338954 
1.28778e-18 3.51755e-18 1 

-0.107528 -0.0596219 0.207453 
-0.0508006 -0.0944052 0.0627842 
1.84108e-17 -3.3505e-18 1 

-0.316735 0.142252 -0.2168 
-0.0491474 0.176056 -0.769984 
1.64578e-18 -8.06431e-18 1 

-0.190527 -0.0577866 -0.22003 
0.0694245 -0.0342761 0.0558974 
5.47457e-18 -1.20173e-17 1 

-0.162535 -0.0305851 -0.451379 
0.00364993 -0.0359564 -0.295745 
-1.4702e-17 -5.99755e-18 1 

-0.0866998 -0.0020609 0.302649 
-0.0606877 -0.0202149 -0.207575 
7.08514e-18 -2.07783e-18 1 

-0.0914393 -0.0403075 0.0555365 
0.0142353 -0.107283 -0.0219237 
-7.88134e-19 1.57627e-17 1 

-0.165823 -0.0164545 -0.0293631 
0.0076669 -0.0691418 -0.0197604 
1.47218e-18 -1.28815e-18 1 

-0.161087 0.0186179 -3.27077 
0.00861893 -0.0224076 -0.0724991 
4.38135e-18 1.51522e-18 1 

-0.106415 0.0250889 0.162703 
-0.106963 -0.0569521 0.556659 
9.74424e-18 1.91932e-18 1 

-0.070396 -0.049521 0.0988629 
0.130082 -0.0344519 0.00809728 
9.11663e-18 -1.04731e-17 1 

-0.27086 0.116232 -0.114731 
-0.0404527 0.0949598 -0.179088 
4.32228e-18 -1.02328e-17 1 

-2.17935 0.784867 -64.3227 
-0.808311 0.548501 -40.5126 
4.77818e-18 -1.82373e-19 1 

-0.189426 -0.270635 44.2717 
-0.236685 -0.0720488 8.05268 
4.19994e-20 1.31808e-17 1 

-0.11863 -0.0672888 0.201552 
0.012263 -0.0303437 -0.0031 
-1.37428e-17 -1.62541e-18 1 

-0.192386 0.0741341 -0.031413 
-0.0547499 0.0654179 -0.10268 
1.29572e-17 -5.89919e-18 1 

-0.153123 -0.0482346 0.378262 
0.0835987 -0.00199569 0.039169 
-1.07789e-17 -3.63786e-18 1 

-0.153055 -0.0832602 -0.492208 
-0.0310574 -0.0177227 -0.119916 
1.3432e-17 9.12901e-18 1 

-0.111868 0.0675602 0.534621 
0.056384 -0.0687621 -0.749551 
3.92947e-18 -6.79168e-19 1 

-0.282435 -0.242278 -0.233253 
0.068185 0.0676957 0.434258 
3.53806e-18 -4.33044e-18 1 

-0.118137 0.00405401 -0.273303 
-0.110644 -0.153556 0.219065 
8.8067e-18 -8.42656e-18 1 

-0.158578 -0.0234057 -0.0634454 
0.0293101 -0.0545913 0.0565343 
1.12638e-18 1.78125e-18 1 

-0.0677254 -0.673088 0.973537 
0.490555 0.212702 -0.214368 
4.29623e-18 -2.36293e-17 1 

-0.169161 0.0353489 -0.0557331 
-0.0475948 0.00849316 -0.0409727 
6.80959e-18 1.13171e-17 1 

-0.0705604 -0.0527852 0.114889 
-0.0168623 -0.118213 0.346288 
3.13822e-18 -2.65858e-18 1 

-0.178067 0.00970975 -0.308365 
-0.0414432 0.0328403 -0.0291893 
-1.13667e-17 7.84963e-18 1 

-0.122197 0.000556719 0.0458726 
0.0125829 -0.0278547 -0.381092 
-1.37343e-18 1.69389e-18 1 

-0.102021 -0.0184686 -0.255276 
-0.035767 -0.130902 -0.109075 
3.13829e-18 2.49592e-17 1 

-0.109793 -0.0210971 0.00810786 
0.103779 -0.025446 0.155289 
9.56833e-18 1.19293e-18 1 

-0.107334 -0.0113744 2.018 
0.00467032 -0.020089 1.38917 
2.12688e-18 -4.64046e-18 1 

-0.107762 0.00142503 0.0357909 
-0.0740573 -0.0526807 -0.0363851 
6.38782e-18 -6.59677e-18 1 

-0.0775571 -0.0643938 0.157502 
-0.0559529 -0.0726528 0.325138 
-4.11182e-18 1.2601e-17 1 

-0.379838 0.00255145 -0.202631 
-0.116499 0.0182963 -0.151179 
-1.32107e-18 5.72464e-18 1 

-0.10347 -0.00225417 0.332664 
0.00180403 -0.0589307 -0.365996 
-1.68595e-18 -1.65289e-19 1 

-0.0994651 0.0402828 -0.010285 
-0.051657 -0.0852429 0.137836 
-1.09816e-17 6.73656e-18 1 

-0.0998452 -0.00591267 -0.0353746 
0.0025093 -0.0500686 -0.231762 
-7.32118e-18 3.69872e-18 1 

-0.301953 0.193239 3.46978 
-0.247378 0.067643 4.20644 
-2.31698e-18 5.23189e-19 1 

-0.0754444 0.00275805 -0.00947552 
-0.054383 -0.11335 -0.00281191 
2.83253e-18 -3.74298e-18 1 

-0.154312 0.0395301 -0.246076 
0.0139804 0.0248439 -0.164016 
7.45006e-19 -2.94278e-18 1 

-0.393032 -0.00476929 1.21311 
0.0747933 0.151711 -2.07725 
5.62308e-18 1.93581e-17 1 

-0.0829174 -0.0722904 -0.265161 
0.0271841 -0.0200369 -0.107936 
-5.80937e-18 -7.18249e-18 1 

-0.131432 -0.29643 -0.860717 
0.44251 0.115338 0.750991 
-1.60703e-17 -2.07167e-18 1 

-0.122517 0.018935 0.0353997 
-0.0115807 -0.00385952 0.00192798 
1.09555e-18 2.00148e-20 1 

-0.140263 0.0480776 0.106938 
-0.0213196 -0.0406597 -0.0457415 
-6.79665e-18 9.91179e-19 1 

-0.138666 -0.0019188 1.44556 
-0.0077285 -0.0523808 -0.139622 
-4.28254e-18 -6.59259e-18 1 

-0.178951 -0.131085 -1.36413 
0.0981562 0.0655729 0.0194943 
7.5681e-18 2.95204e-18 1 

-0.181815 -0.0231181 0.0883138 
0.0160437 -0.022645 -0.102534 
-1.01004e-17 -2.67239e-17 1 

-0.112083 0.369217 0.725205 
-0.00236961 -0.0718779 0.107727 
2.64746e-18 -8.39826e-17 1 

-0.0585225 -0.00402948 -0.0525625 
-0.013811 -0.126827 -0.0437224 
-2.72927e-19 6.65941e-18 1 

-0.0898823 -0.062523 -0.268998 
-0.0481932 -0.0461727 0.0448903 
1.57006e-17 3.54017e-19 1 

-0.222541 0.280393 0.310992 
0.164306 0.662004 0.0692169 
1.52562e-18 -4.43296e-17 1 

-0.114493 -0.111044 -0.548989 
0.0498558 -0.0106049 0.00628291 
-7.33033e-18 7.24398e-18 1 

-0.107847 -0.082628 -0.28434 
-0.0107941 -0.0543226 -0.132865 
-8.77501e-18 -3.47102e-18 1 

-0.220935 0.170197 -1.19512 
-0.186747 -0.0394507 0.751283 
-1.97768e-18 4.05945e-18 1 

-0.13649 0.0317323 0.0777285 
-0.0187668 0.0544283 -0.112601 
7.35088e-18 -4.65901e-19 1 

-0.154135 0.0136798 -0.0451452 
-0.0432377 0.0399344 0.288828 
8.64254e-18 -1.96458e-17 1 

-0.297197 -0.0863599 0.248323 
0.00153262 0.0481398 0.566187 
1.0351e-17 5.40648e-18 1 

-0.61737 -0.252815 1.12465 
0.10218 0.379903 -0.240144 
2.81845e-18 6.11663e-18 1 

-0.126504 -0.0117801 -0.495636 
-0.0300416 -0.068216 -0.274904 
-5.61449e-18 2.00173e-18 1 

-0.173014 0.0579907 0.0209783 
-0.116785 -0.085941 -0.220615 
-4.49477e-18 -5.18628e-19 1 

-0.981895 -0.518833 1.42622 
0.581385 0.536506 -0.35253 
1.95796e-17 -1.29048e-17 1 

-0.0751375 0.00375932 0.0329686 
-0.0176242 -0.0684286 0.103259 
3.41361e-19 2.97624e-18 1 

-0.152707 -0.0570398 0.185133 
0.0468736 -0.044915 0.153081 
5.52984e-18 1.30802e-18 1 

-0.111335 -0.0579844 0.22204 
-0.0240739 -0.0504584 -0.379226 
-2.13428e-18 4.08656e-18 1 

-0.106878 0.00706457 -0.598594 
-0.0286204 -0.0412748 -0.191315 
2.30456e-19 -1.28397e-17 1 

-0.0964113 0.0555632 0.206364 
-0.0467847 -0.0861112 0.0174271 
9.44237e-18 8.36134e-18 1 

0.0990467 -0.768702 -0.775238 
0.614763 0.214522 0.176446 
1.33839e-17 -5.07976e-18 1 

-0.136324 0.0586345 -0.713776 
-0.0449101 -0.0313808 0.17012 
7.32921e-18 -6.07337e-18 1 

-0.647688 -0.266621 1.35094 
0.2352 0.309581 -0.138186 
-3.87663e-18 5.40028e-18 1 

-0.120296 0.075707 0.181815 
-0.101983 -0.0225101 -0.232327 
1.01072e-17 1.58282e-17 1 

-0.735089 -0.060221 1.22386 
-0.220179 0.362258 -0.125142 
-1.07631e-17 -6.52513e-18 1 

-0.0512767 -0.0620978 0.0330377 
0.0599369 -0.00546395 -0.00805576 
2.49688e-18 2.97248e-18 1 

-0.0483358 0.0293375 -0.260359 
-0.014962 -0.0176653 0.0395603 
-1.44607e-17 -2.3959e-18 1 

-0.252451 0.0485113 -0.00430278 
0.100731 0.0241214 0.0150317 
8.56893e-18 -4.33004e-19 1 

-0.368508 -0.229866 0.0832715 
0.219811 0.115987 -0.0303605 
-5.00616e-18 8.82029e-18 1 

-1.35316 0.58532 0.442946 
-0.332776 0.40295 0.7395 
-3.25429e-18 -1.5564e-18 1 

-0.833866 83.4885 9.44385 
0.029852 -3.77015 0.628644 
1.36497e-18 8.33675e-17 1 

-0.128499 0.0256479 0.118121 
0.0133455 -0.0777963 -0.215456 
4.98041e-20 -4.79365e-18 1 

-0.332906 0.208281 -0.264961 
0.0644349 0.0936192 -0.0466634 
1.18559e-17 -9.56201e-18 1 

-0.12203 0.0315473 5.4379 
-0.000208186 -0.050038 -0.748673 
-2.26145e-18 -1.75437e-18 1 

-0.163292 -0.130124 -0.0406971 
-0.0415002 -0.0247564 -0.236502 
-4.6956e-18 6.70799e-18 1 

-0.180247 -0.0452525 -0.128953 
0.0311275 -0.0512426 0.129518 
-1.02645e-18 2.0529e-18 1 

-0.121048 -0.604429 27.8834 
0.507794 0.204095 11.3508 
-3.9749e-18 8.76191e-18 1 

-0.123781 -0.0575099 0.0255793 
0.0158353 -0.0546333 -0.0214695 
-3.80621e-18 -2.6432e-18 1 

-0.118122 0.0554462 0.587226 
0.0103551 0.00998489 0.217936 
7.04004e-18 -6.85586e-18 1 

-0.149402 0.101648 -0.0724361 
0.00582647 -0.0110826 0.107972 
-2.09775e-18 2.48452e-18 1 

-0.120796 0.028938 0.0051958 
-0.0345611 -0.0421868 -0.239656 
-1.08955e-18 5.22884e-20 1 

-0.0424378 -0.351763 -0.559704 
0.318069 0.0605092 -0.24157 
7.29979e-19 8.57725e-18 1 

0.0210417 -0.520712 0.206786 
0.452454 0.0932305 -0.387253 
2.30532e-18 -7.8827e-18 1 

-0.0907302 0.00899826 0.0959628 
-0.0451299 -0.0434487 -0.102012 
-2.61651e-17 -6.82049e-19 1 

-0.115262 -0.0224843 -0.487853 
0.0121054 -0.0312709 -0.941204 
-4.69772e-18 -3.2884e-18 1 

-0.168541 -0.0161196 -0.5508 
-0.0197446 -0.0173579 -0.079874 
-7.14664e-18 -5.91944e-18 1 

-0.102807 0.00467957 -0.401236 
-0.00389899 -0.0346026 -0.285631 
-1.03897e-18 6.63345e-18 1 

-0.104321 0.024901 0.166474 
0.019893 0.00323284 0.238244 
-9.40883e-18 1.86363e-18 1 

-0.112179 -0.012112 0.263424 
-0.0088597 -0.0852321 0.351398 
-8.38434e-18 6.18331e-18 1 

-0.122941 -0.0335462 0.146409 
0.0378823 -0.0454885 0.0424606 
3.98588e-18 2.30761e-18 1 

-0.419168 -0.393471 0.419724 
0.170259 0.050129 0.173727 
-3.11311e-18 3.78987e-18 1 

-0.12281 -0.00362906 0.404312 
-0.0259247 -0.0134454 0.599429 
7.80788e-18 -8.61163e-20 1 

-0.13305 0.0581171 0.104009 
0.0589085 -0.11454 -0.106244 
-8.91928e-18 6.46647e-18 1 

-0.163165 0.00538228 0.282319 
0.0406045 -0.073375 -0.475999 
-4.6013e-18 -6.40533e-18 1 

-0.136384 0.0453666 1.12653 
0.0353125 -0.0424808 1.40797 
-3.5114e-18 -1.01596e-17 1 

-0.132095 0.0187914 0.276456 
-0.0047961 -0.0209776 -2.12031 
1.5791e-18 4.45157e-18 1 

-0.0772528 0.0373255 -0.00341493 
-0.0245889 -0.110525 -0.0177336 
5.01597e-18 3.62118e-18 1 

-0.21273 0.13617 -0.0884733 
0.0378351 0.0535079 -0.341783 
5.98065e-18 3.51803e-18 1 

-0.156799 0.0636949 0.173757 
-0.0499596 -0.003342 -0.023869 
-4.7307e-19 -4.56174e-18 1 

-0.116235 -0.00772789 0.278102 
-0.000496804 0.00977787 -0.886231 
7.4793e-18 3.56157e-18 1 

-0.121911 0.0319775 0.144264 
-0.0572142 0.00915705 -0.0460931 
1.64153e-17 7.67871e-18 1 

-0.123435 0.0452579 -0.106464 
0.0345714 -0.0429515 -0.0484296 
-6.08695e-18 2.95396e-18 1 

-0.215848 0.0781331 0.117304 
0.0244685 0.025812 0.10625 
-1.03105e-17 -1.00366e-17 1 

-0.128504 -0.0146349 0.0189733 
0.0579195 0.0113827 0.173735 
-6.75977e-18 -6.66662e-18 1 

-0.463327 0.0156067 -0.738841 
0.24606 -0.0901464 -0.256625 
-6.16485e-18 6.23824e-18 1 

-0.382817 -0.0272521 -0.40776 
-0.0838568 0.100521 0.416038 
-2.24641e-19 5.28167e-18 1 

-0.0842484 0.00514698 0.0384066 
-0.0248488 0.00892573 -0.164136 
-8.99548e-19 -4.36144e-19 1 

-0.160675 0.071231 -0.040356 
-0.0168761 -0.0395553 0.12 
2.78203e-18 6.95508e-18 1 

-0.102121 -0.00902503 0.597207 
-0.0164273 -0.0651919 0.6039 
1.77572e-18 -7.4534e-18 1 

-0.104977 -0.0298711 -0.0651618 
-0.0334636 -0.115802 -0.05238 
-5.82572e-18 -1.21886e-18 1 

-0.129646 0.00198752 0.168095 
-0.0313739 -0.0164315 -0.0378142 
7.10273e-18 6.89134e-18 1 

-0.130707 0.0391448 -0.199716 
-0.0131544 0.0015279 0.0868018 
-4.99028e-18 -1.41904e-18 1 

-0.0947147 -0.0639533 0.123114 
0.00780289 -0.00225736 -0.212938 
-9.09844e-18 2.18779e-18 1 

-0.12373 0.0383323 -0.110038 
0.0318815 -0.0309485 -0.08331 
1.65129e-17 -1.79949e-18 1 

-1.706 0.500516 2.1803 
-0.549923 0.500548 0.625229 
-1.27753e-17 1.0624e-17 1 

-0.26608 -0.0360671 0.293259 
-0.0134851 0.0962197 0.0268621 
-1.3358e-17 9.95305e-18 1 

-0.125693 -0.0202006 -0.267802 
-0.00668683 -0.0303882 -0.0736599 
-5.13262e-18 1.00233e-18 1 

-0.0233405 -0.490069 0.0302064 
0.536958 -0.0251286 0.256599 
-9.07621e-18 1.59311e-17 1 

-0.134755 0.0219673 -0.342823 
-0.0351724 0.00588008 -0.238478 
-2.2695e-18 -3.15554e-18 1 

-0.090983 0.0261842 -0.139659 
0.0017666 -0.014487 0.0566778 
8.86908e-19 -5.67621e-18 1 

-0.212591 0.0634544 0.0183796 
0.19577 -0.013966 -0.487045 
1.36953e-17 1.12445e-17 1 

-0.111687 -0.0112921 -0.0204744 
-0.00491585 -0.0442577 0.271439 
7.27316e-18 -1.55309e-18 1 

-0.104843 -0.0313736 0.0112547 
0.090811 -0.0594126 0.113594 
-1.02763e-17 5.62431e-18 1 

-0.067994 -0.107311 0.0219977 
0.0511574 -0.0798394 -0.0412732 
-1.23882e-17 3.61463e-18 1 

-0.15936 -0.0221657 -0.0887993 
0.0401369 -0.0486063 -0.0430764 
8.27682e-18 1.43776e-18 1 

-0.0821271 -0.0473898 0.138142 
0.0590424 -0.0111856 0.0643283 
6.57003e-18 -2.1757e-18 1 

-0.103939 -0.0341941 0.103137 
-0.0189147 -0.0403724 -0.123249 
6.67962e-18 -3.77994e-18 1 

-0.0786967 -0.0759142 -0.584147 
0.0406989 -0.0253559 -0.345894 
-8.28938e-19 2.19876e-17 1 

-0.0791397 0.016331 -0.195884 
-0.0329148 -0.0131442 -0.125317 
-9.52516e-18 1.6122e-18 1 

-0.0798418 -0.627947 0.630873 
0.2274 0.203963 -0.554079 
-5.31624e-18 1.39629e-18 1 

-0.337479 -0.279878 0.13633 
0.127642 0.00652632 -0.838051 
-4.98407e-18 6.86547e-18 1 

-0.115709 0.0100329 0.594962 
-0.0849166 -0.111864 0.52807 
-6.44885e-18 9.61006e-18 1 

-0.113186 0.0409933 -0.190852 
-0.0587133 -0.0486589 -0.38943 
-3.73371e-18 -6.73635e-18 1 

-0.119548 0.0281136 0.204526 
-0.0737925 -0.0189064 0.0571254 
2.63665e-18 -2.10932e-18 1 

-0.0919496 -0.0493575 -0.00192849 
0.00985333 -0.000165671 0.0749923 
-7.74254e-18 6.13905e-18 1 

-0.195041 0.035423 0.077041 
0.0138158 -0.0271901 0.197898 
3.6131e-18 -1.9603e-17 1 

-0.138852 -0.0816882 0.00983601 
0.0318494 -0.0400985 0.774716 
1.3002e-18 -1.43087e-18 1 

-0.112595 0.000245385 0.439827 
-0.0055762 -0.0146272 0.179808 
3.82417e-18 -7.10414e-18 1 

-0.0967445 -0.0228866 0.151225 
0.00262855 -0.0528969 0.0339688 
8.47534e-18 -1.57817e-18 1 

-0.289132 -0.0192204 -0.801016 
0.0312395 0.0804145 4.37165 
4.89471e-18 5.40031e-18 1 

-0.159751 -0.0197814 -1.69575 
0.073249 -0.00362987 -1.31275 
4.72925e-18 9.73646e-19 1 

-0.127585 -0.0403139 0.0900675 
0.0200534 -0.0201187 -0.131948 
5.64964e-18 5.01448e-18 1 

-0.444549 -1.07678 51.8204 
0.0447066 0.60522 -13.1988 
3.8094e-19 -1.02854e-17 1 

-1.99708 0.467262 42.5576 
0.147012 0.636499 16.8086 
8.13198e-18 -6.11405e-18 1 

-0.438908 0.0062949 -0.579924 
-0.149871 0.21364 0.958322 
7.58501e-18 6.43746e-18 1 

-0.366895 -0.0525834 -0.172518 
-0.274108 -0.0671466 0.399031 
1.19483e-18 1.97691e-17 1 

-0.129281 -0.0931554 0.571926 
0.0679331 -0.0108955 0.110942 
-8.56615e-18 -1.15031e-17 1 

-0.250971 0.0613103 -2.9874 
0.032527 0.180661 -1.0639 
-4.30641e-18 1.6331e-18 1 

-0.170398 -0.0441215 -0.00139166 
0.0337489 -0.0332264 0.57903 
-6.72091e-18 -7.33892e-19 1 

-0.812912 0.0979761 -0.402339 
-0.170227 0.203536 0.593674 
1.19502e-17 4.06029e-18 1 

-0.117031 0.0114572 -0.0600459 
0.0262847 -0.0431929 0.0424112 
1.68275e-17 -9.72197e-18 1 

-0.134046 -0.00980064 -0.0497167 
-0.0482773 0.00975838 0.0314124 
7.30774e-18 9.20941e-18 1 

-0.0697428 -0.0359561 0.127945 
0.00691137 -0.0876032 0.282764 
-1.22877e-17 -9.6892e-19 1 

-0.171739 -0.0321784 -0.0477815 
0.00882137 -0.0141392 -0.243204 
7.75436e-18 9.07711e-19 1 

-0.0841884 -0.00788938 0.00911002 
-0.0293148 -0.0585831 0.0489219 
-1.40758e-17 -1.34638e-18 1 

-0.0776577 0.00524897 -0.173959 
0.0230598 -0.0186817 -0.0887225 
4.48121e-18 -2.95147e-18 1 

-0.135913 -0.0147649 0.36782 
-0.0139449 -0.0270356 0.13514 
3.66887e-18 2.09506e-18 1 

-0.171948 -0.0241247 -0.135125 
-0.038192 0.0187237 0.41498 
-6.62366e-18 2.59994e-18 1 

-0.0787466 0.0289876 0.0829793 
-0.112595 -0.0688639 -0.0666144 
-1.07827e-17 -3.30187e-18 1 

-0.130903 -0.0140247 -0.460944 
-0.0315222 -0.0622205 0.672894 
1.21428e-18 -9.99995e-18 1 

-0.0739515 -0.742482 0.0483528 
0.705768 0.386389 0.700497 
2.42053e-17 1.02407e-17 1 

-0.1221 -0.0133277 -0.0187679 
-0.0152261 -0.0596516 -0.133772 
-1.56889e-18 5.51641e-18 1 

-0.196994 -0.0390261 -0.404819 
-0.0305934 0.0517198 0.363268 
4.43568e-18 -2.12934e-18 1 

-0.153466 0.0696971 -0.0185971 
-0.031795 -0.0903246 -0.0295626 
9.44027e-18 -2.02966e-18 1 

-0.0921036 -0.00397742 -0.067172 
-0.0327394 -1.97477e-05 -0.140465 
1.44725e-17 -3.5358e-17 1 

-0.276588 0.041806 1.63141 
-0.155966 0.00660517 -0.0482792 
2.10037e-18 3.25639e-18 1 

-0.0914078 -0.0068605 0.0229021 
-0.0282605 -0.0444472 0.0141697 
7.78616e-18 -7.60717e-19 1 

-0.110674 0.020187 -2.30403 
0.00995837 -0.0712653 1.27104 
-6.84919e-18 3.97099e-18 1 

-0.211404 -0.0582894 0.0179739 
0.124334 0.0413861 -0.201302 
4.57624e-18 1.72057e-18 1 

-0.146097 -0.018684 0.11187 
-0.0593188 -0.0501821 0.208851 
-8.34689e-18 1.0535e-17 1 

-0.165822 -0.0131276 0.328724 
-0.0353748 -0.00876737 -0.174686 
-6.57809e-18 5.87197e-18 1 

-0.379462 -1.51196 1.25039 
0.51461 0.916914 -1.06262 
-5.94467e-18 5.03593e-18 1 

-0.11988 0.00148833 -0.0622645 
-0.00985109 -0.0474667 -0.333335 
-4.37777e-18 -4.95633e-18 1 

-0.559216 -0.00132027 0.0845586 
-0.0502817 -0.0138691 -0.411495 
1.08129e-17 -2.13636e-17 1 

-0.407644 -0.487496 -1.3739 
0.0641114 0.237909 0.356453 
-5.31798e-18 -2.18649e-18 1 

-0.129864 -0.0838147 -0.0758364 
0.0751783 -0.0605379 -0.0917859 
9.41395e-18 -3.78079e-18 1 

-0.179586 -0.0133737 0.132302 
-0.148289 -0.128126 -1.1764 
-1.88823e-18 6.91141e-18 1 

-0.264165 -0.0832703 0.753218 
-0.00175583 0.108006 2.22096 
-4.61522e-19 6.28809e-18 1 

-0.679081 -0.253502 -1.56754 
0.491925 0.394426 -0.235995 
4.45282e-18 9.95258e-18 1 

-0.341965 0.0898894 0.578083 
-0.0275754 0.271437 0.0282236 
7.28804e-18 5.64964e-20 1 

-0.115455 0.160658 0.0609326 
-0.109844 -0.0616574 -0.124121 
-1.4026e-17 9.44606e-18 1 

-0.124646 0.0116617 -0.282323 
-0.0033126 0.00876827 -0.250307 
4.08982e-18 -1.31459e-17 1 

-0.10955 -0.0355637 -0.100822 
-0.0525056 -0.0597259 0.312478 
1.203e-17 -2.38481e-18 1 

-0.162385 0.105515 0.14551 
-0.153753 0.0471583 -0.456356 
-4.05881e-18 5.12692e-18 1 

-0.41767 -0.085209 -1.19109 
-0.081663 0.189907 0.199256 
2.03335e-18 -1.03771e-17 1 

-0.143749 0.014446 0.411364 
-0.0138255 -0.0056099 0.0540783 
6.24895e-18 1.62199e-17 1 

-0.841165 -0.13589 -0.574575 
0.0147643 0.280408 0.585446 
1.28708e-18 -2.05932e-17 1 

-0.315184 -0.0406622 0.941756 
0.0619753 0.153916 0.628409 
-8.17163e-18 -2.67635e-17 1 

-0.227611 0.116083 0.126625 
0.102379 -2.90734e-05 -0.105683 
8.81766e-18 -1.23188e-17 1 

-0.105513 -0.0170115 -0.0685248 
-0.0351502 -0.0387006 0.0844496 
2.10453e-17 -5.38146e-18 1 

-0.099262 -0.0231044 0.109105 
-0.000767316 -0.0313406 0.596853 
-8.71988e-18 -1.52194e-17 1 

-0.0826021 0.0189166 -0.161853 
0.0196817 -0.02353 0.238593 
1.30177e-18 3.969e-18 1 

0.0570965 -0.644456 -0.136453 
0.581125 0.155881 0.204751 
-9.55935e-18 -9.07534e-19 1 

-0.253281 0.310498 3.35738 
-0.356991 0.27682 -1.6123 
-1.52122e-18 -9.22238e-18 1 

-0.112173 0.0291523 -0.0902511 
-0.0258109 -0.0306149 0.137397 
-1.37495e-17 -1.48835e-18 1 

-0.147329 -0.0018638 -0.148521 
-0.00644112 -0.0402989 -1.49402 
1.60159e-18 4.66861e-19 1 

-0.0934046 0.000380196 0.359951 
0.0736684 -0.0744974 0.609656 
-1.56085e-18 1.61819e-17 1 

-0.104388 -0.00830055 -0.333184 
-0.0144005 -0.0396001 -1.79544 
6.24249e-19 -4.55182e-19 1 

-0.18324 0.03279 0.592703 
0.00161632 0.0118877 -0.278584 
1.23551e-17 3.32854e-18 1 

-0.136406 -0.0335962 0.638965 
0.0439421 -0.0115791 -0.265839 
6.36395e-18 3.66986e-18 1 

-0.131426 -0.0111919 0.0839889 
0.0009158 -0.110218 -0.0425663 
1.5391e-18 4.23903e-17 1 

-0.11198 -0.0961356 0.418453 
0.0910153 0.0108112 0.597207 
-7.61139e-18 -2.57616e-18 1 

-0.155063 -0.0404583 -2.52832 
0.0153641 -0.00784754 2.21519 
-3.15461e-18 1.04913e-17 1 
