# vtk DataFile Version 3.0
Output file generated by Yade's KinematicLocalisationAnalyser
ASCII
DATASET UNSTRUCTURED_GRID

POINTS 13483 float
484.501 49.7822 -0.490411
562.632 82.5088 0.460666
107.491 6.09372 -0.57367
592.01 5.56393 0.407713
428.051 10.556 0.61784
287.903 41.4243 -0.460393
141.463 7.06048 0.458693
463.275 35.5374 0.152956
426.377 27.7003 -0.235313
549.358 15.6911 -0.563594
192.771 8.75411 0.142781
237.503 6.30206 0.364841
518.305 66.5529 -0.202399
498.607 49.6936 0.0875593
123.847 17.9266 0.549105
202.672 35.0625 0.420536
200.004 13.0879 -0.304064
266.585 11.4718 0.517471
309.377 38.0954 0.417621
448.657 7.72196 0.514655
365.961 41.753 -0.161196
474.373 75.5095 -0.276292
586.838 46.7086 0.464259
533.578 63.1321 -0.557735
403.723 22.9463 -0.445772
220.091 46.3982 -0.135269
422.268 35.7528 0.504469
472.616 43.9199 -0.231129
39.4887 16.8994 -0.448138
540.65 34.2991 0.369792
416.038 6.16297 -0.480561
15.4492 25.075 -0.333133
574.969 89.559 -0.251682
423.005 2.30366 0.593697
69.6353 47.0576 -0.0997518
449.678 32.4089 -0.509452
454.573 15.4459 0.547446
312.422 25.9349 -0.190952
454.884 28.371 -0.48144
316.553 41.1523 0.421787
221.708 14.6141 -0.348626
383.093 43.638 0.0897728
515.539 6.76351 0.110178
175.894 6.28993 0.422295
49.169 7.19245 -0.106901
60.5718 9.14189 0.243082
525.373 13.9787 -0.593735
20.8241 12.2553 -0.260246
477.438 90.0721 -0.352495
527.473 60.7499 -0.336595
156.366 32.485 0.333307
568.405 68.1092 0.176682
29.909 30.9656 0.171658
458.32 2.61662 0.540259
128.603 7.71786 -0.563819
476.997 62.9503 -0.371732
432.945 31.2129 -0.208178
159.433 0.959134 -0.29508
29.8045 2.31599 -0.357408
317.449 19.2388 0.27701
487.252 89.4552 -0.131973
399.452 46.8173 -0.184401
354.935 1.03626 0.273401
533.66 6.87386 0.622307
22.8899 48.4569 0.246766
236.847 31.5894 -0.293173
551.783 10.4539 -0.235826
526.697 95.9057 -0.345028
370.35 9.54423 -0.653581
470.456 20.0927 -0.482567
558.286 50.3587 0.454556
117.642 7.80882 0.27521
427.81 30.5173 -0.178244
413.73 20.1698 -0.138785
271.866 17.3554 -0.45779
18.3181 14.5498 0.275566
585.799 87.0661 0.33253
301.507 44.5231 -0.312477
515.487 27.0606 -0.441292
524.463 19.7721 0.370717
580.439 14.9509 0.252348
401.24 48.0234 0.163769
83.332 40.7507 -0.285514
533.33 70.1105 0.256664
514.686 78.1508 0.108205
594.383 50.2477 -0.150653
576.831 0.763517 -0.58707
268.884 30.9738 0.455492
494.431 19.465 0.120781
22.1873 5.85151 -0.655335
120.452 41.3314 -0.185951
439.92 15.4212 0.203588
585.203 73.8713 -0.53418
179.388 29.5257 -0.231212
38.7506 37.6194 0.288739
422.191 1.1291 -0.137866
217.701 8.78831 -0.416524
550.283 63.5429 0.30649
576.111 65.1762 0.293808
327.016 26.9842 -0.290739
148.563 27.4095 -0.440174
437.531 69.9678 0.391855
341.629 19.571 -0.529412
368.128 33.92 0.164596
339.801 8.36871 0.47579
469.011 17.3418 -0.11808
594.498 15.74 0.309209
71.5379 41.9813 -0.48572
307.194 6.57258 -0.164529
458.848 32.5642 0.347714
324.738 54.1728 0.518924
23.0286 28.3886 -0.565119
27.709 6.14399 -0.324537
457.374 62.0971 0.476048
435.082 27.6391 -0.17936
21.9571 41.7355 -0.431218
84.2982 32.7488 0.256664
298.757 18.2142 0.339378
483.3 36.771 0.160831
412.53 50.8168 0.321634
564.217 17.2015 -0.584477
558.043 14.3595 0.233878
349.29 43.9229 -0.111256
503.15 63.6476 0.133082
220.709 17.2729 0.521931
303.832 5.47641 0.540448
93.3439 32.5963 0.292509
105.411 25.3579 0.322506
434.482 73.9966 0.0720444
282.889 20.2653 0.630702
536.535 40.2168 -0.174379
530.699 93.1921 -0.102822
416.576 29.412 -0.347206
589.392 56.5562 -0.261571
381.05 26.8126 -0.309586
256.203 25.3968 -0.362175
530.13 76.842 -0.320788
258.052 29.8193 -0.481542
471.133 34.3064 -0.249253
302.776 41.2779 0.208462
434.143 13.0407 -0.617408
331.293 41.1348 -0.0886629
381.564 17.984 -0.302763
291.599 50.8328 0.26864
175.696 30.5519 0.15561
567.049 83.1834 -0.169025
591.6 16.6372 -0.400034
5.79732 13.2424 -0.444251
385.079 24.3733 -0.430152
33.5419 25.435 -0.102884
339.935 38.7158 -0.487412
355 29.0221 0.321142
67.0707 12.7007 0.533184
46.0123 35.2766 0.320459
209.749 13.8957 0.430039
487.326 78.3169 0.457272
469.967 48.6611 -0.577279
66.9644 22.3373 0.484591
536.786 61.4717 -0.640635
580.299 37.5193 -0.677115
518.422 91.3303 -0.455239
530.079 2.77899 -0.685211
441.123 56.4984 -0.39478
475.042 76.9888 0.537468
443.385 18.8952 -0.428497
589.305 3.82292 0.485589
207.595 25.2311 0.178795
116.83 37.8093 -0.216338
230.536 6.7095 0.453699
84.3224 4.84643 0.27033
56.9777 11.1104 0.220965
256.838 38.0255 0.320846
15.7811 26.8271 0.360779
452.33 47.7523 0.440214
475.871 84.8791 0.18756
402.623 33.105 -0.432724
592.31 99.6921 0.361648
364.173 9.92446 -0.194324
380.968 52.0826 0.404447
465.876 3.25694 -0.362105
20.8618 26.3153 0.637458
475.395 19.0116 0.6349
470.967 7.86079 -0.465168
191.218 11.1857 0.489005
379.164 16.9503 -0.330953
289.598 6.41681 0.412386
350.368 23.2599 -0.388857
546.298 57.8133 -0.113981
178.189 26.3965 -0.475486
571.706 6.15952 -0.512616
546.954 52.4511 -0.353611
347.317 11.4137 0.222974
550.396 1.93261 -0.621012
487.98 46.8743 -0.441175
563.42 36.7997 0.52175
374.04 56.6629 -0.258566
431.48 15.9176 0.576065
406.801 57.6906 0.283785
396.289 9.94239 -0.285674
522.162 90.119 0.26206
520.929 85.5827 -0.279626
177.994 39.909 -0.380051
579.074 16.4691 -0.219952
459.15 78.7733 -0.241408
10.9136 18.0877 0.229776
365.357 28.3661 0.437622
173.305 23.8136 0.402416
85.0758 41.5915 -0.225037
585.794 70.4981 -0.42906
515.652 96.5697 0.232755
295.446 28.8389 -0.493301
463.12 10.2722 0.457996
74.5204 46.6719 -0.222927
231.434 26.48 -0.501591
451.448 53.1206 0.383922
424.912 26.3946 -0.553986
246.149 0.863899 -0.401597
447.794 71.0715 -0.37879
428.463 74.4125 -0.435634
421.317 43.8682 -0.448518
432.311 2.39401 -0.639792
535.505 18.9074 0.606433
165.932 12.7497 -0.218861
437.958 39.9665 0.574029
458.024 70.3924 0.109154
66.0224 0.971083 0.345579
235.654 4.7793 0.21665
590.889 18.5089 0.207366
581.089 16.7031 -0.509368
596.039 23.6043 -0.612483
282.193 8.78221 -0.339859
563.971 42.4555 -0.450528
367.125 48.3861 0.4418
398.832 0.815037 0.586841
520.207 73.4265 -0.4308
23.4338 35.3838 -0.3483
303.547 47.8909 0.467684
236.434 2.91936 0.425322
579.247 89.3986 0.154786
551.03 88.0756 -0.245619
268.638 12.9586 0.393823
523.429 74.3017 -0.0839681
479.42 2.65056 0.221174
468.376 12.749 0.580845
87.8625 19.2912 -0.516651
282.712 0.989192 -0.259396
316.034 2.33915 -0.336218
12.9072 8.03775 -0.609193
4.25267 32.4548 -0.321749
148.567 19.6399 0.442034
61.6392 44.067 0.236877
59.0786 31.2871 -0.298235
378.444 13.9336 -0.600559
335.654 45.8369 0.479932
566.296 68.4365 -0.158324
18.0305 4.02971 0.291403
63.8072 7.42994 0.141674
495.715 77.0122 0.130097
274.59 1.15447 0.500213
332.321 21.3219 -0.10745
220.155 4.68524 -0.391406
520.771 54.153 0.235126
400.7 8.29202 0.656662
566.35 44.2692 0.498602
502.182 66.8809 0.289721
515.566 25.0894 0.110641
377.897 29.9062 0.58921
94.0285 47.2018 0.310903
438.897 76.7849 -0.0611866
564.109 28.1018 0.363145
222.44 31.514 -0.277985
28.2601 19.27 -0.239075
311.306 15.6545 0.511045
98.8589 42.0881 -0.478906
249.744 44.1715 -0.239841
382.879 2.30369 -0.265272
586.19 82.0898 0.38384
525.593 2.2034 0.677873
306.759 3.79849 0.621759
279.503 30.3092 -0.144204
405.678 54.6385 0.207757
73.4423 9.32362 0.600123
183.687 46.1215 0.390212
576.74 68.5738 0.498223
434.602 43.2224 -0.118181
186.173 41.9819 -0.331841
147.285 43.2711 0.434902
595.62 44.1314 -0.535577
592.998 15.4401 -0.597439
488.28 12.4251 -0.694953
176.854 25.304 0.116307
443.052 58.8653 0.111451
445.047 58.2758 -0.286701
368.249 6.6752 -0.181921
421.487 3.056 0.334531
562.646 69.7696 -0.564604
77.2579 32.9861 0.227247
509.069 35.1047 -0.519165
256.788 16.3753 -0.487508
8.1792 2.68689 -0.428386
116.244 40.9267 0.241922
59.873 24.5483 0.625272
532.921 41.9032 -0.379617
579.981 97.6983 0.162107
172.017 29.1529 -0.198877
589.106 14.2913 -0.478234
40.3344 39.4712 -0.271054
83.1628 31.0545 0.208016
506.696 46.3976 0.408102
371.849 20.9886 -0.617774
451.671 16.0123 0.168724
222.899 29.4872 -0.187527
498.191 9.8803 0.726347
596.283 17.0248 0.570636
25.8992 36.618 0.376431
253.652 7.94474 0.203654
207.497 15.6127 0.269462
1.05048 36.9239 -0.158201
210.716 14.9108 -0.40186
197.518 11.1228 0.133945
199.758 26.66 -0.322411
121.532 29.27 0.201191
452.251 37.9983 -0.314926
154.15 14.4349 -0.367982
574.018 86.3078 0.232868
161.319 3.88529 0.515656
42.7909 40.4823 -0.43128
544.389 72.8607 -0.439348
262.799 32.8573 -0.427427
517.219 46.0692 -0.544934
594.502 89.172 0.516575
280.516 9.75664 0.172242
552.312 41.8659 -0.484505
305.381 2.58036 0.621627
374.55 26.0714 -0.457283
516.404 18.9564 0.740333
95.9699 12.7913 -0.555106
422.876 6.59459 -0.664777
568.786 44.829 0.188313
79.4771 8.10526 -0.280278
263.95 16.2778 0.190023
379.498 12.1395 -0.28327
589.821 5.81843 0.620765
359.575 1.83426 -0.579132
163.503 39.5746 -0.309485
567.284 28.6256 -0.558257
118.722 38.807 -0.181879
246.029 32.564 0.415654
360.879 23.7266 0.315355
473.257 36.5305 0.541025
350.139 9.95426 -0.59189
400.036 40.6422 -0.419574
564.078 81.8973 0.50332
42.743 12.7147 -0.236672
278.369 43.085 -0.3047
345.559 34.6722 -0.476257
368.915 22.9475 0.327292
415.312 74.6625 0.352745
558.369 64.0922 0.196205
525.191 84.0069 0.370952
211.171 35.0222 -0.413285
12.4151 32.8586 -0.187979
519.348 86.9037 0.122653
404.301 64.9958 -0.448881
214.504 40.2302 0.127057
522.97 48.266 -0.16283
138.76 9.46423 0.272192
333.78 28.4969 -0.276059
407.433 55.6678 -0.109448
372.606 22.4648 0.325318
559.183 81.1573 -0.300133
383.211 4.99328 0.659322
43.5346 27.5486 0.315786
411.754 44.1032 -0.33621
380.59 61.1818 -0.349034
579.932 83.1459 -0.256111
551.469 38.7357 0.354377
446.566 45.0936 -0.189289
573.061 78.3289 0.456038
274.456 2.43701 -0.505732
344.852 37.2002 0.61418
25.0125 43.6979 -0.326756
553.161 44.1498 -0.175335
494.31 39.2376 -0.483973
409.389 2.62204 0.721174
115.039 4.69757 -0.38449
382.218 48.08 -0.102544
10.4422 0.956947 0.453444
589.256 7.81702 0.339871
339.887 49.9305 -0.434779
493.355 24.154 -0.382298
[...]
POINT_DATA 13483
TENSORS Strain_matrix float
-2.22788 0.748647 6.74244 
0.304021 0.607514 -5.42567 
4.57601e-19 3.96299e-18 1 

-3.34075 4.35267 84.3572 
0.187222 1.02874 9.41202 
-2.82021e-18 5.07637e-18 1 

-0.222169 -0.0330898 -4.16692 
0.0126975 -0.00299374 1.75609 
-1.69478e-18 1.0036e-17 1 

-1.27418 1.08804 1.03909 
-0.346612 0.356329 0.176221 
1.4087e-17 3.53127e-18 1 

-0.76007 0.100944 -1.82741 
-0.23975 0.139397 0.699257 
9.4175e-18 1.25164e-17 1 

-0.578 0.278726 -0.400144 
-0.108159 0.30586 -0.438196 
5.35402e-18 -3.65717e-18 1 

-0.155736 -0.00671023 -0.139778 
-0.0315983 -0.0756549 0.309274 
-3.88062e-18 -6.13388e-18 1 

-0.356046 -0.641273 0.132133 
0.46885 0.41437 -0.110487 
-1.16262e-18 2.22235e-18 1 

-0.696855 0.0181882 -1.75533 
-0.768897 0.167978 -0.887944 
-2.9809e-17 1.58752e-18 1 

-0.307557 -0.214725 -0.246575 
0.325785 -0.030066 -0.0134211 
4.6783e-18 -8.74104e-18 1 

-0.124999 -0.00646612 0.0649687 
0.0502445 -0.07121 0.0707641 
-7.08878e-18 -9.6933e-18 1 

-0.247095 -0.0274229 -0.488467 
-0.0836712 -0.0742459 -0.456607 
4.69533e-18 4.05087e-18 1 

-0.452626 0.261161 1.44956 
-0.142421 0.175979 -0.462202 
3.75183e-18 1.59879e-18 1 

-0.772616 -0.173193 0.200005 
0.670818 0.335084 0.10488 
-4.80427e-18 8.32168e-18 1 

-0.394489 -0.0709834 -1.16293 
0.0280124 0.0326281 -1.71141 
2.89529e-18 -3.23775e-18 1 

-0.155803 -0.0377588 1.07711 
-0.0796065 0.0103135 0.38081 
-1.97346e-17 1.17124e-17 1 

-0.0992917 -0.04077 0.0698142 
0.0264587 -0.110257 -0.0441793 
3.45282e-18 6.71592e-18 1 

-0.521354 0.0323994 0.186685 
0.0454769 0.0462701 -0.648168 
2.44199e-17 1.02939e-17 1 

-0.530181 -0.136884 -1.08051 
0.0437192 0.191248 -0.143618 
-1.51695e-17 1.54397e-19 1 

-0.175177 0.0880853 0.00226647 
-0.275022 -0.161165 0.772476 
1.67162e-17 1.01212e-18 1 

-0.329797 -0.198666 0.17567 
0.186714 0.0721205 -0.253995 
-7.58392e-18 -5.08434e-18 1 

-2.65797 -0.916699 3.4868 
0.930479 0.87208 -4.2288 
-1.55152e-17 -8.67646e-18 1 

-16.1385 -0.399512 -17.2557 
-7.0863 1.06115 -4.05065 
2.74787e-18 -9.90048e-18 1 

-2.99192 1.30229 25.2502 
-1.83539 1.89433 -17.7869 
1.79255e-17 -1.16956e-17 1 

-0.655722 -0.250113 3.95465 
0.384446 0.270282 0.362646 
9.90295e-18 4.81587e-18 1 

-0.387483 -0.399325 -0.683134 
0.171084 0.259644 0.0870414 
-1.15374e-19 4.38423e-18 1 

-0.265543 0.0507089 0.0641565 
-0.0293972 0.09652 0.168286 
-1.6376e-17 -1.0845e-17 1 

-0.493734 -0.976643 -1.48246 
0.145603 0.272197 1.01422 
-7.74316e-18 8.18383e-19 1 

-0.171365 -0.075531 0.277191 
0.156881 -0.0894038 -0.3368 
1.51759e-17 3.6575e-18 1 

-0.985852 -0.386561 -0.910292 
0.247153 0.373265 -0.327378 
-2.62126e-18 -2.27427e-17 1 

-1.20495 0.330577 -0.267643 
-0.0297282 0.418711 -0.68647 
-7.9451e-18 -1.08189e-17 1 

-0.3987 0.0617898 0.655399 
-0.0486596 0.165914 0.00841752 
1.05412e-17 6.35065e-18 1 

0.256768 -0.936962 1.08043 
0.714552 0.387824 -0.506778 
8.61323e-18 1.45283e-17 1 

-1.23619 0.570789 3.03967 
-0.304104 0.580355 1.04313 
-1.48836e-17 3.68331e-18 1 

-0.122312 -0.14288 0.243336 
0.0818839 -0.130468 0.398553 
-9.58288e-18 -2.45268e-17 1 

-3.23008 -3.82618 15.2748 
0.896664 2.45089 -5.70424 
-3.2876e-18 -1.43459e-17 1 

-0.398439 0.0761848 -3.07445 
-0.0641371 0.0342684 0.990362 
-9.67107e-18 6.63375e-18 1 

-0.490519 -0.0526624 -0.441283 
0.0289779 0.180788 -0.756389 
-2.99802e-18 -1.24418e-17 1 

-3.72578 -4.12421 -3.19439 
2.43052 3.11254 -0.863825 
6.42153e-18 7.42044e-18 1 

-0.560948 -0.0356256 1.32216 
0.156467 0.240555 1.64508 
1.73736e-18 -2.67115e-18 1 

-0.157156 -0.0296135 -0.0856989 
0.0183725 -0.021814 0.263174 
-1.6761e-18 -1.27279e-17 1 

-0.333805 -0.405171 -0.390232 
0.696308 0.248927 -0.765489 
2.9007e-18 1.0871e-17 1 

-0.509017 -0.300503 -0.331469 
0.0963177 0.0202783 -0.46098 
3.0538e-17 1.0118e-17 1 

-0.212201 0.0825316 0.201149 
-0.0444013 -0.0178097 -0.246983 
5.66708e-18 -8.60822e-18 1 

-0.183839 0.156343 -0.0723892 
-0.145193 0.000139449 -0.0146877 
-8.0307e-18 -2.07319e-18 1 

-0.185843 -0.117151 0.0610628 
-0.0408727 0.0292028 -0.111653 
7.8684e-18 -4.75383e-18 1 

-0.830793 0.22299 1.19371 
-0.740323 0.0429476 0.460552 
1.33674e-17 0 1 

-0.0793966 0.0477737 -0.124695 
-0.0365438 -0.0971412 -0.0270203 
-1.88622e-17 -8.70561e-18 1 

-0.441091 -0.934795 28.5087 
-0.0530042 0.369353 -10.8617 
-6.36518e-18 -1.04506e-17 1 

-4.18913 0.467488 5.61708 
-0.167196 -0.295794 1.40122 
-2.96806e-18 5.06616e-18 1 

-0.164056 -0.0733346 -0.0684344 
0.0238094 0.0449857 0.258057 
-3.48183e-18 -2.78121e-18 1 

-0.00319858 -0.589183 -0.791146 
0.692648 0.240609 0.782206 
-5.19573e-19 7.17011e-18 1 

-0.257579 0.0101687 0.863833 
-0.111811 0.104606 -0.13914 
-1.67028e-17 -1.81579e-18 1 

-0.347404 0.321846 -0.00271197 
-0.0680225 -0.0123329 0.426808 
-6.37882e-18 7.41307e-18 1 

-0.414267 -0.101555 -0.163502 
0.0782097 -0.0183575 0.296247 
-1.79909e-17 -8.27991e-18 1 

-1.27031 -0.340323 -4.09613 
0.275874 0.535906 -0.222635 
-6.89547e-18 1.76055e-18 1 

-0.379334 0.0977964 -0.646425 
-0.28115 0.177705 0.670571 
1.16495e-17 3.72784e-18 1 

-0.149359 0.196803 -0.0838241 
0.00300207 -0.0620546 -0.296908 
-2.57008e-18 1.12647e-17 1 

-0.12686 -0.0779007 -0.08433 
-0.0221177 -0.0548276 -0.405208 
-7.10871e-18 7.21978e-19 1 

-0.602562 -0.342853 0.420393 
0.185425 0.33566 -0.205341 
-1.30912e-17 -4.09101e-19 1 

-0.579809 -0.524709 0.629365 
0.262774 0.823714 -0.157982 
1.3709e-18 1.70506e-17 1 

-0.3111 -0.183618 -0.29934 
-0.125734 0.170038 -1.07119 
-1.41475e-17 8.22312e-19 1 

-0.16293 0.0343246 -0.329527 
0.0218589 -0.0581412 -0.452072 
-1.75166e-17 7.84708e-18 1 

-0.432394 -0.196036 7.30878 
-0.0123172 -0.0571849 4.4647 
1.13263e-17 8.69748e-18 1 

-0.361863 0.145264 0.756623 
-0.0615882 0.053371 0.732411 
9.52088e-18 -2.4572e-17 1 

-0.3842 0.166866 0.58042 
0.0338769 0.186091 0.35183 
6.58899e-18 4.43291e-18 1 

-0.58141 -0.597674 0.630856 
0.307595 0.186226 0.756269 
-3.10811e-18 -9.10232e-18 1 

-0.188008 0.237516 1.02293 
-0.0618233 0.252954 -2.46916 
-1.38338e-19 8.02363e-18 1 

-0.385302 0.0253156 -3.41903 
-0.138198 -0.0308846 -5.65646 
-6.94004e-18 -1.49889e-17 1 

-1.68157 -6.25562 13.1134 
-0.244985 1.52432 -1.95073 
-1.32131e-17 1.8168e-17 1 

-1.06628 -0.97785 1.34118 
0.712833 0.672101 -0.376577 
-3.42628e-18 1.5663e-17 1 

-0.133819 0.0070063 -0.162803 
-0.0641086 -0.04212 -0.0343092 
-9.25712e-18 -2.37214e-18 1 

-0.266326 0.290462 0.304875 
-0.7496 0.359698 -0.0479354 
-1.15753e-17 -1.81368e-17 1 

-1.05104 -0.371783 -1.41841 
0.039744 0.512192 -2.12871 
-1.16365e-18 4.39048e-18 1 

-0.186367 0.079277 -0.83062 
-0.179456 -0.0398535 -0.144095 
1.06854e-18 6.54277e-18 1 

-0.302254 0.115645 0.0755879 
-0.0681801 0.0848549 -0.0406635 
5.45346e-19 2.67395e-18 1 

0.296975 -0.867814 -1.25223 
0.836027 0.361556 -0.837493 
-8.04203e-18 -7.81686e-18 1 

-0.288545 -0.106657 -1.94051 
-0.019911 0.0516146 -0.817629 
4.81967e-19 -1.23705e-17 1 

-3.68103 1.09727 2.61984 
0.118081 0.220758 -1.02802 
5.05883e-18 7.91817e-18 1 

-0.795856 0.100738 -0.110315 
-0.121443 0.35228 -0.742909 
6.78787e-18 4.77452e-19 1 

-1.31716 -0.241131 1.23664 
-0.211892 0.492798 -0.273472 
-1.56377e-17 1.10209e-17 1 

-0.287346 -0.246891 -0.0481219 
-0.0767765 0.199051 -0.382232 
-1.9477e-18 -6.10933e-18 1 

-0.0843001 0.0512247 -0.0828655 
-0.00914582 -0.0158131 0.34256 
-5.90248e-19 3.76754e-20 1 

-3.01699 1.18617 6.06772 
-2.25887 1.61859 3.42242 
-4.40875e-18 -7.29081e-18 1 

-0.485163 -0.875019 2.43123 
0.438035 0.536282 -2.09627 
8.00968e-18 1.13761e-17 1 

-1.24204 0.584861 1.01923 
-0.255744 0.422866 0.86282 
-2.13014e-18 2.14043e-18 1 

-1.09575 3.80836 6.68436 
-0.018033 1.36722 1.10609 
-1.18411e-18 3.42132e-17 1 

-0.114647 -0.132234 -0.240049 
0.126001 -0.0801208 -0.187112 
8.66081e-19 1.2917e-17 1 

-5.13985 2.72454 1.29977 
0.463535 0.0611494 -0.0803426 
2.71287e-18 -5.15445e-18 1 

-0.267564 -0.0204569 -1.47887 
0.0370321 -0.0117302 -1.91853 
-5.64285e-18 -3.77065e-19 1 

-0.287919 -0.0352647 -0.704562 
0.0719443 0.12798 -0.434682 
-4.78742e-18 -7.97904e-19 1 

-0.338679 0.301197 -0.213303 
-0.023982 0.022749 0.0971803 
1.45746e-17 -7.44274e-18 1 

0.0417322 -1.12241 29.9338 
0.81737 0.249033 20.3353 
5.79118e-18 5.41686e-18 1 

-0.188454 -0.0416569 -0.157487 
0.00284912 -0.047027 0.047432 
4.43287e-18 9.08738e-18 1 

-0.137974 0.16643 0.555016 
-0.092344 0.0319893 -0.0802977 
3.83131e-18 -8.81202e-18 1 

-1.25904 0.328803 2.37012 
-0.373538 0.659312 -0.142445 
2.02142e-18 -5.32704e-18 1 

-0.179406 0.0186463 0.137219 
-0.0657604 -0.0635222 -0.462757 
-1.66423e-17 -5.60659e-18 1 

0.0146155 -0.853673 -1.2058 
0.338059 0.145799 -0.221828 
-1.95076e-18 1.51559e-17 1 

0.156621 -0.770311 0.233005 
0.682588 0.233706 -0.541273 
8.60459e-18 2.42004e-18 1 

-0.259723 -0.14137 1.70876 
0.108723 0.131197 0.197086 
-1.57512e-17 -7.79182e-18 1 

-0.170352 -0.0343627 -0.512214 
0.0191601 -0.0169429 -0.584349 
1.98299e-18 1.54707e-18 1 

-0.199768 0.309106 3.51941 
-0.18301 0.0807093 -0.87035 
-1.53715e-17 -2.89438e-18 1 

-0.625029 -0.360709 0.236278 
-0.225845 0.169777 0.162611 
-1.78631e-18 3.06225e-17 1 

-0.434773 -0.0194707 0.504735 
-0.077441 0.106445 0.343453 
-3.3723e-18 -2.73893e-18 1 

-0.751483 -0.0666006 -0.139987 
0.0622117 0.152858 -0.77597 
1.11476e-17 2.96519e-18 1 

-1.16214 -4.07508 0.837785 
0.77179 2.02486 -0.562408 
0 -8.14398e-18 1 

-0.490526 -0.573865 -0.744996 
0.524371 0.216247 -0.619239 
-1.41247e-17 7.49727e-18 1 

-0.213671 0.0515576 -0.928492 
-0.0217592 0.0161959 -0.796832 
-3.39944e-18 -1.80597e-18 1 

-0.445796 0.174386 -0.134759 
-0.19683 0.0584792 -0.464846 
-3.91095e-18 -4.69314e-18 1 

-0.906049 -1.87086 5.10111 
1.00561 0.923572 -4.64602 
7.58803e-18 1.87316e-17 1 

-0.308492 -2.10137 -97.0428 
0.0261073 0.605667 7.03338 
1.33089e-18 -8.15899e-18 1 

-0.486814 -0.0313489 0.676126 
0.28333 0.240053 0.0364976 
-8.43123e-18 1.41328e-17 1 

-0.216224 0.102278 0.227966 
-0.117386 -0.0913693 -0.146959 
1.73831e-18 2.75055e-18 1 

-0.378339 0.393953 -0.139343 
-0.162799 0.28698 -1.23057 
5.9852e-18 -7.19693e-18 1 

-0.199104 0.22448 -0.104653 
-0.276975 -0.0289829 0.386206 
6.19103e-18 -9.07352e-18 1 

-0.188364 -0.02916 -1.54251 
0.053221 0.0740387 -0.389335 
-3.39575e-18 4.99226e-18 1 

-0.181039 -0.0371654 0.0731599 
-0.0239079 0.00932881 -0.0456805 
2.20944e-18 1.17587e-17 1 

-0.239977 -0.0611104 -0.0221284 
0.137545 0.0426883 -0.0462428 
-8.92617e-18 -2.68672e-17 1 

-0.913647 -0.560679 0.0232944 
-0.068755 0.606029 -0.42735 
-8.44479e-19 4.22239e-18 1 

-0.160687 0.0812678 0.270053 
0.0121434 0.0107888 0.122994 
-1.20014e-17 1.13964e-17 1 

-1.19422 0.250621 -0.192106 
0.581633 0.186282 0.87743 
-2.28892e-17 -1.80408e-18 1 

-0.357381 0.0204113 -1.24809 
0.875963 0.083552 0.285224 
-1.66445e-18 1.51018e-17 1 

-0.149928 0.170552 0.285412 
-0.138569 0.0358062 0.0561706 
5.87211e-18 4.7223e-18 1 

-0.112008 -0.0257513 0.155529 
0.00960349 -0.0670475 0.153818 
2.6029e-18 -3.27375e-18 1 

-0.223439 0.000414414 -0.678021 
-0.116246 -0.0274189 1.30963 
3.57678e-18 -7.04625e-18 1 

-0.321341 -0.399546 -0.580796 
0.312538 0.00606987 -1.22644 
2.10257e-17 -1.41746e-17 1 

-0.227934 0.0368519 0.59279 
-0.0589924 0.0275437 0.123028 
6.28919e-18 -4.85688e-18 1 

-0.398086 0.26258 -0.832629 
-0.0703483 0.0976703 0.314211 
-2.71206e-18 2.64096e-19 1 

-0.128688 -0.43865 0.423814 
0.0702718 0.193543 -0.394083 
-1.08202e-18 5.09953e-18 1 

-0.323579 -0.0362593 -7.1313 
0.1197 0.0796616 8.40369 
5.64698e-18 1.57214e-18 1 

-2.08623 -0.354947 -0.0717151 
-0.127504 0.468435 0.190683 
-3.2632e-18 -1.75026e-18 1 

0.000620736 0.477658 0.136961 
-0.469839 0.105602 0.078104 
-4.60108e-19 1.84462e-17 1 

-0.595442 -0.164489 -0.885429 
-0.513717 0.120563 0.459058 
1.04904e-17 2.02819e-19 1 

-1.70325 -0.199102 1.71688 
-0.0309165 0.340415 1.00804 
2.49361e-18 -5.81323e-18 1 

-0.366714 -0.0416889 -0.978261 
0.209875 0.096504 -0.482391 
-1.49468e-17 3.88228e-18 1 

-0.183934 -0.190432 0.304527 
-0.015498 0.0222042 -0.189435 
-1.01467e-18 -7.55453e-18 1 

0.0228275 0.678464 0.187589 
-0.619025 0.176707 0.873784 
-6.9157e-18 -2.50452e-18 1 

-0.163013 -0.0861215 -0.140278 
0.00828471 0.040283 -0.0179633 
1.13374e-17 -1.74102e-17 1 

-1.1633 -0.158214 1.48749 
-0.829418 -0.00570378 0.551884 
9.21244e-18 9.21244e-18 1 

-0.0556783 -0.291391 0.0432889 
0.184392 -0.0320792 0.103181 
1.47462e-17 -2.35199e-18 1 

-0.779633 0.149543 -2.43315 
-0.50101 0.31708 -0.218876 
-6.13763e-18 -4.83255e-18 1 

-0.147822 0.292884 0.00410645 
-0.0992543 0.0420053 -0.0433435 
-7.00184e-18 -1.5799e-17 1 

-0.53882 -0.0380868 0.28298 
0.235054 0.0559438 0.31041 
6.87998e-18 -3.01588e-18 1 

-0.294976 0.0394417 0.834519 
-0.00318325 0.156041 -0.730402 
-7.79241e-18 1.75958e-18 1 

-0.120062 0.0159629 -0.146429 
-0.0296829 -0.0084826 -0.144863 
3.5696e-18 8.8731e-18 1 

-3.0401 1.85963 -10.2701 
0.556698 0.254009 -0.396708 
-2.46614e-19 5.08127e-18 1 

-1.23857 -0.0693045 0.234007 
-0.0362909 0.307823 -0.367348 
-4.43196e-18 -7.54211e-18 1 

-0.16599 -0.0445609 2.19133 
0.0330198 -0.0792244 1.31525 
1.57891e-17 1.13484e-18 1 

-0.442782 0.0111765 -1.76807 
-0.0689054 0.184564 -1.04003 
-2.54326e-18 6.81325e-18 1 

-0.23747 -0.0551953 0.00194526 
-0.0751166 0.0109399 0.208923 
4.18905e-18 1.07882e-17 1 

-0.252677 0.0232657 -1.35916 
-0.122745 0.0978836 -0.803858 
-9.55727e-18 -4.24767e-18 1 

-0.285076 0.178425 0.144646 
-0.0695314 0.00527439 0.051106 
9.66049e-18 7.71856e-18 1 

-0.23241 -0.140177 -1.23582 
0.165055 0.0221583 2.04878 
-8.74338e-18 4.59028e-18 1 

-0.171371 0.166228 0.290952 
-0.0375262 -0.065649 -0.359198 
-3.37255e-18 -1.05701e-17 1 

-0.195869 -0.00865267 0.387048 
-0.0213608 -0.0343348 -0.0309049 
-1.47339e-18 -3.00818e-18 1 

-0.385998 -0.0402578 -0.243797 
-0.148607 0.0734122 1.98865 
-6.18892e-18 4.71829e-18 1 

-0.591926 0.0171139 2.88893 
-0.186322 0.29799 1.78148 
-5.03193e-18 -1.04256e-17 1 

-0.182632 -0.0225195 0.764095 
0.00916592 -0.00153025 0.138373 
-2.20285e-19 -7.18353e-18 1 

-3.2127 0.605077 8.8337 
-0.643674 0.629308 -20.5074 
-9.17132e-18 -1.05007e-17 1 

-2.7676 -0.416569 127.784 
-0.0902603 0.863849 54.8827 
-1.85526e-18 4.26189e-18 1 

-0.165094 -0.0976442 0.681531 
-0.135625 0.134085 -0.0616611 
-2.91455e-18 -2.45157e-18 1 

-0.764792 2.46158 61.2288 
-0.131793 -0.283288 -2.93559 
-1.06412e-17 2.09113e-17 1 

-1.2142 -1.62273 -0.184054 
0.486242 0.908744 -6.23242 
4.40117e-18 -2.26006e-18 1 

-2.60165 -1.99426 -18.79 
1.0307 1.39729 8.75874 
-6.32174e-19 -1.10709e-18 1 

-0.441689 -0.153458 0.0219989 
-0.225012 0.0790163 -0.163824 
1.36854e-17 1.89208e-17 1 

-1.50708 0.727906 -0.869137 
-0.150321 0.378822 0.165292 
8.56429e-18 -1.42873e-17 1 

-0.175068 -0.0167815 -0.0281435 
0.0501759 -0.0342048 0.0275844 
1.9793e-18 -6.39468e-18 1 

-0.432241 0.0990454 -0.121498 
-0.00335563 0.0631993 0.0134648 
-1.06537e-17 -1.06537e-17 1 

-0.163327 -0.0261895 -0.0801785 
0.0165997 -0.0719503 -0.26459 
1.58303e-17 -4.05463e-18 1 

-0.251835 -0.100292 0.100436 
0.031357 -0.0101701 -0.599055 
-1.35224e-18 1.12011e-17 1 

-0.290993 -0.0544014 0.706149 
-0.0533471 0.108872 -0.937893 
-8.91748e-18 5.0957e-18 1 

-0.167235 0.0615364 -0.602266 
-0.164408 0.0175138 -0.508685 
-2.90609e-18 -7.07793e-18 1 

-0.248488 -0.0400687 0.288647 
-0.0271574 0.0917338 -0.761629 
1.77714e-17 -6.85163e-18 1 

-1.52642 -1.13942 -0.588733 
0.317679 0.730071 1.2745 
1.55579e-17 -5.8571e-18 1 

-0.137152 0.348186 0.549036 
-0.139847 0.0934005 -0.314408 
1.10546e-17 1.08607e-17 1 

-0.901107 -0.996198 0.785697 
0.606368 0.556238 1.60684 
1.90152e-18 -6.59436e-18 1 

0.141714 -0.801157 0.815459 
0.761647 0.317647 -0.36521 
-8.16752e-18 -9.60885e-19 1 

-0.192836 0.0790028 0.0955093 
-0.0336306 -0.0377957 -0.111689 
-1.33881e-18 -4.81973e-18 1 

-1.49616 -1.1009 2.9162 
0.730738 1.26833 -2.03094 
-1.01851e-17 2.08934e-17 1 

-0.257912 -0.191304 0.022295 
0.197957 -0.306308 -0.333534 
-1.15393e-17 -1.61223e-17 1 

-0.386868 0.0184635 -2.46194 
0.129429 0.0965558 0.998606 
-4.18725e-18 6.77477e-18 1 

-3.23228 -2.30449 16.3216 
-0.320432 0.395543 -11.9668 
-9.00995e-18 4.69011e-18 1 

-0.910454 -0.610104 2.18234 
0.520969 0.390292 -0.855508 
2.73974e-17 -8.8959e-18 1 

-0.147992 0.0226088 1.31445 
0.0355401 -0.0438734 0.217518 
-6.85794e-18 2.72003e-18 1 

-0.763284 0.308174 0.141595 
0.116295 0.156004 0.155583 
1.90422e-17 9.08217e-18 1 

-0.207432 0.00192839 -0.104407 
-0.0384037 -0.081065 0.262185 
-1.64374e-17 -2.38608e-17 1 

-0.639792 -0.174452 0.151853 
-0.322822 0.043366 -0.201742 
-4.25449e-18 9.93235e-18 1 

-1.24054 -1.4798 1.94675 
0.94023 1.11606 -0.424341 
3.15891e-18 -6.21089e-19 1 

-0.183164 -0.0240641 0.094124 
-0.00554991 -0.0286869 -0.0615389 
9.57338e-19 -2.81025e-18 1 

-0.590239 -0.137529 0.605693 
-0.000589116 -0.000984829 -0.60318 
4.72807e-18 -3.85e-18 1 

-0.665517 -0.522475 -0.36093 
0.271952 0.420293 0.313394 
9.52877e-18 -1.21957e-17 1 

-0.565293 0.498521 0.456941 
-0.251303 0.290174 0.324926 
1.98661e-18 1.41813e-17 1 

-0.890924 1.00038 20.4924 
0.0846412 0.199327 0.472395 
9.26696e-18 -1.84138e-17 1 

-0.888265 -0.337103 8.67046 
0.256498 0.427855 -7.59696 
3.42858e-18 9.72685e-18 1 

-0.698877 -0.867974 -0.904695 
0.680545 0.639534 -0.691101 
6.55052e-19 -1.49817e-17 1 

-0.852135 -2.21434 -14.7796 
0.197705 1.61063 -3.29798 
-9.96659e-19 -8.89327e-18 1 

-0.691322 -0.117312 -1.83484 
-0.0201111 0.0858241 -1.44044 
1.41317e-17 1.80451e-17 1 

3.31844 -6.89976 -15.0996 
-0.171526 0.57058 -0.0470435 
-2.56084e-18 -8.26453e-18 1 

-0.673396 0.372465 0.0782762 
-0.652291 0.277183 0.511998 
1.9199e-17 -3.84088e-18 1 

-0.2083 0.0119602 -0.714294 
-0.140365 -0.0203485 -0.788552 
2.49502e-18 -1.20449e-18 1 

-0.401254 -0.0612233 -0.99753 
-0.132566 0.268264 0.377131 
1.59487e-18 5.56351e-18 1 

-0.180044 0.0259415 0.494162 
-0.0341438 -0.000486021 0.144825 
-3.59027e-18 1.79514e-18 1 

-1.26849 -0.299076 -1.11409 
0.139131 0.578919 0.995762 
9.7626e-19 -1.17847e-17 1 

-1.11095 -4.39793 8.63732 
0.13477 0.981127 -1.37277 
-1.07048e-18 1.01452e-17 1 

-0.277508 0.0906368 -0.246008 
0.037069 -0.0226992 -0.165196 
5.88916e-18 3.74764e-18 1 

-0.431032 0.20254 1.55408 
0.0703751 0.116656 0.99164 
-4.11452e-18 -1.03654e-17 1 

-0.122617 -0.0419997 0.088595 
0.00693378 -0.0206293 0.743658 
6.2585e-18 -2.8121e-18 1 

-0.110951 0.0547695 -0.186755 
0.0123035 -0.0140108 0.325662 
1.02036e-17 -1.04495e-17 1 

0.198973 -0.888555 -0.133553 
0.80104 0.397301 0.28221 
5.31579e-18 -1.17538e-17 1 

0.272424 -3.52915 -28.0391 
-0.19155 0.634883 6.16371 
4.48194e-18 1.12251e-17 1 

-0.386299 0.155559 -1.04347 
-0.120497 -0.00719813 0.550032 
-1.46782e-18 -9.46982e-20 1 

-0.471802 -0.325983 -1.62764 
0.36576 0.144546 -0.469415 
-5.93363e-18 5.05707e-18 1 

-0.157642 0.0964516 -0.789057 
-0.0267134 0.0377132 -0.0652427 
-4.84159e-18 1.14797e-17 1 

-0.204887 0.0365625 0.291506 
-0.0341513 0.0301689 -0.534221 
1.09195e-17 1.3437e-17 1 

-0.663505 -1.02458 2.66004 
0.0871043 0.119272 -0.777342 
1.07077e-18 -8.27299e-18 1 

-0.72939 -0.0113943 2.57312 
-0.47393 0.3581 0.436725 
-2.65777e-18 -4.62818e-19 1 

-0.255543 0.336905 0.319358 
0.0208214 0.000557295 -0.0766357 
-8.54344e-18 8.80296e-18 1 

-0.156908 0.00825751 1.46799 
0.0778458 0.0618362 0.517761 
2.12884e-18 -8.74822e-18 1 

-0.0855474 -0.516237 23.7082 
0.138709 0.0452362 24.4956 
3.76685e-18 8.10312e-19 1 

-0.393582 0.186825 0.0403277 
-0.393957 0.25574 1.73851 
2.03439e-18 2.132e-17 1 

-0.618511 0.416072 -4.84659 
-0.0623052 0.180364 -0.313942 
4.83176e-18 3.30071e-18 1 

-0.548934 -0.593316 0.460422 
0.429366 0.0568028 -0.588057 
1.10925e-17 8.86091e-18 1 

-0.13662 -0.0306183 0.244389 
0.0285284 -0.0185449 -0.186816 
-1.26008e-18 -1.40409e-17 1 

-0.918278 -0.472722 -15.6762 
0.109815 0.458442 12.702 
-2.13679e-18 7.18222e-18 1 

-0.144089 -0.388312 0.608023 
-0.14665 0.0778429 -0.0198237 
-5.37358e-19 4.36175e-18 1 

-0.257193 1.20381 -0.115935 
0.00655341 0.260604 0.339778 
8.51656e-18 -1.36904e-16 1 

-0.13549 -0.0169482 -0.0635764 