# vtk DataFile Version 3.0
Output file generated by Yade's KinematicLocalisationAnalyser
ASCII
DATASET UNSTRUCTURED_GRID

POINTS 13483 float
631.626 30.0666 0.40088
807.989 57.9659 -0.44926
123.402 6.02944 -0.478354
835.064 6.06199 0.52698
515.566 7.70448 -0.262684
324.265 35.1261 -0.450941
160.787 6.91625 0.448319
590.676 10.2218 0.163523
511.995 23.8357 0.142228
755.578 14.1468 -0.38067
216.367 8.82672 -0.11245
264.276 6.31595 -0.261642
680.17 30.1303 -0.143264
658.816 14.2405 0.0705566
140.805 17.176 0.447857
227.631 34.5148 -0.393045
223.778 12.8892 -0.29211
297.329 9.5416 0.386663
351.016 33.3875 0.475212
541.946 8.62002 0.345687
424.144 37.1252 0.0951893
613.472 45.1131 0.296049
833.108 35.9069 -0.495824
730.642 43.6547 -0.509834
473.278 16.2061 0.313536
248.028 44.2152 -0.125338
507.441 28.177 -0.45666
608.628 20.0673 -0.247967
46.4777 15.2259 -0.456256
752.076 38.2172 -0.317511
497.838 4.92819 0.325175
17.1411 23.132 0.304097
821.347 58.7065 0.262134
511.294 2.4805 0.486443
80.4892 44.7326 -0.10003
539.173 30.5777 -0.341082
548.621 16.6195 -0.420066
354.033 22.1234 -0.187376
552.245 25.4973 -0.318865
361.566 33.3072 0.440234
247.926 14.4894 0.362883
448.064 36.4685 0.0737757
706.823 7.12763 0.238602
198.224 6.2035 0.376548
57.3375 6.95315 -0.0640659
70.8454 8.92659 -0.293635
724.139 8.441 0.539591
24.307 11.7563 -0.290389
634.056 46.2183 0.370334
711.025 24.5846 0.310534
177.275 32.5421 0.316391
807.513 43.5922 -0.135194
36.2665 28.1248 0.110782
552.536 2.99381 0.318745
146.137 7.53258 -0.476282
616.286 34.553 0.429818
521.031 26.9322 0.112504
179.752 0.9426 -0.269699
33.7 2.36603 -0.326581
359.645 17.7161 0.254681
645.967 48.1272 -0.141797
477.146 32.5849 -0.209025
412.345 1.03759 0.19504
736.817 9.03073 -0.308364
27.6619 42.9905 0.235719
264 30.481 -0.318714
754.913 9.72639 -0.348246
699.68 47.4413 0.367965
431.444 8.67326 -0.47321
591.419 3.65473 -0.346167
783.099 37.1906 0.406533
134.531 7.61881 0.287217
514.886 25.9564 -0.143751
493.193 15.0379 -0.13782
303.609 16.5761 -0.353686
21.4628 13.61 0.274012
832.438 50.9472 0.330258
343.532 38.9825 -0.292656
707.226 20.8497 0.359438
723.949 12.4654 0.280697
823.885 15.691 -0.363627
480.49 34.6128 0.178049
95.3288 39.0982 -0.281481
717.826 36.952 -0.262084
676.449 40.5136 -0.12446
836.731 45.4443 -0.122306
818.574 1.04736 -0.579357
300.504 29.7844 0.42844
647.398 6.43563 -0.118888
25.2381 5.37027 -0.516832
137.162 38.3597 0.160759
530.641 14.5734 0.227813
814.603 36.1494 0.524632
201.45 28.7923 -0.237884
45.9257 34.5311 0.303769
510.188 1.15794 0.135433
243.095 8.88215 -0.385494
786.142 47.1631 -0.328458
805.094 33.0179 0.222735
373.659 20.6801 -0.253978
168.412 27.1387 0.428494
571.239 39.1193 -0.446585
393.416 15.2326 -0.441257
428.038 30.1108 0.10891
391.399 4.47259 0.416369
569.279 10.6911 -0.104638
839.906 13.5677 0.208209
82.9044 39.6039 -0.393421
346.919 4.79646 -0.185974
583.97 9.66911 -0.354735
373.12 43.46 0.448337
26.6651 24.5431 0.464081
31.5699 5.7234 0.325475
591.903 33.7114 0.493419
524.082 24.2393 0.149363
27.3933 36.7734 0.283604
96.5174 31.4218 0.223439
336.476 15.9002 -0.298662
626.005 18.8301 -0.136937
493.011 38.2074 0.301235
770.543 8.55262 -0.627232
764.296 6.03302 0.233612
401.503 37.1468 -0.100278
664.574 26.7686 -0.117174
246.402 17.2461 0.530458
341.959 3.69164 0.467231
107.106 32.0224 -0.372936
119.801 24.2004 0.243926
566.272 38.9354 0.0652647
317.101 18.7189 0.483784
747.131 40.0877 -0.142773
703.275 46.9911 -0.134935
499.15 20.8609 -0.380629
803.994 10.1516 0.346426
445.396 24.1578 -0.232297
287.728 23.9657 -0.292472
707.34 33.3402 -0.31181
289.234 28.9227 0.412243
602.408 12.4259 -0.205519
344.614 35.7361 0.208082
525.02 11.4099 0.477119
381.198 31.3346 0.0923614
447.512 17.1127 -0.10897
330.511 41.9621 0.39088
197.592 30.0508 -0.128558
812.508 57.6868 0.164728
836.936 15.135 -0.303678
6.14402 12.2367 0.445117
451.895 22.5422 -0.424134
40.0803 22.5667 -0.092111
391.662 31.2718 0.482677
411.282 25.0863 -0.261022
77.6072 11.7891 -0.491198
53.9609 33.3147 0.352677
234.484 13.6262 0.43818
647.935 41.4912 0.441781
604.595 21.118 -0.430412
78.0695 21.0295 -0.497346
732.723 46.5106 0.540186
790.617 3.70826 -0.559169
693.875 40.5253 -0.518931
732.247 2.79523 0.396635
575.436 26.6274 0.398171
614.89 45.8724 -0.456553
534.559 18.0953 -0.401779
832.346 2.52237 0.41108
232.093 24.809 -0.124871
132.795 35.5865 -0.202895
257.021 6.61282 -0.391275
98.0699 4.4425 0.273917
67.0919 10.0822 -0.194233
287.066 35.8975 -0.325585
17.5949 24.8079 -0.373009
581.648 19.1625 0.409796
634.292 41.1929 0.192814
483.068 21.1644 -0.371342
838.399 67.7402 -0.346568
424.449 8.58947 -0.111916
454.612 37.0111 0.362413
561.232 3.43526 -0.187996
23.7239 23.8472 -0.385917
604.765 4.57795 0.472365
571.412 4.26694 -0.295093
214.536 11.2615 0.479683
443.513 16.3786 -0.19849
324.405 6.3357 0.344968
404.841 18.8869 -0.334835
776.055 53.2072 0.110292
200.527 25.3095 0.444949
813.425 8.48265 -0.453921
775.676 49.1691 0.384206
400.059 10.2773 -0.158641
753.115 2.9064 0.501911
633.881 26.0501 -0.422307
774.409 23.3763 -0.366191
449.895 43.5567 -0.298351
519.142 12.5794 0.359249
485.959 44.3865 -0.226539
465.317 8.59005 0.124352
697.647 40.8218 0.284055
695.016 36.3695 0.323981
199.862 39.1596 0.277916
821.631 15.4447 -0.18902
616.538 45.9844 0.2522
11.748 16.779 -0.219228
425.778 25.0675 0.3367
195.061 23.5078 0.394591
96.944 40.0286 0.201172
808.868 27.7416 0.450908
690.784 44.4108 -0.252113
333.202 25.5753 0.347804
558.091 10.2209 0.321613
85.6548 44.6893 -0.171949
258.203 25.7984 -0.471508
584.414 24.7905 0.36302
509.169 18.7855 0.385425
273.931 0.889106 -0.343475
580.682 41.2423 -0.391236
559.614 40.7549 -0.477271
504.387 33.9039 0.415931
522.446 0.829806 -0.54067
739.941 21.4946 -0.37496
187.055 12.1119 0.165528
523.932 36.9248 -0.459473
593.07 40.8835 0.138474
76.2139 0.954129 0.269994
262.438 4.73644 0.173349
836.329 17.1302 0.218313
823.703 17.692 -0.430372
842.115 18.3947 -0.460312
316.767 8.61458 -0.233715
782.393 29.1149 0.40129
425.622 42.2512 -0.333883
469.628 0.811403 -0.399166
682.048 37.7526 -0.553954
28.3924 30.5859 -0.304971
345.621 41.6313 0.561286
263.306 2.8668 0.323671
826.972 57.7273 -0.221172
747.971 52.9876 -0.250123
299.941 10.9059 0.225428
702.053 29.9018 -0.0831541
585.837 2.57828 0.267652
569.112 6.33694 0.426402
100.939 18.4213 -0.50123
316.679 1.03946 -0.225911
358.797 2.27344 -0.359158
14.683 7.59392 -0.408368
4.57603 31.1183 0.259928
169.072 18.463 -0.344836
71.2794 41.7898 0.216943
69.8901 28.9798 -0.334052
443.368 14.533 -0.42723
384.222 35.0067 0.471072
805.338 44.5531 0.121868
20.5415 4.11286 0.269044
73.9036 6.92346 0.135591
656.39 38.3344 0.14791
307.871 0.913918 0.362639
382.088 15.9484 -0.0926357
245.96 4.59101 0.398887
687.141 21.9149 -0.163333
472.85 8.34972 0.416287
784.461 28.1151 -0.42381
663.832 29.7977 -0.321208
705.919 19.2535 0.0652781
440.277 27.299 0.479364
106.618 45.2191 -0.318293
569.773 42.804 0.0753264
772.869 17.7194 0.262029
248.318 30.4045 -0.250296
33.6383 16.8384 0.197058
351.842 13.6908 0.496009
112.395 40.8259 0.478005
279.821 42.2577 -0.194838
445.672 1.60337 -0.303359
819.128 39.2941 0.408907
724.724 0.808996 0.513839
347.486 3.18242 0.526028
313.704 26.7236 0.136405
485.033 41.1795 0.21759
85.4063 8.11882 0.456792
206.499 44.9731 0.377747
808.336 37.1388 -0.384275
519.213 39.5155 -0.0807466
208.906 41.2338 -0.265206
168.099 42.4896 -0.0731891
839.371 41.3674 0.447824
838.318 13.9224 -0.584285
638.406 3.21515 -0.613922
198.784 25.0037 -0.111056
577.505 29.0298 -0.0995132
579.512 28.555 0.272224
429.05 5.67428 -0.136342
505.063 0.926141 -0.292653
802.743 46.9607 0.476465
89.0053 31.3149 0.222225
693.524 18.9373 -0.435527
286.904 15.4703 -0.349592
10.26 2.3305 0.347441
131.265 37.3061 -0.199941
70.3294 23.1086 0.464754
741.547 38.7184 0.353196
825.37 66.3725 0.170301
193.836 28.5262 -0.176432
831.895 15.1578 0.379505
47.3957 36.6279 -0.254911
95.3531 29.7921 0.151352
668.435 12.7671 -0.477054
433.896 17.4542 -0.597872
545.291 16.5714 0.10539
248.877 28.4892 0.185374
654.814 4.44053 -0.402694
841.058 11.891 0.363944
31.3576 31.6236 -0.281811
282.582 7.64118 0.179712
232.076 15.3722 -0.277431
1.08871 35.7034 0.145589
235.52 14.5733 -0.381908
221.299 10.9203 0.125332
223.694 26.1532 0.267673
139.409 28.0194 -0.119568
575.594 15.2459 -0.323293
174.619 14.0846 0.369264
820.747 56.863 0.226278
181.848 3.80669 0.509545
49.7481 37.7342 -0.408457
783.172 59.8388 -0.426115
294.308 31.9671 -0.385251
714.728 24.8638 0.450867
827.29 39.6774 -0.542634
314.792 9.245 -0.10422
772.292 37.7241 -0.325842
344.294 2.58808 -0.378791
436.471 24.4521 0.364322
711.469 15.414 0.455104
110.407 11.7605 -0.425593
506.724 3.94924 -0.47332
786.288 24.2419 0.161037
92.57 7.72659 -0.238218
294.843 14.6528 0.19259
444.324 11.8755 -0.222874
831.969 4.31309 0.538805
417.379 1.9629 -0.521669
184.798 38.9569 -0.306076
775.867 15.2029 -0.379281
134.619 36.6003 0.191864
275.691 31.3415 -0.412171
420.152 21.5721 0.21715
604.903 14.1936 -0.332246
406.044 9.8757 -0.473551
478.981 27.3235 -0.424281
808.031 59.3223 0.370609
50.0066 10.8476 0.113514
313.622 38.2779 -0.276318
398.182 26.3364 -0.379127
430.116 21.1968 0.238643
547.748 44.4806 0.356422
795.569 44.1542 0.258019
700.711 35.7209 0.367001
236.107 34.3613 0.376468
14.6389 31.4598 0.162566
693.326 37.1943 -0.158436
535.04 41.1703 0.417131
240.162 39.494 -0.108101
720.586 32.8318 0.108865
158.021 9.39064 -0.199943
384.395 21.3028 0.280609
486.748 42.3629 0.108122
434.331 19.0609 0.209601
804.532 58.3491 -0.36148
447.201 3.85319 0.505028
52.2669 25.3453 -0.294036
493.404 31.8346 0.322745
456.287 42.1961 0.394448
825.964 52.8973 -0.219241
768.934 38.3507 0.221005
570.204 18.3101 -0.130862
816.236 51.2999 -0.479298
307.417 2.18013 -0.473232
397.255 29.8126 0.532382
30.5791 38.6924 -0.300956
773.873 39.0932 -0.13862
643.286 20.0922 -0.522581
485.963 0.77228 -0.482417
131.906 4.55332 0.273442
447.728 40.9088 0.11749
12.7689 0.908401 -0.313812
832.055 7.5965 0.20764
388.593 39.2174 -0.415616
[...]
POINT_DATA 13483
TENSORS Strain_matrix float
-0.333886 -0.13934 -0.154288 
-0.0382169 0.106605 0.738828 
-3.17597e-18 2.49734e-18 1 

-0.27741 -0.684223 1.19879 
0.654729 0.41777 2.46283 
1.30396e-19 -1.59865e-17 1 

-0.0930175 -0.0182887 -1.01053 
0.00589767 -0.0728161 2.20901 
-2.04176e-18 1.655e-18 1 

-1.03932 0.390404 -1.24973 
-0.156909 0.33712 0.943713 
3.98529e-18 1.49076e-17 1 

-0.247376 -0.0727219 -0.0316205 
0.0147003 0.0244884 -0.405006 
-5.19573e-20 -1.66783e-17 1 

-0.0797512 -0.00965251 0.101135 
-0.0118731 -0.0355835 -0.0120623 
-8.707e-18 1.01892e-17 1 

-0.091533 -0.0143336 0.480902 
-0.00785752 -0.0672581 0.619787 
-6.33959e-18 -2.82027e-18 1 

-0.0890191 0.0321347 -0.0903222 
0.0296494 -0.0743374 0.0113524 
-1.18861e-18 -2.56008e-18 1 

-0.115199 -0.118153 0.592107 
0.0347067 0.00534029 0.113957 
1.54496e-18 -7.03815e-18 1 

-0.239729 0.300899 -0.0901347 
-0.28838 -0.0760968 -0.41128 
5.36694e-18 -3.76551e-18 1 

-0.0572467 0.00452783 -0.0247459 
0.00227553 -0.0659073 0.0073523 
3.11833e-18 8.9309e-18 1 

-0.0888529 -0.0377075 0.192256 
-0.0752363 -0.0942442 0.0595743 
5.23725e-18 -2.97249e-18 1 

-0.307119 0.145083 -0.50746 
0.0516676 0.193718 -0.14011 
-5.52187e-18 -4.1414e-18 1 

-0.120257 -0.105443 -0.131715 
0.152395 -0.0321094 0.0980173 
-7.99876e-18 4.49634e-18 1 

-0.0953542 -0.0214478 0.443878 
-0.00160205 -0.0329519 -0.0979873 
1.68756e-18 -8.91031e-19 1 

-0.0827948 0.0189338 0.258984 
-0.0223278 -0.0218622 -0.220132 
7.0902e-20 5.58058e-18 1 

-0.0819678 -0.0458508 0.0271019 
0.0158063 -0.110179 -0.0133341 
-3.4318e-19 2.71684e-18 1 

-0.150184 -0.013384 -0.0438634 
0.0170336 -0.0676303 -0.00756177 
-4.10202e-18 5.33437e-18 1 

-0.122907 0.0443623 -0.162594 
-0.0277972 -0.0308713 -1.20407 
-9.01423e-18 3.49643e-18 1 

-0.0955652 0.0319023 0.153075 
-0.0737841 -0.0729879 0.231578 
-7.01747e-18 -2.28806e-17 1 

-0.207009 -0.0756898 -0.229525 
0.0826112 0.0107375 0.00830906 
-1.26101e-19 -3.92315e-18 1 

-0.287325 0.216789 -0.0184986 
-0.0951577 0.109157 -0.153671 
9.32502e-18 7.13324e-18 1 

-0.792631 -0.116701 -8.09575 
0.0845982 0.473767 -4.09702 
2.87476e-18 -4.41003e-18 1 

-0.2352 -0.0852762 1.50071 
-0.0756539 -0.00712567 -4.26872 
-8.46674e-18 2.59328e-18 1 

-0.069899 -0.0400542 -0.220805 
0.107062 -0.0331862 0.0387138 
4.30764e-18 -5.96146e-19 1 

-0.0462541 0.0474632 0.357269 
-0.0779833 -0.000608903 -0.0154402 
3.88866e-18 2.19466e-19 1 

-0.130296 -0.0772134 0.139796 
0.0248 -0.00162901 0.226086 
2.74436e-18 3.62939e-18 1 

-0.0939387 -0.18502 0.0312933 
-0.129857 -0.0311082 0.909009 
-6.11591e-18 1.27004e-18 1 

-0.0960924 0.0133233 0.976413 
0.061061 -0.0356083 -1.27626 
3.49159e-18 9.56653e-18 1 

-0.322633 -0.674971 0.494128 
0.364577 0.365239 1.05243 
4.53233e-18 -1.19272e-17 1 

-0.0958064 -0.0281158 -0.308216 
-0.046292 -0.171942 0.439046 
-3.68255e-18 8.50316e-18 1 

-0.0804868 0.151285 0.0184532 
0.0266717 -0.0905079 0.0021861 
-2.17904e-17 6.74831e-19 1 

0.130315 -0.922977 -1.48425 
0.311438 -0.0387661 1.27229 
1.01631e-17 -1.05779e-17 1 

-0.132605 0.0463326 -1.17624 
0.00134572 0.0258051 -1.18602 
-3.72141e-18 3.26812e-17 1 

-0.0440508 -0.0374895 0.122036 
-0.0448936 -0.134516 0.301737 
1.27501e-17 -6.56683e-18 1 

-0.112 -0.0883433 0.233699 
0.0837453 0.0032505 0.91138 
6.10167e-19 6.46023e-18 1 

-0.0853197 0.0304488 -0.990929 
0.00708532 -0.0571953 -0.314262 
5.02124e-18 -7.89026e-18 1 

-0.242682 0.105582 -0.0144609 
-0.169059 0.0338915 -0.396872 
1.43036e-17 1.21462e-17 1 

-0.0793189 -0.0929313 0.178044 
0.0755143 -0.00892001 0.142969 
7.4083e-19 6.34997e-19 1 

-0.0926156 -0.0124695 2.10426 
-0.0374222 0.00440221 1.96193 
4.10263e-18 -4.25787e-18 1 

-0.135397 -0.00967192 0.196913 
-0.090182 -0.0751277 0.129891 
-5.65903e-19 -9.3898e-18 1 

-0.0607681 -0.0342847 -0.186587 
-0.0403061 -0.0298205 -0.0436997 
-3.87977e-18 4.1428e-18 1 

-0.372438 0.0738524 0.0409458 
-0.0893651 0.0361568 0.0730367 
1.16956e-17 -3.26915e-18 1 

-0.0551845 -0.0284549 0.581037 
0.0126086 -0.0892602 0.00217234 
1.39566e-18 1.82042e-19 1 

-0.0835162 0.0308078 0.0836534 
-0.00955941 -0.0566808 0.119417 
-1.3088e-18 1.03566e-17 1 

-0.0802447 0.00282582 0.23903 
0.000853338 -0.0634972 -0.00413276 
3.94292e-18 -1.55222e-18 1 

-0.203603 -0.0452447 0.33626 
-0.0699521 -0.0517138 0.887368 
-4.83063e-18 2.53797e-18 1 

-0.0533992 -0.0345754 -0.0283161 
0.017819 -0.127846 -0.0207107 
-1.89367e-17 2.85973e-18 1 

-0.126951 -0.159711 -0.263222 
0.172514 -0.00991737 -0.147565 
1.32321e-17 -1.20507e-17 1 

-0.495469 -0.115018 0.117652 
-0.0484204 0.224915 -1.58342 
-2.59284e-18 7.28821e-18 1 

-0.0717209 -0.0515294 -0.327679 
0.009429 -0.0382876 0.0670549 
5.58455e-18 -1.06795e-17 1 

-0.0752403 -0.246349 0.190781 
0.391944 0.0248963 -0.217894 
-2.81605e-18 7.9788e-19 1 

-0.121356 0.000772961 -0.0349423 
0.0184605 0.0155537 -0.0441011 
3.2104e-18 5.55647e-18 1 

-0.117507 0.0471653 0.100795 
-0.0197357 -0.0442582 -0.0222219 
-6.48927e-18 -1.11187e-18 1 

-0.110083 -0.0170891 0.242645 
-0.0139442 -0.0683829 0.00427363 
4.75168e-18 -7.24818e-18 1 

-0.102229 -0.0802291 -1.14298 
0.0477982 -0.00441032 1.45118 
-8.38178e-18 -4.55434e-18 1 

-0.0728455 0.0802937 -0.00930521 
-0.0735276 0.0541237 0.457088 
2.26481e-18 -1.52916e-17 1 

-0.0799887 0.0763693 0.000755584 
-0.00769074 -0.0602867 0.0200979 
1.97918e-18 1.46772e-17 1 

-0.0361453 0.0271988 0.0369684 
-0.0297288 -0.146525 -0.114613 
-7.47306e-18 4.09394e-18 1 

-0.0836275 -0.00540917 -0.152255 
0.00629587 -0.0363449 -0.114657 
-8.73639e-18 -4.73334e-20 1 

-0.0623978 0.0597483 -0.437679 
0.12758 0.181568 -0.0334497 
-3.25044e-18 -9.00723e-19 1 

-0.0891625 -0.0485929 -0.180758 
0.140722 -0.000569401 -0.0156971 
-8.84216e-18 8.35143e-18 1 

-0.0910276 -0.0950926 -0.270071 
-0.00298154 -0.0428818 -0.11674 
5.70883e-19 -3.42015e-18 1 

-0.193911 -0.164838 2.03763 
0.201319 0.0564146 0.972484 
-2.7664e-18 -1.39025e-17 1 

-0.134027 -0.016854 -0.0559418 
0.00851089 0.0548954 -0.0242551 
3.64967e-18 1.40659e-17 1 

-0.170145 0.028918 -0.241919 
-0.0173351 -0.0277069 0.282904 
2.91834e-18 -8.91715e-19 1 

-0.250453 0.201053 -0.162021 
-0.146169 0.073418 -0.0953678 
-1.1468e-18 1.01097e-17 1 

-0.0795377 -0.420652 0.142022 
0.552392 0.176382 0.704582 
-8.94315e-18 -1.4309e-18 1 

-0.112466 0.00746184 0.132562 
-0.0548183 -0.0770095 0.538813 
1.55774e-18 6.88893e-19 1 

-0.15374 0.0359995 -0.0782523 
-0.0983452 -0.0845824 -0.156071 
-1.63659e-17 2.01566e-17 1 

-0.567108 0.27714 -0.762728 
-0.00328158 0.270059 -0.553296 
9.13871e-18 -2.08427e-18 1 

-0.076924 0.00409293 -0.109849 
-0.00459343 -0.0766236 0.161823 
2.98731e-18 2.65538e-19 1 

-0.0426159 0.000146497 0.381338 
0.0456804 -0.0169949 0.446914 
1.14684e-17 -5.21292e-18 1 

-0.0824492 -0.0405847 -0.268247 
-0.0150702 -0.0735594 0.356816 
-7.44983e-18 3.06632e-18 1 

-0.0946228 -0.0108851 -0.319193 
0.0191252 -0.0723459 -0.169354 
9.84252e-18 -5.92851e-18 1 

-0.07259 -0.0213829 0.0550835 
-0.0359721 -0.11202 0.0714719 
-1.09401e-17 -8.30237e-18 1 

-3.77014 4.79756 8.61453 
-0.364302 1.30748 1.96892 
6.23296e-18 5.93194e-18 1 

-0.0941334 0.0694595 -0.107388 
0.0211469 -0.026466 0.167058 
8.85278e-18 6.43435e-18 1 

-0.254001 0.16022 -0.0737628 
0.00163759 -0.0238184 -1.23253 
8.52914e-18 -8.01611e-19 1 

-0.165251 0.057582 -0.0695454 
-0.0336876 -0.0257959 -0.155752 
3.17109e-18 -1.04851e-18 1 

-0.416667 0.0592684 0.00637007 
-0.295214 0.0803665 0.233429 
-3.24129e-18 -3.42211e-18 1 

-0.0552352 -0.0411063 0.132038 
0.048407 -0.00987251 0.130743 
-1.35287e-17 -7.95805e-18 1 

-0.0672492 -0.00764946 -0.169809 
0.021278 -0.0421323 -0.00117671 
4.0795e-18 1.16999e-17 1 

-0.160664 -0.00699232 0.126746 
-0.0690119 0.0058097 0.112857 
9.28643e-18 -4.12085e-18 1 

-0.25588 -0.140047 -0.203051 
0.157096 0.0825052 -0.274248 
-2.88291e-18 2.84498e-19 1 

-0.156306 0.116708 0.372991 
-0.141642 0.0239038 0.0913104 
0 -2.54172e-17 1 

-1.00712 0.0682336 0.99498 
-0.0527494 0.408912 0.822929 
-9.71104e-19 -8.99549e-18 1 

-0.0430207 -0.0306376 0.158451 
0.0612884 -0.123663 -0.172267 
7.43299e-18 -6.42853e-18 1 

-0.151286 0.050482 -0.157338 
-0.0382322 -0.0425968 -0.088401 
-3.53923e-18 4.18137e-18 1 

-0.0907704 0.0149234 3.222 
0.00201668 -0.0626858 2.64361 
1.92876e-18 7.85512e-18 1 

-0.12762 -0.0875693 -0.0945843 
-0.0373347 -0.0321952 -0.00542837 
5.85054e-18 -3.36928e-18 1 

-0.0884482 -0.0338407 -0.054989 
0.0221393 -0.0569525 0.253238 
-1.11415e-17 -1.06958e-17 1 

-0.699508 1.63696 -10.5626 
0.0628735 0.220107 -1.06581 
-1.70601e-17 -3.54071e-18 1 

-0.114315 -0.0327147 -0.195165 
-0.0535 -0.00898325 -0.176695 
-4.77207e-18 -4.10761e-18 1 

-0.0862444 0.0674563 -0.130403 
0.0237035 0.00879497 -0.0707384 
-2.65101e-17 1.30317e-17 1 

-0.112222 0.0996616 -0.225893 
0.00266533 0.114003 -0.410953 
1.12904e-17 4.36765e-18 1 

-0.108563 0.0354777 0.054283 
-0.0271055 -0.0477941 -0.157692 
7.61247e-18 -2.14286e-18 1 

-0.191361 0.113268 -0.670365 
-0.0886361 0.0102769 0.00333235 
5.24478e-18 2.9048e-18 1 

-1.0899 0.582143 -1.73636 
0.138292 0.475966 -0.0618575 
-1.09197e-17 -1.13318e-18 1 

-0.0339133 -0.00237383 -0.101942 
-0.0198654 -0.0587759 0.126619 
4.54942e-18 1.56966e-17 1 

-0.0742459 -0.0295699 0.868546 
0.0402139 -0.0117236 -0.0132722 
6.75617e-18 -1.54186e-19 1 

-0.112985 -0.0696192 -1.63249 
0.076808 -0.0109712 0.0673601 
3.90132e-18 1.45883e-18 1 

-0.0892992 -0.0169287 0.406975 
0.0977166 -0.035043 1.87275 
7.29615e-18 -4.00774e-18 1 

-0.103683 -0.00643964 0.201114 
0.0776548 -0.0320076 0.0901301 
-1.32594e-17 7.60203e-18 1 

-0.0910328 -0.0296407 0.0165115 
0.021562 -0.0957512 0.191292 
-1.13647e-17 8.81218e-18 1 

-0.111982 0.0521282 0.142307 
-0.030036 -0.0649211 0.00552298 
5.5938e-19 5.03442e-19 1 

-0.948341 0.204485 0.280762 
-0.508715 0.319069 -0.223611 
2.49597e-18 -1.66138e-17 1 

-0.084193 0.00334728 0.295456 
-0.0901288 -0.0305414 0.00765916 
-8.02497e-19 -2.69931e-18 1 

-0.110469 0.0397549 0.0933682 
0.0208752 -0.103988 -0.0224389 
-8.33511e-18 -3.23357e-19 1 

-0.142334 0.007253 -0.13574 
0.03304 -0.069451 -0.520857 
-1.65362e-17 -1.60769e-18 1 

-0.100337 0.0467409 1.65686 
0.0318641 -0.0144387 6.86651 
2.86355e-18 -5.85793e-18 1 

-0.0413214 0.05465 -0.241578 
0.0338296 -0.0929814 -0.445496 
-4.0367e-18 1.00949e-17 1 

-0.0583553 0.0352673 0.060402 
-0.0538633 -0.101257 -0.045378 
5.85471e-18 6.38014e-19 1 

-0.283993 0.0804899 -2.04214 
0.0235918 0.0398557 -0.741529 
-7.54118e-18 -1.48962e-18 1 

-0.0437506 -0.0254728 0.163178 
-0.16958 -0.132701 0.52636 
-9.14125e-18 4.68782e-19 1 

-0.0665581 0.00621659 0.0123944 
0.0170821 -0.0337945 0.209822 
1.27733e-18 -9.62453e-18 1 

-0.176731 -0.155075 -0.190231 
0.00361125 0.00738036 0.0359058 
3.64152e-18 -1.63868e-17 1 

-0.0771339 0.0249119 -0.0561801 
0.0291139 -0.0421498 0.0444235 
8.41043e-18 3.32132e-18 1 

-0.150181 0.0542739 -0.124123 
-0.0369336 0.0246366 0.273467 
3.59576e-18 1.81036e-18 1 

-0.099857 0.00714543 0.00869663 
0.00973039 -0.00487197 0.0708126 
1.41828e-17 -3.99982e-18 1 

-0.616363 -0.673645 1.3348 
0.623548 0.363171 -2.6586 
1.88707e-17 -7.76107e-18 1 

-0.210083 0.301847 -0.269254 
-0.0999257 -0.0733313 0.000571957 
-1.35091e-18 2.8019e-18 1 

-0.0687913 0.0570464 0.120196 
-0.0671228 -0.00775509 -0.049351 
9.02085e-18 3.96068e-18 1 

-0.0713468 0.147251 0.206897 
0.11233 0.00287847 0.37219 
7.86728e-18 2.5453e-19 1 

-0.085738 0.0138733 1.0566 
-0.00646389 -0.0380118 -2.25583 
-4.33438e-19 -3.14458e-19 1 

-0.0811923 0.0383591 -0.169072 
-0.0267241 -0.129573 -0.0625552 
-2.00195e-18 4.73614e-18 1 

-0.0933324 -0.0230927 -0.201494 
-0.0719604 -0.0252001 0.131825 
-1.34753e-18 -5.19763e-18 1 

-0.241326 0.298123 0.0444881 
-0.0687571 0.193997 0.26364 
1.8717e-18 5.18316e-18 1 

-0.0743178 -0.0676222 0.144483 
0.0655716 -0.0463385 -0.0624735 
3.43343e-18 -6.62286e-18 1 

-0.085034 0.00703079 1.46698 
-0.00957929 -0.031473 4.63051 
-1.89869e-18 2.56601e-18 1 

-0.442553 -0.578554 -1.02658 
0.4572 0.417091 0.337435 
3.16097e-18 5.50745e-18 1 

-0.474242 0.108685 0.174992 
-0.269087 0.274198 0.495409 
-8.57934e-18 -1.12057e-17 1 

-0.103623 0.13425 -0.0168406 
-0.0344962 0.066204 -0.0429593 
7.76484e-18 -6.39377e-18 1 

-0.321151 0.306677 0.128107 
-0.118691 -0.0443374 -0.402919 
-1.99121e-17 1.49781e-18 1 

-0.154668 0.0928116 0.34113 
-0.0122458 0.0788757 0.945004 
-5.66523e-18 -6.81033e-18 1 

-0.100894 0.000218256 -0.00647339 
-0.0104803 0.0286884 0.436918 
1.00416e-17 -6.75214e-19 1 

-0.220612 -0.412478 -0.703927 
0.412215 0.172396 0.783003 
-7.62477e-18 -4.26987e-18 1 

-0.114278 -0.0331344 0.224555 
0.10213 -0.0218618 -0.944209 
7.52088e-19 -5.71098e-18 1 

-0.109016 0.00215909 0.0379586 
0.0554878 -0.0438841 0.103954 
1.99741e-18 2.70237e-18 1 

-0.0853093 -0.00144119 0.17792 
0.0705373 -0.0723322 0.0653737 
-8.56981e-18 4.95287e-18 1 

-0.139326 -0.0397701 -0.020998 
0.0500795 -0.0376036 -0.128731 
-1.25766e-17 3.44102e-18 1 

-0.0712591 -0.0265209 -0.0764122 
0.0567699 -0.0395166 0.0769659 
8.8476e-18 5.33821e-18 1 

-0.0662659 -0.0714776 -0.260602 
0.118666 0.0396267 -0.345199 
4.48307e-18 -1.96983e-18 1 

-0.0568997 -0.0443097 -0.826717 
0.0326026 -0.0263313 0.100839 
2.38741e-18 8.80871e-18 1 

-0.0792533 -0.0189873 0.0874042 
-0.0173139 -0.0265785 0.0980613 
3.5485e-18 -5.73998e-18 1 

-0.163179 -0.7416 0.764772 
0.341797 0.264578 -0.190814 
3.41592e-18 5.69886e-18 1 

-0.397293 0.379702 0.613926 
-0.316142 0.0417718 -0.130625 
4.35574e-18 -1.44837e-17 1 

-0.0884817 -0.0391071 -0.420818 
-0.0170401 -0.0982977 0.0394145 
3.52947e-19 5.57475e-18 1 

-0.0761816 -0.0698255 -0.0298368 
0.0670612 -0.0460593 -0.513412 
-5.31675e-19 -4.39518e-18 1 

-0.0399109 0.0357568 -0.217956 
0.100844 0.00478105 -0.307802 
3.57487e-18 -4.21449e-18 1 

-0.0967151 -0.0215026 0.0531273 
-0.00497155 -0.0240566 2.21099 
-4.21302e-18 9.51482e-19 1 

-0.171872 0.0932792 0.0930906 
-0.043699 -0.00185704 -0.117424 
1.32206e-18 -9.82101e-19 1 

-0.135912 -0.0421348 -0.0726313 
0.0029794 -0.0254996 0.0997341 
9.26227e-18 -3.93441e-18 1 

-0.0930349 -0.00442018 0.0608781 
0.0135426 -0.0296372 -0.268583 
7.03719e-18 -1.4994e-19 1 

-0.0775216 0.0173607 0.63616 
-0.0273591 -0.0737032 0.556982 
2.09877e-18 -2.11802e-18 1 

-0.28954 -0.0667335 -0.163279 
0.0833462 0.0482483 -0.0582128 
9.55941e-18 -1.3328e-17 1 

-0.18213 -0.00666645 1.27068 
0.114659 0.053604 -1.03423 
1.09709e-17 1.28447e-18 1 

-0.0863006 -0.0223873 0.214071 
-0.00780103 -0.0170606 -1.97271 
-3.17561e-18 3.23335e-18 1 

-0.349326 -0.332018 -4.66783 
0.0475131 0.562421 13.0428 
7.01879e-18 -2.23705e-17 1 

-0.516683 0.107209 -1.59736 
-0.350641 0.108073 -0.567298 
-4.82716e-18 -1.11725e-17 1 

-0.214372 0.0146289 4.03414 
0.00230231 0.0289179 -7.29527 
6.08605e-18 -6.4636e-18 1 

-0.146502 -0.152703 -0.0726887 
0.106554 -0.0501691 0.779589 
-7.15233e-18 -8.54927e-18 1 

-0.046028 -0.280084 -0.00985068 
0.307474 0.114547 1.56725 
-6.29977e-18 -1.49137e-18 1 

-0.253116 -0.00254543 -1.49777 
-0.00441953 0.219761 -0.55808 
-3.19218e-18 1.20898e-17 1 

-0.106692 0.0755154 -0.679608 
0.0356982 -0.0426104 -0.542061 
7.34999e-18 -1.64552e-18 1 

-1.23392 0.396618 -0.829057 
-0.405221 0.454795 0.175982 
-8.20237e-18 9.41531e-18 1 

-0.043126 0.00243775 -0.00186018 
0.0105701 -0.0723641 0.0990177 
-6.96628e-18 1.1764e-17 1 

-0.0917538 -0.0145626 0.200568 
-0.0467598 -0.00802274 -0.0407376 
5.76126e-18 2.43879e-18 1 

-0.0544195 -0.0406691 0.0120909 
0.00453894 -0.0916944 0.431263 
4.47531e-18 2.97346e-19 1 

-0.172424 -0.0242588 0.0623282 
0.0211696 -0.0125967 -0.472731 
2.64127e-18 -6.11882e-18 1 

-0.0592386 0.0020255 0.00427644 
-0.00898461 -0.0572736 -0.0315424 
4.68918e-18 2.54488e-18 1 

-0.0638085 0.0217153 -0.20776 
0.0458728 -0.014811 -0.233116 
-2.29824e-18 5.21201e-18 1 

-0.133089 0.0271175 -0.188638 
0.0264181 -0.00808307 -0.179055 
-6.28538e-18 3.30729e-18 1 

-0.297474 0.0944418 -0.401079 
-0.11798 0.151466 -1.14783 
3.4647e-18 1.82618e-18 1 

-0.0969231 -0.0632667 -0.104336 
0.0879426 -0.04486 -0.138393 
2.85364e-18 -4.73168e-18 1 

-0.156058 0.0964349 -0.488622 
-0.0757497 -0.0530666 0.415795 
-1.03191e-18 4.86472e-18 1 

0.150423 -0.729488 -0.341287 
0.672887 0.333768 0.0841907 
9.9013e-18 4.03253e-18 1 

-0.106951 -0.00410412 -0.00841183 
0.0126413 -0.0467747 -0.127747 
-3.76779e-18 6.74236e-18 1 

-0.119685 0.0723245 0.0679544 
-0.033051 -0.0148684 0.5601 
-5.93973e-19 8.16713e-18 1 

-0.139168 0.0727814 -0.0499648 
-0.0269502 -0.0812497 -0.0449972 
2.90231e-18 -4.35346e-19 1 

-0.0625408 0.043284 -0.13011 
-0.0867921 -0.0442385 -0.336821 
-1.0202e-17 5.32003e-18 1 

-0.265059 0.0937668 -0.0976802 
-0.161634 0.00595093 -0.152334 
-6.14308e-18 1.63761e-17 1 

-0.0629013 -0.022186 -0.0354932 
-0.036727 -0.0759073 0.0778143 
8.21487e-18 -1.11317e-18 1 

-0.0819008 -0.0172286 -0.0947559 
0.022085 -0.0707428 -0.0219282 
-5.25448e-18 5.21325e-19 1 

-0.148621 -0.120736 -0.0435758 
0.188251 0.0451378 -0.0482912 
1.98359e-17 -1.51945e-18 1 

-0.121984 -0.0153353 0.112041 
-0.059838 -0.0503557 0.140994 
-1.65402e-17 1.03782e-17 1 

-0.10322 -0.00299019 0.341361 
-0.0256206 -0.0556006 0.28337 
-9.45955e-18 5.96715e-18 1 

-0.236792 -0.269371 -0.210873 
0.32462 0.133468 -0.136111 
-8.5832e-18 -1.62385e-17 1 

-0.154015 -0.012214 0.422465 
-0.108275 -0.0337217 1.07978 
4.24532e-18 -2.1089e-17 1 

-0.94648 0.113162 0.78892 
0.068126 0.265293 0.474416 
-1.17395e-17 -7.44455e-18 1 

-0.170297 -0.240219 -1.20027 
0.238388 0.0276517 0.313968 
4.52856e-18 7.66009e-18 1 

-0.109346 -0.0999995 -0.0775796 
0.0825113 -0.0514628 -0.0901435 
2.22159e-19 9.92308e-18 1 

-0.806481 -0.404768 -0.339125 
0.0982992 0.40116 -0.264772 
1.72964e-17 -6.51058e-20 1 

-0.465058 0.0857126 2.34338 
0.0103569 0.210848 -0.839878 
3.35831e-18 1.27905e-18 1 

-0.547302 0.150547 -0.0574552 
0.0648728 0.14863 -1.32104 
-2.24252e-17 1.69704e-17 1 

-0.119209 0.0121562 0.12402 
-0.0128357 0.0105651 -0.19548 
-1.3251e-17 -6.92397e-18 1 

-0.0923767 0.0482186 0.0370277 
-0.0802515 -0.0987108 -0.26826 
-3.01786e-18 -8.42193e-19 1 

-0.107062 -0.0115231 -0.282184 
0.0132543 -0.0171931 -0.183072 
1.17241e-17 1.88765e-17 1 

-0.100308 -0.0458464 -0.0944514 
-0.0496281 -0.0666111 0.309662 
5.25649e-18 -3.25902e-18 1 

-0.441932 -0.16088 -0.212308 
0.286937 0.191592 0.623832 
5.81072e-18 -2.1449e-18 1 

-0.0767825 0.069337 -0.234587 
-0.0155022 -0.0490655 0.356377 
-9.19306e-18 -2.46746e-18 1 

-0.0692046 -0.00817687 -0.0370629 
-0.019809 -0.0134726 -0.0842248 
2.8122e-18 -5.02178e-18 1 

-0.294466 0.00331675 -0.366118 
0.050716 0.0511513 -0.00956658 
-2.85975e-18 5.34923e-18 1 

-0.307748 0.0772923 1.48114 
0.0238428 0.244238 1.10915 
-5.03834e-18 -1.82087e-17 1 

-0.123168 0.00464792 -0.0277202 
0.0193628 -0.0438666 -0.154054 
3.74977e-18 6.24961e-20 1 

-0.0388002 0.00705606 0.0801946 
0.0302554 -0.0562941 -0.170733 
-7.78604e-18 -3.25893e-18 1 

-0.0821358 -0.050024 0.220296 
0.0570906 -0.00199787 -0.0143841 
-7.5843e-18 9.56898e-18 1 

-0.063377 -0.00382874 -0.0701275 
0.0155656 -0.0216413 0.127133 
-1.37769e-18 1.67217e-17 1 

-1.24513 0.895105 0.765793 
0.151077 0.415989 -2.03403 
-9.56885e-18 4.88345e-18 1 

-0.230859 0.0342295 -0.0508998 
-0.201402 0.133505 -0.129675 
-1.39936e-18 7.44658e-18 1 

-0.0472239 0.0341821 -0.0919936 
-0.0744612 -0.0407084 -0.281537 
1.01568e-17 7.27356e-18 1 

-0.126408 0.000621565 0.0840284 
0.0290385 -0.03547 -0.64427 
3.56436e-18 3.65088e-18 1 

-0.0740333 0.03235 -0.0167127 
0.0845531 -0.0887051 0.493153 
-7.17055e-18 -1.64432e-17 1 

-0.0665753 0.0229611 -0.0261747 
-0.0498127 -0.0164712 -0.112961 
4.82493e-18 -2.8621e-18 1 

-0.237405 0.107319 -0.948499 
-0.0852876 0.102387 -1.13643 
-2.6746e-18 -5.63954e-18 1 

-0.176801 0.0498343 -0.276195 
0.00954255 0.124631 -0.336815 
-3.5779e-18 -7.12949e-18 1 

-0.0926012 -0.0165827 0.0446666 
-0.00498304 -0.158139 0.0858807 
-1.96729e-18 3.179e-17 1 

-0.116429 -0.163074 1.49801 
0.149684 0.0293331 0.981651 
-8.13696e-18 -3.22071e-18 1 

-0.129689 -0.0537863 2.20858 