# vtk DataFile Version 3.0
Output file generated by Yade's KinematicLocalisationAnalyser
ASCII
DATASET UNSTRUCTURED_GRID

POINTS 13483 float
643.869 29.0359 0.429859
838.897 48.6529 -0.467587
125.722 6.12188 -0.458213
875.079 5.87239 0.452031
524.327 7.58684 -0.302446
329.603 34.8499 -0.44916
163.915 6.84755 0.439562
601.428 9.93587 0.160856
520.852 23.654 0.137973
777.042 12.5674 -0.371291
220.222 8.80542 -0.112734
268.837 6.29505 -0.265435
696.209 28.492 -0.148014
672.992 14.173 0.0736862
143.538 16.9384 0.439695
231.662 34.3134 -0.397854
227.701 12.8611 -0.286716
302.274 9.53823 0.383078
356.679 33.3286 0.457616
551.609 8.56652 0.347342
431.043 36.5568 0.107277
625.256 43.8274 0.26185
871.566 33.692 -0.526087
750.711 42.0183 -0.473936
481.448 16.1231 0.304428
252.207 43.9758 -0.124923
516.157 27.8245 -0.450433
619.336 19.2608 -0.246712
47.3107 15.2399 -0.456032
774.285 33.2539 -0.332626
506.42 4.91853 0.321502
17.3642 22.8825 0.300091
852.246 47.9433 0.276985
520.03 2.46808 0.491139
81.8932 44.2779 0.0996142
548.511 30.3934 -0.338544
558.294 16.4937 -0.4227
359.712 22.0194 -0.184539
561.342 25.391 -0.317909
367.3 33.1681 0.42924
252.163 14.6068 0.287961
455.403 35.7001 0.0742484
725.051 7.13657 0.168572
201.858 6.20402 0.371853
58.1849 6.90898 -0.0657196
71.8418 8.85701 -0.288571
743.177 8.48442 0.506774
24.6892 11.704 -0.287897
647.272 44.9065 0.369197
727.283 23.3852 0.349334
180.595 32.2369 0.30561
835.522 34.964 -0.144594
36.8136 27.9413 0.111977
562.388 2.94946 0.32178
148.919 7.47389 -0.476887
628.251 33.1351 0.415768
530.197 26.3836 0.119142
183.132 0.935904 -0.263073
34.2818 2.3689 -0.322822
365.362 17.651 0.259175
659.437 45.6181 -0.132127
485.517 33.1114 -0.187984
418.878 1.03385 0.193316
756.075 7.98127 -0.328751
27.9886 42.6621 0.235655
268.429 30.3613 -0.324079
776.991 7.95122 -0.204253
718.165 43.949 0.369479
438.239 8.5625 -0.486071
602.398 3.47308 -0.349324
809.775 30.9254 0.405211
137.097 7.56332 0.281547
523.928 25.6159 -0.144065
501.709 14.9323 -0.129341
308.78 16.519 -0.347522
21.7916 13.5197 0.263104
863.053 40.8331 0.334342
349.019 38.8864 -0.286228
725.362 19.9506 0.398085
743.144 12.4279 0.265651
862.382 13.7147 -0.40024
489.124 34.3101 0.176062
96.9331 38.5148 -0.27768
737.088 34.7597 -0.285668
691.943 38.4917 -0.1279
877.66 41.1121 -0.13912
854.923 0.983679 -0.5471
305.46 29.3228 0.430833
661.182 6.33643 -0.112621
25.6438 5.27195 -0.458414
139.37 37.7532 0.157636
540.066 14.4144 0.215613
848.686 31.1114 0.481995
205.22 28.5517 -0.232344
46.6231 34.2428 0.291075
518.891 1.16058 0.132614
247.33 8.90421 -0.366298
814.133 40.437 -0.258384
836.44 27.1687 0.227394
379.458 20.4893 -0.253457
171.725 26.8276 0.433178
581.083 38.4182 -0.43652
399.679 15.1401 -0.471793
435.085 29.6844 0.106084
397.661 4.47328 0.404853
579.444 10.8967 -0.0861978
879.352 11.6362 0.207888
84.3819 39.2247 -0.396643
352.609 4.76767 -0.186938
594.652 9.38857 -0.346334
379.026 43.1596 0.444804
27.1468 24.3022 0.461218
32.0864 5.72093 0.326706
602.52 32.6057 0.436594
533.364 23.8377 0.145564
27.8079 36.5158 0.266666
97.9551 30.8025 0.222901
342.056 15.8462 -0.301042
638.967 18.4543 -0.133164
501.696 37.781 0.299014
795.718 7.30482 0.408683
787.387 6.21789 0.218717
407.755 36.7628 -0.0968202
679.417 25.2844 0.102434
251.071 16.9215 0.48895
347.564 3.67084 0.470837
108.923 31.4691 -0.352579
122.494 24.0252 0.270493
576.046 38.4079 0.0676113
322.407 18.6229 0.480821
769.175 35.872 -0.102056
722.385 43.5759 -0.128635
507.992 20.4153 -0.35975
838.661 9.0787 0.339962
452.554 23.5933 -0.233061
292.202 23.9878 -0.296882
726.02 30.9403 0.27042
293.998 28.5471 0.394484
613.291 12.0469 -0.189831
350.137 35.6426 0.204747
534.359 11.2881 0.472375
387.143 31.0204 0.0924987
454.872 16.7106 -0.108585
335.84 41.6985 0.387583
201.228 29.6668 -0.123862
843.429 47.3569 0.149039
875.663 13.2522 -0.2966
6.23221 12.1701 0.447855
459.06 22.2533 -0.432374
40.6354 22.4031 -0.0917397
397.71 30.8048 0.476699
417.9 24.9618 -0.251699
79.002 11.8084 -0.465365
54.7951 32.9105 0.328757
238.542 13.5637 0.435419
660.738 39.034 0.426382
615.426 20.5169 -0.433618
79.1664 21.0063 -0.484872
753.44 45.4042 0.418137
824.428 3.1198 -0.590419
710.504 39.4978 -0.467185
750.983 2.3854 0.358245
585.329 25.9404 0.406342
626.805 44.4865 -0.434619
544.028 17.8265 -0.407234
872.437 2.66918 0.360761
236.239 24.5745 -0.119686
134.894 35.0878 -0.203893
261.435 6.54518 -0.378383
100.005 4.16297 0.269652
68.044 9.99153 -0.194771
291.948 35.5772 -0.310414
17.6825 24.5878 -0.36823
592.363 19.0259 0.401733
647.129 39.8053 0.191034
491.312 20.9048 -0.3696
871.214 52.7037 0.087961
431.157 8.50283 -0.0999639
462.203 35.9192 0.367659
571.253 3.43392 -0.185025
24.1191 23.5996 -0.3821
616.205 4.66884 -0.328731
581.649 4.36343 -0.28383
218.363 11.2289 0.477971
450.81 16.1012 -0.194761
329.848 6.32126 0.328622
411.294 18.7774 -0.334649
801.001 43.4885 0.121581
203.821 25.2918 0.4278
849.056 8.45117 0.296805
800.18 39.5302 0.3785
406.486 10.1674 -0.174112
774.33 2.27294 0.446035
647.292 25.2897 -0.42616
802.93 18.6521 -0.367828
457.452 42.6679 -0.283214
528.374 12.3074 0.351254
494.561 43.9007 -0.222208
473.176 8.64456 0.122525
714.125 38.8181 -0.311799
711.693 35.1027 0.336025
203.471 38.8668 0.254926
860.013 13.5604 -0.215444
628.514 44.64 0.24138
11.9427 16.7164 -0.212897
432.485 25.1724 0.337543
198.489 23.1507 0.402159
98.5623 39.4273 0.200958
844.581 23.5741 0.399134
707.164 43.3191 -0.246357
338.716 25.4298 0.350129
567.95 10.1101 0.32115
87.1837 44.2316 -0.167504
262.582 25.6969 -0.468405
594.392 24.0495 0.367073
518.139 18.5395 0.377723
278.652 0.888905 -0.343052
590.615 40.2539 -0.363907
569.285 40.4185 -0.467682
513.201 33.3192 0.410303
531.608 0.780649 -0.499954
760.878 19.7661 -0.366553
190.534 12.0284 0.164233
533.032 36.3412 -0.447533
603.748 39.7317 0.131368
77.3221 0.954126 0.269939
266.965 4.70974 0.17189
875.266 15.2257 0.199467
862.141 15.7092 -0.394531
882.777 15.4161 -0.680152
322.089 8.54069 -0.231938
810.147 24.0304 0.37132
432.711 41.5657 -0.325962
477.471 0.818631 -0.396632
698.206 35.7206 -0.530911
28.8679 30.3217 -0.304269
351.132 41.5603 0.52751
267.841 2.84609 0.315012
857.313 46.5316 -0.185431
772.735 48.2633 -0.250225
304.998 10.8788 0.211148
719.204 29.016 -0.0849403
596.409 2.63489 0.275817
579.349 6.43351 0.412913
102.457 18.1672 -0.497161
322.028 1.03214 -0.226015
364.612 2.26945 -0.361165
14.886 7.57558 -0.388882
4.65363 30.8892 0.25076
172.335 18.3255 -0.352699
72.4868 41.4364 0.217351
71.0795 28.6935 -0.330904
450.598 14.2801 -0.418147
390.238 34.6021 0.47341
833.375 36.1457 0.1154
20.8096 4.04409 0.268173
74.9869 6.8866 0.133458
671.498 37.4194 0.159223
313.176 0.929844 0.323105
387.82 15.81 -0.113901
250.174 4.56008 0.40062
704.208 20.9917 -0.181626
480.805 8.32263 0.409106
812.787 21.6068 -0.367249
678.646 28.5735 -0.292306
723.297 17.7825 0.101939
447.276 26.7603 0.505122
108.357 44.5583 -0.316849
579.708 42.1626 0.0732812
800.888 13.4557 0.244244
252.56 30.1677 -0.247727
34.0925 16.8194 0.177771
357.531 13.6335 0.495439
114.42 40.2426 0.476665
284.463 42.0265 -0.188811
452.865 1.09165 -0.217475
859.156 34.418 0.412204
743.374 0.810936 0.497546
353.178 3.15083 0.521243
319.04 26.3965 0.135449
493.27 40.7938 0.206827
86.7042 8.01237 0.446181
210.205 44.5367 0.377992
842.077 30.2309 -0.354904
528.208 38.7752 -0.0796355
212.619 41.089 -0.254811
170.979 42.0378 0.150569
880.197 36.9421 0.41182
877.938 12.5722 -0.595191
651.515 3.47499 -0.449583
202.278 24.3864 -0.0992346
587.46 28.2294 -0.101232
589.465 27.7345 0.26576
435.846 5.58425 -0.136509
513.744 0.931296 -0.280847
831.07 38.1326 -0.498783
90.3999 30.9023 0.216628
710.511 17.8945 -0.424478
291.777 15.4934 -0.339739
10.4408 2.33092 0.343285
133.393 36.7031 -0.199959
71.4202 22.8992 0.469762
761.778 36.7117 0.328667
859.372 55.289 0.164641
197.448 28.2186 -0.180446
870.58 12.6872 0.30285
48.0683 36.2743 -0.253672
96.755 29.1857 0.150901
683.075 12.5644 -0.465244
440.678 17.5041 -0.554344
554.939 16.4758 0.102726
253.164 28.2233 -0.178061
668.761 4.50118 -0.399896
881.915 10.5552 0.35513
31.8557 31.3601 -0.280693
287.413 7.65793 0.18806
236.114 15.2803 -0.27801
1.0975 35.4753 0.14604
239.584 14.5244 -0.371952
225.195 10.896 0.125005
227.828 26.105 0.272768
141.671 27.7885 -0.128786
586.381 14.9518 -0.330776
177.947 13.9988 0.36571
851.236 46.2527 -0.214109
185.269 3.7867 0.507461
50.5181 37.3011 -0.392295
808.185 49.3218 -0.426086
299.231 31.5017 -0.379759
733.922 23.2944 0.416938
866.751 36.7005 -0.49311
320.106 9.15351 -0.107773
798.054 31.1837 -0.335756
349.937 2.6061 -0.367659
443.425 23.7203 0.365059
729.934 15.7469 0.436872
112.423 11.9138 -0.404667
515.435 3.97246 -0.464835
817.049 19.3747 0.161498
94.0549 7.60662 -0.19599
299.781 14.6348 0.1952
451.542 11.5819 -0.206504
870.867 3.64373 0.624844
423.979 1.94668 -0.516193
188.236 38.6458 -0.293193
803.975 10.8065 -0.343244
136.723 36.1171 0.185122
280.135 31.2282 -0.404736
426.904 21.5759 0.213996
615.84 13.8671 -0.319344
412.57 9.78863 -0.468922
487.353 27.4475 -0.40336
839.308 49.8331 0.409205
50.7511 10.8522 0.108714
318.818 37.8591 -0.269685
404.526 26.2361 -0.369556
436.786 20.9465 0.237329
557.297 44.3545 0.356421
823.603 36.7353 0.232306
717.979 34.6174 0.387401
240.238 34.108 0.37709
14.9006 31.1042 0.161891
709.938 35.9447 -0.142999
544.153 40.894 0.389974
244.293 39.232 -0.103527
740.436 31.2983 0.109692
161.11 9.28032 -0.200232
390.567 20.8749 0.306056
495.114 41.8048 0.100301
441.317 19.0279 0.205704
835.53 50.1344 -0.32854
454.4 3.40769 0.431646
53.0122 24.955 -0.295238
502.057 31.4106 0.319408
463.857 41.0302 0.387042
855.915 41.6223 -0.231841
794.887 29.7123 0.229268
579.737 18.2781 -0.148701
846.015 40.4001 -0.20007
312.283 2.02617 -0.433513
403.504 29.1461 0.474447
31.03 38.4198 -0.298323
800.947 32.5421 0.147251
656.433 19.5568 -0.469217
494.432 0.768101 -0.494847
134.432 4.49872 0.278754
455.205 40.0939 0.107664
12.9561 0.910071 -0.314317
870.649 5.73977 0.255422
394.763 38.6943 -0.410594
657.119 7.69036 0.432114
[...]
POINT_DATA 13483
TENSORS Strain_matrix float
-0.216272 -0.124227 -0.541996 
-0.0536319 0.0908645 -0.0952902 
-4.99483e-18 -9.53288e-19 1 

-0.342731 -0.444803 -0.611063 
0.397996 0.275014 2.26654 
-2.02554e-18 1.85675e-17 1 

-0.0768379 -0.00710026 0.318476 
0.000124554 -0.0677693 1.45093 
-3.06746e-18 6.75459e-19 1 

-0.742059 0.000258279 -0.502001 
-0.0316555 0.210751 -0.199326 
-1.2022e-17 -2.34235e-17 1 

-0.113149 -0.0238577 0.0509405 
0.00103207 -0.0651984 0.0316022 
-1.60111e-17 -1.57032e-17 1 

-0.0718725 -0.018617 0.0629494 
-0.00500569 -0.0391436 0.06518 
1.02099e-18 -4.01591e-18 1 

-0.0724134 -0.0288466 -0.609594 
-0.011781 -0.08194 -0.457327 
9.32609e-18 1.81127e-18 1 

-0.0779048 0.0187922 -0.0842204 
0.0447074 -0.075308 0.00841337 
7.69887e-18 2.19968e-18 1 

-0.0854859 -0.186882 0.277244 
0.109631 0.047408 0.249948 
-8.26229e-18 -1.70944e-17 1 

-0.168003 0.166576 -0.289356 
-0.142354 -0.102964 -0.903061 
-1.18488e-18 -4.59142e-19 1 

-0.0485544 0.00548011 -0.0351101 
0.000699559 -0.0669954 0.01754 
-3.14191e-18 -4.70661e-18 1 

-0.0740258 -0.0363629 0.19233 
-0.0605782 -0.0912132 0.0379965 
-6.54268e-18 -5.67558e-18 1 

-0.191452 0.157745 -0.373722 
-0.0350585 0.127232 -0.167876 
6.47666e-18 -1.17757e-18 1 

-0.118536 0.0012062 -0.110935 
0.0474773 -0.0315996 0.115418 
1.12717e-18 5.185e-19 1 

-0.0663316 0.0177259 0.187857 
0.0101977 -0.0452441 -0.21694 
9.25908e-18 -1.2626e-18 1 

-0.0601106 0.022876 -0.037158 
-0.032819 -0.0222854 -0.0108048 
3.48395e-20 2.18493e-18 1 

-0.0709058 -0.0406754 0.0309154 
0.013292 -0.112144 -0.00286639 
-4.59105e-18 -2.73939e-18 1 

-0.126261 -0.00104808 -0.0527999 
0.0135897 -0.0728869 0.0056228 
7.85975e-18 -6.51842e-18 1 

-0.10706 0.0485652 -0.307492 
-0.0388883 -0.034651 -0.617264 
-6.60985e-18 1.12377e-17 1 

-0.0917481 0.0240493 0.11613 
-0.062653 -0.0822868 0.158272 
3.2231e-18 7.40601e-18 1 

-0.129254 -0.0332511 0.0646772 
0.0272711 -0.00760042 -0.027799 
5.15598e-18 3.74528e-18 1 

-0.225382 0.128033 -0.116485 
-0.0619401 0.0738951 -0.154538 
-9.81919e-18 -2.7323e-18 1 

-0.986288 -0.0028844 1.42778 
-0.131526 0.388878 -4.45223 
-4.13639e-18 -6.20458e-19 1 

-0.151254 -0.0213916 -0.0587715 
-0.0115363 -0.0108129 -0.722815 
2.07455e-18 8.05574e-19 1 

-0.0478823 -0.0110277 -0.230262 
0.0769017 -0.036825 -0.0424375 
-1.20164e-17 -7.31599e-18 1 

-0.0407427 0.0423083 0.31785 
-0.071799 -0.0216877 0.0179364 
9.18656e-19 6.79049e-18 1 

-0.0963425 -0.041559 0.974496 
0.0150162 -0.0132962 1.89943 
-4.97692e-18 -1.11862e-17 1 

-0.0859556 -0.20006 -0.153598 
-0.0436514 -0.00568236 0.625091 
4.07054e-18 7.60548e-18 1 

-0.084352 0.0254325 0.163097 
0.0438543 -0.0435722 -1.68848 
-6.99514e-18 -3.28588e-18 1 

-0.181387 -0.091525 0.177055 
0.0516571 0.0491992 0.226768 
1.0131e-17 -3.54232e-19 1 

-0.0807491 -0.0248832 -0.330609 
-0.0422593 -0.171014 0.414743 
3.89045e-20 -2.95674e-18 1 

-0.0715967 0.0819383 -0.128783 
0.0828381 -0.105711 -0.062553 
-1.70363e-17 3.75801e-18 1 

-0.045217 -0.579976 -0.25035 
0.158876 0.0732952 1.63115 
-9.22166e-18 1.02384e-18 1 

-0.103966 0.0161034 -1.20457 
-0.00871644 0.0202554 -1.54397 
3.36315e-18 -9.53164e-18 1 

-0.0240572 -0.0325481 0.12364 
-0.0419708 -0.126653 0.197627 
-6.30239e-18 -1.77577e-18 1 

-0.0908547 -0.107978 0.234129 
0.106399 0.00142238 1.05129 
-3.90143e-18 4.26719e-19 1 

-0.0717362 0.00361114 -0.532067 
-0.00136237 -0.0562277 0.327741 
1.37302e-19 4.66162e-18 1 

-0.259104 0.133657 -0.0368437 
-0.193766 0.0412764 -0.419289 
-7.9942e-19 -1.71832e-19 1 

-0.0971241 -0.124993 -0.0481394 
0.109428 0.0611934 0.314091 
3.3585e-18 6.29719e-19 1 

-0.0841273 0.00447603 2.42022 
-0.0463119 -0.00294124 1.57778 
-1.57433e-18 -6.37805e-18 1 

-0.0863033 0.0413897 0.130508 
-0.0620733 -0.0866091 -0.167703 
-1.5806e-18 7.88063e-18 1 

-0.0573449 -0.0105024 -0.137475 
-0.0602735 -0.00102111 0.353618 
2.22635e-18 -8.23749e-18 1 

-0.241645 -0.0215067 -0.000225802 
-0.0470236 0.0135566 0.0721651 
8.50762e-18 2.54109e-17 1 

-0.0465159 -0.0301674 0.570427 
0.0112367 -0.0881533 0.00430793 
2.41296e-19 5.21803e-18 1 

-0.0642194 0.0278735 0.0659293 
-0.00565192 -0.06423 0.0792576 
5.08884e-18 -4.83009e-18 1 

-0.0664333 -0.00211729 0.15518 
0.00291484 -0.0689536 -0.047775 
-7.62915e-18 -1.11373e-17 1 

-0.145929 0.0212775 0.265244 
-0.0664001 -0.0733333 0.214323 
2.73458e-18 -6.08061e-18 1 

-0.0442776 -0.0309469 -0.03094 
0.017451 -0.122218 -0.0170859 
7.27274e-18 -4.69538e-18 1 

-0.139797 -0.0630509 -0.144956 
0.0808966 -0.00986881 -0.195897 
1.29517e-17 1.97414e-17 1 

-0.130633 0.126676 0.663497 
-0.0642436 -0.0134987 0.0218835 
-8.12317e-18 1.66807e-17 1 

-0.0580791 -0.0274942 -0.177879 
-0.00643633 -0.0296789 0.0844714 
1.49658e-17 -1.02468e-18 1 

-0.0816588 -0.162929 0.0724094 
0.277403 -0.00807253 -0.128072 
-5.39062e-18 4.57386e-18 1 

-0.110536 -0.0185674 -0.0100826 
0.0359704 0.007013 -0.0175355 
1.27822e-17 2.86821e-18 1 

-0.0964086 0.0376268 0.0743684 
-0.0176133 -0.0559223 -0.00100259 
8.50663e-18 -8.20157e-18 1 

-0.0896911 -0.00650646 0.549622 
-0.0109848 -0.0775824 0.240092 
-2.39425e-18 1.48041e-17 1 

-0.0703559 -0.0370725 -1.43168 
0.0218519 -0.0233813 2.43104 
-4.5048e-18 -3.70314e-18 1 

-0.0600315 0.0531464 -0.0487165 
-0.000819457 0.0425941 0.31904 
1.9894e-18 8.49849e-18 1 

-0.0678516 0.0609956 -0.00324186 
-0.00822263 -0.0669128 0.0181465 
2.7703e-18 -3.08381e-17 1 

-0.0334331 0.018922 0.0466079 
-0.026333 -0.144118 -0.0975289 
4.94146e-18 1.65413e-17 1 

-0.0778985 -0.0136591 -0.141328 
0.00548979 -0.0424236 -0.100251 
2.44123e-18 -8.81556e-18 1 

-0.0645269 -0.00243158 -0.179672 
0.0205835 0.11565 0.0955709 
-5.11906e-18 2.96861e-17 1 

-0.0589686 -0.0419895 -0.106625 
0.0656474 0.000255499 -0.0642736 
-1.60146e-18 -5.34617e-19 1 

-0.0786292 -0.0891992 -0.270182 
-0.00399416 -0.0447029 -0.0628423 
-1.27686e-17 -1.22147e-17 1 

-0.148218 -0.0829532 0.705922 
0.0931283 0.000689683 -0.345756 
7.47687e-19 6.29303e-18 1 

-0.106701 -0.00203475 0.00554993 
0.0158495 0.0357694 -0.0306006 
8.04655e-18 1.37373e-17 1 

-0.159249 0.00628523 -0.285054 
0.00755949 -0.023069 0.103396 
7.25851e-18 1.00518e-17 1 

-0.107031 0.127203 0.0231519 
-0.103738 -0.063723 -0.0110162 
5.03005e-18 3.14378e-18 1 

-0.115657 -0.134795 -0.0538395 
0.144044 0.0296657 0.35996 
1.5203e-17 -3.28451e-17 1 

-0.0903235 -0.00377654 -0.184167 
-0.031916 -0.0898797 1.28015 
1.6637e-19 7.0593e-18 1 

-0.116562 -0.0309002 0.0822055 
-0.0181912 -0.0995084 0.0690916 
3.58786e-19 -1.29163e-17 1 

-0.3124 0.384841 -0.29283 
-0.0467188 0.130604 -0.376297 
-7.0783e-18 1.09142e-17 1 

-0.0574973 0.00891936 -0.106849 
0.000203509 -0.0787673 0.142562 
1.14377e-17 2.91407e-18 1 

-0.00775894 0.0707688 0.229722 
-0.0581279 -0.0412737 0.341661 
-3.17976e-18 -5.43906e-18 1 

-0.0609423 -0.0501468 -0.12148 
0.00909199 -0.0750543 0.385406 
-4.4175e-18 6.63449e-18 1 

-0.0825605 -0.00308062 -0.325282 
0.00255632 -0.0696132 -0.150716 
1.49546e-18 4.91484e-18 1 

-0.051824 -0.0275463 0.0643945 
-0.0232963 -0.112778 0.0551929 
-3.36845e-18 2.51206e-18 1 

-0.707185 0.541841 -0.203817 
0.603994 0.37901 -1.70679 
-9.52966e-18 1.6817e-18 1 

-0.0793713 0.0539025 -0.0462767 
0.0302703 -0.0253273 0.140889 
-1.88244e-17 -3.20611e-19 1 

-0.240721 0.0731403 -0.495133 
0.147273 0.0334415 0.186094 
-2.30547e-17 2.48961e-18 1 

-0.10709 0.0796754 -0.258213 
-0.0497854 -0.0480569 -0.628439 
-7.92931e-18 -8.52468e-18 1 

-0.451363 0.0592209 -0.211489 
-0.364385 0.0664258 0.44716 
-5.55879e-18 6.99332e-18 1 

-0.0409269 -0.0229824 -0.192428 
0.0355724 -0.0205879 -0.154445 
4.40869e-18 -4.09378e-18 1 

-0.059863 0.00954369 -0.115604 
0.00168313 -0.0342341 0.0330192 
-1.55201e-17 -6.96664e-19 1 

-0.183484 0.060647 0.311825 
-0.0395181 0.00406537 -0.336561 
4.95016e-19 -5.71519e-18 1 

-0.212343 -0.0754151 0.570518 
0.0103709 0.00193486 0.455804 
-4.83877e-18 1.79604e-17 1 

-0.136018 0.303361 -0.128117 
-0.212598 0.103223 -0.556142 
1.8627e-17 6.61514e-18 1 

-0.859474 1.34854 1.91961 
-0.0420791 0.571662 0.637546 
-1.55449e-17 2.93483e-17 1 

-0.0310583 -0.0401396 0.172964 
0.0690846 -0.127528 -0.146195 
-2.22912e-18 -8.1059e-19 1 

-0.115962 0.0414051 -0.161745 
-0.00609857 -0.0508383 -0.103693 
-1.41103e-17 -1.37209e-17 1 

-0.0797472 0.0198287 0.409428 
0.00325721 -0.0814225 -0.75165 
3.53929e-18 5.92414e-18 1 

-0.102273 -0.00217517 -0.0965235 
-0.0378467 -0.0303827 -0.0586741 
-1.23006e-18 -9.66114e-18 1 

-0.0697225 -0.0251131 -0.0432712 
0.00831591 -0.060719 0.248556 
5.56218e-18 1.07655e-18 1 

-0.557301 0.873035 7.44684 
0.283215 0.15489 -1.01664 
2.75704e-18 2.93812e-18 1 

-0.122266 -0.0391857 -0.0671896 
-0.0119646 -0.0222809 -0.186022 
-6.46889e-18 -5.33865e-18 1 

-0.0698665 0.0685196 -0.122076 
0.00934353 0.00429369 -0.103887 
-1.10367e-19 -4.142e-18 1 

-0.10186 -0.014412 0.0736623 
-0.00476503 0.237141 -0.469895 
4.92305e-18 -1.37055e-18 1 

-0.0840017 0.0339782 0.0440561 
-0.0376042 -0.0498328 -0.104869 
-1.23566e-19 4.69646e-19 1 

-0.256777 0.192955 -0.114769 
-0.0338049 0.055905 0.0354791 
-8.32746e-18 -3.74609e-18 1 

-0.353094 0.634649 -0.920241 
-0.237411 0.327695 -0.193025 
3.75666e-18 -1.35657e-18 1 

-0.0337173 -0.00695601 -0.0556328 
-0.022954 -0.0639361 0.0181849 
9.68561e-18 -1.18427e-18 1 

-0.0795203 -0.035791 -0.272803 
0.0613592 -0.018309 1.24151 
3.23676e-18 3.45095e-18 1 

-0.0942504 -0.048529 1.02816 
0.0450989 -0.0160194 1.40896 
-3.32674e-18 7.00062e-18 1 

-0.0656043 0.0249214 0.0294775 
0.0740091 -0.072206 1.26285 
9.60482e-18 -4.97705e-18 1 

-0.0879846 0.0199492 0.216838 
0.0450382 -0.0319341 0.0928595 
-5.757e-18 5.18211e-19 1 

-0.0684737 -0.0274989 0.0401209 
0.0181146 -0.0857422 0.138531 
3.01948e-18 7.39587e-18 1 

-0.0918819 -0.000338946 0.225252 
0.0316681 -0.0451892 0.0439731 
-3.73482e-18 8.76298e-18 1 

-0.412909 0.296928 0.203473 
-0.309995 0.0799862 -0.0028704 
-2.05966e-18 1.36582e-17 1 

-0.0642991 0.0141523 0.283874 
-0.0941826 -0.0316214 0.114655 
-1.72298e-17 -2.83785e-18 1 

-0.0942769 0.0341327 0.0826414 
0.0202714 -0.108714 -0.0164157 
1.51459e-18 4.10105e-18 1 

-0.110396 0.0199616 -0.367659 
0.010778 -0.072993 -0.168134 
1.95641e-18 5.99091e-19 1 

-0.0957163 0.0813563 -1.0828 
0.00503799 -0.0343932 0.595126 
-7.60583e-18 -5.19018e-18 1 

-0.0272236 0.0486139 -0.236156 
0.0414143 -0.0937524 -0.253084 
4.74154e-18 -1.89032e-18 1 

-0.047892 0.0194809 0.0553652 
-0.0483973 -0.107174 -0.0412334 
1.43945e-17 -3.03803e-18 1 

-0.152476 -0.0487579 -0.514142 
-0.00882743 0.043424 -0.24911 
-2.73575e-18 5.52288e-19 1 

-0.0463965 -0.00238694 0.0739709 
-0.095011 -0.0939131 0.404483 
-1.29457e-17 1.02743e-17 1 

-0.055422 0.00451997 -0.022478 
0.0188843 -0.0323298 0.108959 
-4.75868e-18 4.79393e-18 1 

-0.151825 -0.075279 -0.119529 
-0.0387427 0.00511611 0.023709 
-3.00463e-18 -9.66653e-18 1 

-0.0680729 0.0256922 -0.0460999 
0.0235427 -0.0531588 0.0452391 
-4.48172e-18 -5.61565e-18 1 

-0.105106 -0.0107942 0.0215872 
0.0389862 -0.0181171 0.110415 
-3.12405e-18 6.14397e-18 1 

-0.0926226 0.0141479 0.0370413 
0.0109332 -0.00842072 0.0529948 
7.06165e-18 7.78858e-19 1 

-0.151392 -0.0259428 0.261552 
0.0947366 -0.116193 0.101028 
-8.629e-18 3.67407e-18 1 

-0.227227 0.200045 -0.241513 
-0.0710014 0.0150049 -0.14025 
-1.20466e-17 3.99658e-18 1 

-0.0628135 0.0395484 0.11694 
-0.0443481 -0.00731838 -0.0393561 
-1.14251e-18 -6.33746e-18 1 

-0.0433204 0.0347677 0.00445264 
-0.0292425 -0.0475379 0.0899183 
-3.62042e-18 -1.53126e-17 1 

-0.0692995 0.0107398 0.46047 
-0.0164832 -0.0581681 1.747 
-6.41439e-19 -2.10006e-18 1 

-0.074526 0.0304939 -0.21774 
-0.0267605 -0.124407 0.521681 
-1.21781e-18 7.50508e-19 1 

-0.0667357 -0.0507802 -0.231832 
-0.0285855 -0.0336003 0.045637 
4.88445e-18 -1.1896e-17 1 

-0.146579 0.127067 -0.050493 
-0.13983 0.060695 0.215058 
-1.88237e-17 -3.47514e-18 1 

-0.0619801 -0.0463066 0.161167 
0.0339864 -0.0415863 -0.0459855 
1.42495e-18 5.90335e-18 1 

-0.0722171 0.0135396 1.62748 
-0.00208162 -0.0467452 4.03606 
-3.13942e-18 -4.01678e-18 1 

-0.0825897 -0.120713 -0.231344 
0.118624 -0.00466677 0.189678 
1.09817e-17 1.98939e-17 1 

-0.177488 0.0272326 -0.15677 
0.0501081 0.0692299 0.176368 
-7.2228e-18 -6.51647e-18 1 

-0.090384 0.0779103 0.25354 
0.0218955 0.0262889 -0.341599 
3.72572e-18 8.37404e-18 1 

-0.33127 0.19918 0.166232 
0.0402318 -0.0484216 -0.16417 
-8.42513e-18 -9.24103e-18 1 

-0.119898 0.0771043 0.551915 
-0.0392942 0.0354784 0.831271 
5.11712e-18 -1.804e-18 1 

-0.0599793 0.0072576 -0.376848 
-0.0348312 -0.00271916 0.105131 
-1.31558e-17 -9.92054e-18 1 

-0.114117 -0.174024 -0.168483 
0.241257 0.0273449 0.108968 
-1.46023e-17 -2.05579e-17 1 

-0.0868988 -0.00132114 -0.061079 
0.0603634 -0.0346065 -0.805125 
-2.11033e-18 -2.84368e-18 1 

-0.0757667 -0.0494048 -0.0482017 
0.0527722 -0.0634316 0.129083 
-1.99763e-17 7.41635e-18 1 

-0.0748797 -0.00700887 0.180347 
0.0742586 -0.0693162 0.0553402 
-4.07204e-18 -4.41927e-19 1 

-0.127743 -0.0442044 -0.0401345 
0.0569929 -0.04221 -0.139882 
-5.73544e-18 -6.91654e-18 1 

-0.0532938 -0.0462005 -0.0153675 
0.0422145 -0.0373544 -0.0424826 
2.91655e-18 -8.73218e-18 1 

-0.0669112 -0.116669 -0.267976 
0.110402 0.00749234 -0.22999 
7.59023e-18 6.49992e-18 1 

-0.0485135 -0.0314427 -0.419466 
0.0456262 -0.0346498 0.00932182 
2.53073e-18 1.13938e-17 1 

-0.0328477 -0.0311241 -0.0750175 
0.0114509 -0.0211908 0.165474 
-8.65478e-18 -3.0765e-18 1 

-0.194346 -0.441322 1.10157 
0.226665 0.208449 0.0224826 
-1.76917e-17 1.03751e-18 1 

-0.247967 0.206563 0.606829 
-0.136552 -0.0611108 -0.122669 
1.38236e-18 -8.50681e-19 1 

-0.0690945 -0.0273118 -0.289793 
-0.02292 -0.103244 0.0334742 
-4.47783e-18 1.47996e-18 1 

-0.0772477 0.0016097 -0.218285 
0.0458923 -0.0775387 0.0346282 
7.34822e-18 9.4655e-18 1 

-0.0353675 0.0278688 -0.111576 
0.0646 -0.0216158 -0.200388 
-6.73161e-18 -3.41472e-18 1 

-0.0664974 -0.0128785 -1.17225 
0.0102472 -0.0297852 0.232553 
1.68335e-18 -3.63192e-18 1 

-0.172279 0.0896654 0.0914576 
-0.0424917 -0.014656 -0.129614 
-1.50131e-18 2.76557e-18 1 

-0.0762993 -0.043714 0.198068 
0.0128468 -0.0427113 0.0892524 
-4.53361e-18 -1.25586e-17 1 

-0.0783845 0.00558297 0.206178 
0.010727 -0.0331035 0.128048 
6.39863e-18 -3.06192e-18 1 

-0.0592738 0.0139988 1.22064 
-0.0245262 -0.0846218 0.665436 
-3.49215e-18 5.16482e-19 1 

-0.175579 0.107696 -0.0973888 
-0.0885463 0.0121753 -0.110435 
-2.71624e-18 3.1436e-17 1 

-0.189396 0.0176725 0.700166 
0.130936 0.0465885 -1.40004 
-6.33428e-18 7.35229e-19 1 

-0.0618512 -0.02346 -0.357433 
-0.0240018 -0.0318678 -2.74837 
1.37059e-18 1.09042e-18 1 

-0.205093 -0.0278956 1.65078 
0.0650388 0.196537 2.59201 
1.38125e-18 -3.74706e-18 1 

-0.298497 -0.0505667 -0.309118 
-0.0299926 -0.0071244 -0.840367 
9.23041e-19 -6.8917e-18 1 

-0.125904 0.0400163 -0.746259 
-0.0242113 -0.00154851 -2.37917 
-1.15294e-17 1.27444e-17 1 

-0.10171 -0.0383956 -0.0220549 
-0.00193013 -0.0726246 0.138116 
-1.01596e-18 3.04787e-18 1 

-0.0705696 -0.179589 -0.373886 
0.25975 0.0890427 1.89611 
-9.0128e-19 3.22563e-18 1 

-0.193418 -0.0151518 -0.486656 
0.00724166 0.201006 -2.05595 
1.72724e-18 -2.682e-17 1 

-0.0985549 0.0624293 -0.580256 
0.0243851 -0.0579956 -0.53448 
-1.00751e-17 1.18735e-18 1 

-0.612872 0.211324 -0.526758 
-0.349542 0.0565797 0.411374 
2.07495e-18 7.35663e-18 1 

-0.0357234 0.0304594 0.000472395 
-0.009143 -0.0744704 0.0701428 
-2.71195e-18 -2.03396e-18 1 

-0.0964741 -0.00596797 0.0310905 
-0.0198697 -0.0107591 -0.0258017 
-4.81163e-18 -4.37421e-19 1 

-0.0379938 -0.0414158 -0.0710081 
-0.00455929 -0.0987623 0.362079 
-8.74027e-18 -2.47897e-18 1 

-0.0799957 0.00709448 -0.123611 
-0.00623349 -0.0915783 -0.0054133 
-4.70927e-18 4.25672e-18 1 

-0.0495048 -0.000452626 0.0122002 
-0.0106091 -0.0607025 -0.0512189 
2.39566e-18 -7.48313e-18 1 

-0.0307975 -0.000950658 0.0466712 
0.0283622 -0.0327593 -0.188458 
9.04161e-18 -4.98995e-18 1 

-0.0958685 0.0286023 -0.160898 
0.062871 -0.0520933 -0.166279 
-1.38613e-17 2.53633e-18 1 

-0.189373 -0.0968695 0.543035 
-0.0428583 0.0867509 -0.396847 
-9.43505e-19 5.95231e-18 1 

-0.107848 0.027586 -0.0999496 
-0.00891262 -0.0273646 -0.100722 
-6.06907e-18 3.59418e-18 1 

-0.119993 0.0272786 0.780949 
-0.0874911 -0.058093 1.38929 
8.07698e-18 6.63997e-18 1 

-0.147748 -0.0764678 -0.46689 
0.30852 0.0122126 0.190353 
5.44954e-18 3.40089e-17 1 

-0.0937278 -0.00592775 0.0438021 
-0.0141269 -0.0498405 -0.163949 
3.41417e-18 -3.65803e-18 1 

-0.0775733 0.0668315 -0.244806 
-0.0159416 -0.0271398 0.123075 
1.17951e-17 3.29863e-18 1 

-0.0978685 0.0722788 -0.0475202 
-0.0313151 -0.0850979 -0.0480387 
-1.80734e-17 9.77601e-20 1 

-0.0517318 0.0768002 0.126051 
-0.100014 -0.0366959 -0.206681 
5.06213e-18 8.3455e-19 1 

-0.0877542 0.107251 0.238413 
-0.178127 -0.0547921 -0.00249186 
-2.89816e-18 8.69447e-18 1 

-0.05613 -0.00406254 -0.0339473 
-0.0320465 -0.0565908 0.0101327 
-1.77205e-17 4.11751e-18 1 

-0.0708171 -0.0168676 0.0896574 
0.0249711 -0.0720639 -0.410635 
2.65729e-18 -1.5992e-17 1 

-0.149039 -0.105731 0.0287804 
0.161733 0.0142511 -0.165891 
1.15901e-18 3.20956e-18 1 

-0.107844 -0.0122542 0.107032 
-0.0559906 -0.0499719 0.129168 
-4.72291e-18 -3.80457e-18 1 

-0.093583 0.00336221 0.292428 
-0.0330001 -0.0657035 0.350816 
5.54815e-18 -3.39547e-18 1 

-0.143198 -0.016791 -0.0942453 
0.0502799 -0.00755486 -0.00787848 
-1.66256e-18 -2.07819e-18 1 

-0.0909104 -0.00132612 -0.181725 
0.00467903 -0.0830025 0.262384 
1.36638e-18 -6.09269e-18 1 

-0.737228 0.0201961 -0.0758657 
-0.017305 0.321777 0.642313 
-1.99809e-18 -2.30328e-19 1 

-0.136469 -0.0815977 0.0336684 
0.090944 -0.0209472 0.066414 
-6.77321e-18 -5.21537e-18 1 

-0.0799393 -0.0698256 -0.0780529 
0.0316895 -0.0582392 -0.0192647 
-6.50446e-18 -1.31087e-18 1 

-0.411061 -0.32384 -0.194515 
0.178419 0.127373 0.289064 
1.6433e-17 7.72676e-18 1 

-0.227592 -0.0446878 1.21333 
-0.0682014 0.0785481 -0.73215 
6.4009e-18 2.5879e-18 1 

-0.216363 0.128238 0.257268 
0.295583 0.105283 -0.734019 
-2.24793e-18 5.38566e-18 1 

-0.0950967 0.0557644 0.122351 
-0.0503697 0.00459317 -0.188468 
-5.48561e-18 6.12659e-18 1 

-0.0748811 0.0418781 -0.138433 
-0.0399339 -0.0836117 -0.412864 
-1.3081e-17 1.15421e-17 1 

-0.0625996 0.015512 -0.16348 
-0.0296861 0.0876428 -0.285466 
6.44791e-18 -1.05511e-17 1 

-0.0851581 -0.0333102 -0.0692231 
-0.0507871 -0.0633409 0.288458 
2.93092e-18 9.53146e-20 1 

-0.130315 -0.0469425 -0.0109567 
0.120687 -0.0163283 -0.306492 
2.84285e-18 1.9792e-18 1 

-0.0432909 -0.0375513 0.0247203 
0.012672 -0.0902912 0.000543463 
6.92492e-18 -1.5629e-17 1 

-0.0617306 -0.0125716 -0.0378694 
-0.0093198 -0.0144495 -0.0759138 
-9.55352e-19 2.41352e-18 1 

-0.395811 -0.0395499 -0.401499 
0.0770609 0.066207 -0.0878013 
1.0618e-17 -6.80528e-18 1 

-0.254695 0.0614214 1.18913 
0.0247196 0.162681 0.806836 
9.84907e-19 -9.56767e-18 1 

-0.113934 0.00125149 -0.00467042 
0.0150339 -0.0416502 -0.130391 
5.33951e-18 -2.18386e-17 1 

-0.0336374 -0.0113265 0.0610152 
0.00586339 -0.0541229 -0.0908895 
1.13069e-18 -7.55032e-18 1 

-0.0747227 -0.0119348 0.28185 
0.000501833 -0.0109858 0.12323 
3.77688e-18 -3.90522e-18 1 

-0.0585302 0.0141515 -0.0901161 
-0.00334906 -0.0170359 0.0626696 
-1.23379e-17 -9.06138e-18 1 

-0.66993 0.75712 2.31043 
0.0572331 0.308669 3.57094 
1.48917e-18 7.20568e-20 1 

-0.0775769 0.051916 -0.076112 
-0.1198 0.0176376 0.00948363 
2.02262e-18 5.39364e-18 1 

-0.0437857 0.0234053 -0.090068 
-0.0593143 -0.0472218 -0.280976 
1.47485e-17 1.2103e-17 1 

-0.108861 -0.0166996 -0.0373609 
0.0285928 -0.0467655 -0.540381 
1.15126e-17 2.1131e-18 1 

-0.0532786 0.0409153 -0.0206291 
0.0596844 -0.0927197 0.441084 
1.2704e-18 1.09161e-17 1 

-0.0520475 0.00927656 -0.00402149 
-0.0354227 -0.0259047 -0.534274 
-1.42618e-18 -3.83472e-18 1 

-0.140192 0.0871838 0.875435 
-0.0401849 0.0394247 -0.814569 
-1.19941e-18 8.85045e-18 1 

-0.074919 -0.0140875 -0.406701 
0.0567324 0.0197919 -0.338516 
-3.7918e-19 2.66593e-17 1 

-0.0695687 0.0122113 0.00760792 
-0.00409968 -0.175608 0.0865704 