# vtk DataFile Version 3.0
Output file generated by Yade's KinematicLocalisationAnalyser
ASCII
DATASET UNSTRUCTURED_GRID

POINTS 13483 float
684.278 26.6349 0.420757
900.704 43.4184 -0.453471
134.575 6.03296 -0.444264
954.46 4.22857 0.265609
556.909 7.4055 -0.303636
350.583 33.9189 -0.460741
175.092 6.71858 0.399057
638.266 9.90498 0.132783
553.452 21.8815 0.140947
831.667 11.7676 -0.339157
235.033 8.64511 -0.120585
286.484 6.22801 -0.274304
740.459 27.7778 0.139507
715.71 13.79 0.0801396
153.508 16.6435 0.425885
247.282 33.5401 -0.394072
242.864 12.6626 -0.256668
321.517 9.29788 0.381265
379.362 31.5333 0.151059
585.97 8.52429 0.338491
457.55 35.5928 0.0992019
664.939 42.2325 0.25406
949.408 28.6767 -0.443461
800.454 40.1162 -0.430135
511.373 15.7276 0.29661
268.561 42.8911 -0.124259
548.218 26.3923 -0.487036
658.445 18.3509 0.234392
50.5443 15.0677 -0.455935
826.104 29.8868 -0.326147
537.721 4.81471 0.316403
18.7986 22.1271 0.294526
916.773 39.6735 -0.241359
552.271 2.4973 0.457774
87.7955 42.5387 0.100286
582.402 29.1691 0.315844
593.024 16.3979 -0.412447
382.602 21.4971 -0.184214
596.318 24.8094 -0.322232
390.686 32.198 -0.290719
269.19 14.382 0.328481
483.778 34.3825 -0.0614626
773.031 6.58943 -0.119028
215.782 6.06755 0.382623
61.9794 6.70811 -0.0695688
76.3982 8.67449 -0.27172
792.885 8.39669 0.478692
26.4325 11.4369 -0.306854
688.622 42.402 0.363054
774.745 21.8383 0.333507
193.067 31.1475 0.286436
894.577 32.0092 -0.128419
39.2934 27.1041 0.112671
597.224 2.93693 0.311634
159.29 7.34691 -0.4534
667.437 32.1865 0.369724
563.139 25.1305 -0.123803
195.345 0.915031 -0.267254
36.6874 2.42015 -0.28134
388.405 17.3513 0.264067
701.388 43.4072 -0.131869
515.641 32.499 -0.171621
444.721 1.03281 0.186568
806.135 7.40499 -0.309847
29.8174 41.3124 0.235798
286.219 29.4711 -0.287241
831.845 7.15942 -0.18499
765.533 41.782 0.348851
465.33 8.44767 -0.458012
639.224 3.46038 -0.337531
868.454 27.7713 0.380079
146.748 7.34118 0.280911
556.584 24.4492 -0.130845
533.007 14.635 -0.118579
328.413 16.2905 -0.350128
23.2859 13.1815 0.243747
923.978 30.178 -0.321817
370.998 37.5521 -0.278178
772.018 18.7709 0.311414
792.468 12.0994 0.233524
935.897 10.5674 -0.180173
519.428 33.3504 0.166214
103.629 36.4366 -0.259465
785.788 32.0577 -0.212331
736.745 36.2377 -0.0995447
958.163 34.259 0.0984876
927.136 1.2529 -0.476497
324.699 28.0595 0.420844
703.436 6.21306 -0.0921986
27.5338 5.30556 -0.243646
148.979 36.4609 0.138923
573.929 13.8447 0.183426
913.394 22.8364 0.492147
219.218 27.8136 -0.232964
50.0568 33.0117 0.259967
551.06 1.16413 0.0953738
263.938 8.75447 -0.33165
871.916 36.6354 -0.248876
899.082 24.296 0.229466
403.442 20.0784 -0.255734
183.661 26.2172 0.436478
617.516 36.8245 -0.407568
424.829 14.8005 -0.472187
462.266 28.5661 -0.0961671
422.692 4.4243 0.407178
615.144 10.6708 -0.0903843
959.971 11.0741 0.147951
90.3056 37.6339 -0.392666
375.024 4.72075 -0.174888
631.152 9.18419 -0.315303
402.636 42.4023 0.442814
29.1002 23.6445 0.475345
34.398 5.71362 0.314845
640.478 30.6096 0.329735
566.538 22.9639 0.146592
29.6861 35.5197 0.26432
104.418 29.0399 0.214454
363.634 15.4071 -0.311741
678.602 18.0156 -0.121146
532.749 36.6244 0.296035
852.716 7.41557 0.348188
842.877 6.16173 0.189062
433.164 35.8935 -0.0938516
723.008 23.9796 0.0941635
267.61 16.3611 0.481338
369.754 3.60781 0.463737
116.65 30.1532 -0.321915
130.853 23.0832 0.275981
612.352 37.2671 0.0696491
342.997 18.3833 0.457489
820.081 32.6113 -0.103274
770.353 40.9996 -0.109494
539.631 19.9195 -0.382856
903.957 8.54172 0.268999
481.12 22.4643 -0.224061
311.069 23.5628 -0.311039
773.051 28.9081 0.273513
312.815 27.8519 0.397669
651.289 11.2641 0.162701
372.306 34.3094 -0.181946
567.632 11.1609 0.409919
411.55 30.083 0.0879321
483.589 16.1222 -0.108386
357.308 40.5468 0.435713
214.845 28.6812 0.119208
906.534 41.1392 0.151794
954.773 11.5034 -0.259701
6.83889 11.7506 0.463921
488.007 21.7336 -0.409435
43.353 21.5644 -0.0897077
422.374 30.0354 0.460426
443.739 24.1286 -0.259668
84.1406 11.5709 -0.438838
58.6533 31.9455 0.433671
254.521 13.0738 0.42277
702.924 37.1337 0.393462
654.279 19.4665 -0.428971
84.394 20.3956 -0.463114
803.413 43.4881 0.405312
888.173 2.38923 -0.416443
757.025 37.849 -0.379822
800.81 2.33893 0.368458
622.032 25.501 0.382294
666.534 42.7785 -0.434538
578.384 17.6679 -0.371341
951.151 2.88655 0.210177
252.026 23.8621 -0.113308
144.165 33.5576 -0.142714
278.754 6.4353 -0.36067
106.699 3.98082 0.229152
72.3923 9.60394 -0.190198
310.768 34.7372 -0.296661
19.1417 23.835 -0.361979
628.425 18.3911 0.386473
688.418 37.4499 0.196968
521.512 20.3827 -0.345723
938.662 35.4203 0.37764
457.917 8.3099 0.0929531
491.154 34.7857 0.36703
606.613 3.39193 -0.179641
25.8651 23.0428 -0.373072
654.304 4.19869 -0.386821
617.388 4.33227 -0.280082
233.063 11.0442 0.464531
479.169 15.9256 0.188179
350.827 6.19958 0.300813
436.918 18.3938 -0.337604
857.582 39.859 0.107134
217.264 24.8047 0.394091
918.007 6.87423 0.306358
856.562 36.0443 0.322049
432.005 9.89862 -0.193053
828.351 2.36333 0.378404
688.631 24.0964 -0.401946
861.875 17.5036 -0.37109
485.732 41.1604 -0.262181
561.101 12.0568 0.324724
525.248 42.7218 -0.201536
502.643 8.50434 0.147013
760.807 37.0668 -0.275887
758.22 33.5313 0.309233
217.059 37.6029 0.333628
933.5 10.4292 -0.115094
668.922 43.3656 0.241604
12.7545 16.4234 -0.168229
459.619 24.6046 0.349767
211.939 22.3234 0.398866
105.281 37.3571 0.197468
911.119 20.3531 0.412248
753.287 41.3414 -0.225501
359.943 24.6773 0.357237
603.083 9.9892 0.319581
93.364 42.4018 0.16136
279.806 25.0845 -0.466647
631.58 22.6138 0.366313
549.808 17.7546 0.398126
296.86 0.888472 -0.340528
627.79 38.5402 -0.347007
604.954 39.5418 -0.432528
544.895 31.8821 0.396703
564.451 0.758094 -0.469827
813.067 17.5045 -0.33234
203.546 11.5695 0.159771
566.261 34.5299 -0.412096
641.548 37.5899 0.113429
82.0299 0.955026 0.270903
284.53 4.64258 0.164417
954.054 13.3965 0.172042
936.245 12.5419 -0.343561
962.333 15.3993 -0.477492
342.657 8.37333 -0.225769
869.683 21.2208 0.394209
459.899 39.8645 -0.309485
507.158 0.809935 -0.401379
744.257 33.3453 -0.439385
30.9614 29.4167 -0.297956
373.164 39.7172 0.450659
285.444 2.79068 0.295709
920.031 37.005 -0.202919
824.695 44.5497 -0.218446
324.609 10.5859 0.154658
765.831 27.1845 0.0820722
632.842 2.64204 0.227971
615.041 6.34507 0.414424
109.915 17.2953 -0.47241
342.429 1.03177 -0.217403
387.965 2.25578 -0.364962
15.9766 7.51335 -0.281148
5.05774 29.4891 0.231921
183.814 18.3426 -0.345304
77.5126 40.5172 0.211815
75.9153 27.8745 -0.311909
478.686 14.2239 -0.376235
414.892 33.6312 0.451727
892.286 33.9488 -0.114061
22.4202 3.8589 0.290424
79.7006 6.70228 0.139691
714.62 36.256 0.137242
333.331 0.929012 0.317865
412.036 15.6182 -0.096814
266.958 4.42161 0.368048
749.127 20.3326 -0.18009
510.606 8.19493 0.389889
873.009 19.3215 -0.357835
722.172 27.4446 -0.29235
770.892 16.622 0.0870611
475.074 25.5337 0.471841
115.767 42.8851 -0.302355
616.492 40.6418 0.0673216
858.758 13.0491 -0.172802
269.311 29.0923 -0.229791
36.3303 16.257 0.171561
380.192 13.514 0.466432
122.529 38.8684 -0.396168
302.884 41.0079 -0.186412
481.047 1.05038 0.188631
920.675 26.9774 0.371202
792.686 0.802594 0.454928
375.648 3.00561 0.441791
339.406 25.6201 0.149001
524.143 39.5142 0.197596
92.2262 7.64931 -0.460661
224.596 43.2294 0.377991
902.027 26.6529 -0.347492
560.902 37.2541 -0.0783369
226.812 40.1718 -0.220268
182.455 40.7725 0.388574
961.759 30.5535 -0.388007
958.127 11.0144 -0.438224
692.032 3.5895 -0.479848
215.866 23.5997 -0.0959907
624.316 26.703 0.105199
626.355 26.2604 0.261275
462.824 5.48888 -0.13992
545.467 0.937671 -0.280052
889.952 35.8773 -0.466768
96.6045 29.4742 -0.211802
755.48 17.5877 -0.426874
310.722 15.2814 -0.316993
11.4609 2.27125 0.325454
142.698 35.1371 -0.188804
76.212 22.3051 0.443613
812.207 34.3149 0.301789
927.215 40.7899 -0.159864
211.017 27.1468 -0.171566
948.906 11.2055 -0.288476
51.2454 34.8563 -0.24252
103.263 27.4284 -0.14707
726.622 12.4972 -0.377163
467.927 17.7203 -0.453563
589.578 16.2329 0.102967
270.01 27.1821 -0.184573
711.337 4.46602 -0.410202
963.188 10.6305 0.302218
34.0577 30.4603 -0.264537
305.962 7.6709 0.185171
251.957 14.677 -0.25285
1.17089 33.9796 0.149556
255.551 14.0898 -0.361178
240.19 10.7143 0.128726
243.062 25.3455 0.26811
151.287 27.0536 -0.126976
622.39 14.5651 -0.31802
190.157 13.8605 0.339864
914.097 38.3178 -0.22408
197.829 3.78748 0.437107
54.0343 36.0598 -0.222015
865.127 45.4423 -0.426405
318.287 30.7812 -0.365705
781.493 22.2567 0.409269
932.243 26.6584 -0.498024
340.632 8.99966 -0.114259
854.191 28.0658 -0.339465
372.251 2.65025 -0.337468
471.062 23.2313 0.37983
778.121 15.4189 0.406888
120.274 11.4659 -0.294819
547.239 3.97134 -0.450864
877.044 17.0972 -0.192391
100.221 7.52024 0.178927
319.045 14.3339 0.197416
479.565 11.3958 -0.198587
949.308 2.52163 0.362109
450.256 1.78194 -0.418502
201.242 37.272 -0.26666
861.628 10.4717 -0.274942
146.208 34.6638 -0.175193
298.33 30.6082 -0.387839
453.444 21.0232 0.214624
654.071 12.9603 -0.322486
438.596 9.92355 -0.386439
517.239 26.7133 -0.397937
901.981 43.1648 0.364837
54.1697 10.5989 0.0945278
339.108 36.8683 0.193259
430.067 25.8023 -0.355365
463.793 20.5275 0.249997
592.748 43.031 0.356861
882.058 33.9586 0.21527
764.801 32.79 0.356462
256.124 32.9755 0.37666
16.1384 29.9328 0.151464
756.367 34.26 -0.127243
577.86 39.7441 -0.428938
260.453 37.9091 0.0896795
790.135 29.4282 0.11518
172.139 9.04908 -0.186507
415.281 20.5117 0.262062
525.914 40.6607 0.0987459
469.203 18.9454 0.197401
897.254 45.5665 0.290964
482.494 3.32576 0.40818
57.3165 24.1082 -0.28795
533.221 30.3888 0.338814
492.423 39.9603 0.367749
917.395 32.6294 -0.223432
851.177 27.0716 0.239696
615.295 17.8593 -0.158899
906.682 34.3052 0.366344
332.374 2.02608 -0.444346
428.652 28.1406 0.456936
33.1079 37.2231 -0.29116
857.564 28.8088 -0.130482
697.808 19.0943 -0.475797
525.13 0.794656 -0.459154
143.971 4.39399 0.291632
483.797 38.6548 -0.101493
14.1678 0.912128 -0.308645
948.021 5.2365 0.11288
[...]
POINT_DATA 13483
TENSORS Strain_matrix float
-0.0349293 -0.0817139 0.919028 
0.00966529 -0.050063 0.302472 
4.73649e-18 -3.43344e-18 1 

-0.0783562 -0.0296753 0.732467 
0.00737681 0.00281347 2.29226 
-6.35952e-19 7.30751e-18 1 

-0.00556703 -0.0187708 -0.995006 
0.0132598 -0.104549 0.698666 
-9.38656e-18 -4.15532e-18 1 

-0.143913 -0.00612516 -0.197649 
-0.0143297 -0.00396751 0.0494245 
4.41891e-18 -9.76738e-18 1 

-0.0297667 0.00200929 -0.0182563 
0.0301365 -0.0980875 -0.00339629 
-1.4328e-18 -7.48636e-18 1 

-0.019458 0.0009706 0.273852 
-0.00111259 -0.0531565 0.928529 
-2.86324e-18 -3.44624e-18 1 

-0.0130467 -0.0288739 0.385813 
0.00615594 -0.0920978 0.628748 
3.46144e-18 -3.64323e-18 1 

-0.0384758 0.0120924 -0.0757294 
0.00117057 -0.0676207 -0.0545098 
-8.45871e-19 -9.53955e-18 1 

-0.0147246 0.0487364 -0.121084 
0.0722042 -0.0449014 -0.197547 
-1.66677e-17 -6.17324e-18 1 

-0.0833555 -0.0035728 -0.0582158 
-0.00603992 -0.0821371 -0.487252 
3.6303e-18 -3.23185e-18 1 

-0.00844507 0.0138514 -0.0574274 
-0.0106932 -0.0799913 0.0147916 
1.17119e-17 2.92798e-18 1 

-0.024725 -0.0256428 0.0688446 
-0.0716019 -0.103998 0.0451793 
-9.08159e-18 -9.30451e-19 1 

-0.0448992 0.0354483 0.0163642 
0.014662 -0.0309625 -0.103476 
6.64836e-18 -3.44059e-18 1 

-0.0648349 0.025101 -0.127342 
0.0119745 -0.0577582 0.168244 
-2.45439e-18 5.28444e-18 1 

-0.0284951 -0.0254411 0.0181715 
0.0347762 -0.0514753 -0.398062 
3.58161e-18 5.64374e-18 1 

-0.00591409 -0.0101297 -0.199361 
-0.0212492 -0.0552834 0.88608 
1.17013e-19 -4.50988e-18 1 

-0.00626246 -0.0282924 0.0869287 
0.00867615 -0.122863 0.0270195 
2.33048e-19 -2.42758e-18 1 

-0.0447364 0.0110756 0.00356789 
0.022716 -0.104411 -0.0422603 
8.11945e-19 -1.13672e-17 1 

-0.0609963 -0.0301284 0.0704944 
-0.0953463 -0.0608493 -0.0300766 
-8.33254e-19 -1.15614e-17 1 

-0.0344092 0.0287924 0.213745 
-0.0536952 -0.093455 -0.130937 
-4.25065e-18 -8.25931e-19 1 

-0.0246237 -0.00690918 -0.0959882 
0.0306044 -0.0354622 -0.000510374 
-1.48149e-17 3.09985e-18 1 

-0.0697355 -0.0204123 0.224202 
0.030344 -0.000182574 -0.0548785 
1.7907e-18 5.1852e-19 1 

-0.121361 -0.0198382 -1.05595 
-0.0306713 0.0275914 -1.12715 
1.07805e-17 -1.1474e-17 1 

-0.05673 -0.0216972 0.222031 
0.00428047 -0.0287343 -0.160747 
-6.15523e-18 3.38677e-18 1 

-0.0181534 -0.01332 -0.141145 
0.0761727 -0.0611188 0.0607202 
-1.68243e-18 -1.21481e-17 1 

0.00453844 0.019294 0.023897 
-0.0762386 -0.0173317 -0.0115783 
1.99412e-19 1.82319e-18 1 

-0.0340669 0.000352564 -1.01653 
-0.00553821 -0.0586347 -1.09936 
2.06637e-19 -3.55933e-18 1 

-0.0544806 0.00813433 -0.0107246 
-0.000595118 -0.056975 0.0217682 
-5.18885e-18 -1.80374e-17 1 

-0.0263039 0.0521266 -0.31638 
0.0404927 -0.101096 -0.514186 
-1.15419e-19 2.67874e-18 1 

-0.0929993 -0.0090348 0.158714 
0.00322192 -0.0332341 0.0907518 
8.23969e-18 -3.78172e-18 1 

-0.0370729 -0.0368163 -0.0253744 
0.0091069 -0.159986 0.389289 
-9.4145e-18 1.07034e-17 1 

-0.0478632 0.0613574 -0.273076 
0.0734393 -0.154108 -0.13727 
4.22413e-18 1.10146e-17 1 

-0.0712136 -0.0351132 0.115612 
0.0186294 0.0152964 0.0940638 
-1.47069e-17 -2.45562e-18 1 

-0.012511 0.00915852 -0.0970902 
-0.0172842 0.000933966 -1.67376 
5.30806e-18 2.18321e-17 1 

0.00215409 0.0194539 0.176381 
-0.0695695 -0.0612384 0.028236 
4.01046e-18 -1.14403e-17 1 

-0.0369037 -0.0413783 -0.143273 
0.0530437 -0.0592746 0.105101 
2.06906e-18 -3.11575e-18 1 

-0.0339499 -0.00127691 0.455747 
-0.00160241 -0.0685505 -0.118923 
5.04022e-18 -2.26186e-18 1 

0.0222718 -0.0795621 -0.221585 
0.0283438 -0.194606 -0.0949416 
4.29024e-18 -1.04128e-17 1 

-0.0156598 -0.0352819 -0.0376775 
0.0567838 -0.0669578 0.0253175 
5.24917e-18 -1.28551e-18 1 

-0.000557847 0.00939359 0.0180823 
0.00350387 -0.0834368 0.00859661 
5.04172e-18 1.18718e-17 1 

0.000464745 0.0376358 0.0227966 
-0.0214172 -0.142424 -0.348731 
-7.00629e-18 6.42243e-18 1 

0.0199554 -0.0149238 0.00165404 
-0.0522752 -0.0544752 0.181632 
3.86776e-18 -1.26715e-17 1 

-0.0650592 -0.0137162 -0.0580017 
0.00388934 -0.082416 -0.150026 
-2.05919e-18 -5.22597e-18 1 

-0.00860532 -0.0298876 0.200891 
0.0187898 -0.107091 -0.119783 
1.95372e-18 -3.20147e-19 1 

-0.00397229 0.00559003 -0.00823196 
0.0146063 -0.0904365 0.0505289 
-1.61439e-17 -5.7272e-18 1 

-0.00966158 0.00249151 0.0905677 
0.0230252 -0.0932161 0.0368865 
-5.73174e-18 -5.51339e-18 1 

-0.0451364 -0.0109396 0.213766 
-0.0197998 -0.0856336 -0.0257484 
8.98828e-18 8.2105e-18 1 

-0.00567616 -0.0227562 -0.00603371 
0.00661049 -0.159489 -0.0093571 
4.33613e-18 9.50905e-19 1 

-0.112568 -0.0634483 -0.170893 
0.0596572 -0.0244193 -0.161173 
-1.29703e-18 -1.53285e-18 1 

-0.0413084 -8.82392e-05 0.0323404 
0.0419057 -0.0476506 -0.127514 
2.67166e-19 -3.11694e-19 1 

-0.0261488 0.0651012 -0.14306 
-0.0985757 -0.0350695 0.0674096 
-4.14972e-18 -1.01213e-18 1 

-0.0668551 -0.0534924 -0.142068 
0.00222969 -0.0456087 -0.150603 
-7.82322e-18 1.39549e-18 1 

-0.0196625 -0.0254409 -0.0836954 
-0.0180747 -0.0465778 -0.00858617 
-3.98297e-18 -6.19573e-18 1 

-0.0525381 0.0168377 0.0535799 
0.00269554 -0.0653379 -0.122067 
4.23473e-18 3.12087e-18 1 

-0.0255732 -0.0050271 0.508213 
-0.00175522 -0.106392 -0.175465 
1.08692e-17 3.43579e-18 1 

-0.0459729 -0.00565095 -0.740042 
-0.00137372 -0.0309064 0.0695822 
-6.13654e-18 -5.04138e-18 1 

-0.0424669 -0.0538345 0.123478 
0.108198 -0.0395894 0.0819217 
-7.53039e-18 -9.47791e-18 1 

0.0019516 0.0633999 0.143809 
-0.0292139 -0.145872 -0.0783751 
7.04007e-18 4.21063e-17 1 

-0.00883859 0.0202852 0.069072 
-0.00904328 -0.141629 0.0119086 
3.82556e-18 1.43252e-17 1 

-0.0109272 0.0442046 0.256789 
-0.00104602 -0.125201 -0.247976 
3.01561e-18 2.46275e-18 1 

-0.0389404 -0.0303219 -0.152573 
0.0371736 -0.0125119 -0.0634986 
-3.90327e-18 -6.22547e-18 1 

-0.0176755 0.00246788 -0.0184504 
0.012203 -0.0309743 0.0141049 
-7.36233e-18 -3.52185e-18 1 

-0.0306103 0.00331139 -0.0791225 
0.000921427 0.0100945 0.0443505 
1.09695e-17 1.79015e-17 1 

-0.0475833 -0.0246284 0.0723083 
0.018684 -0.0667524 0.00526449 
-2.01018e-18 3.80497e-18 1 

0.00249996 0.0295945 0.117277 
-0.00584804 -0.0562273 -0.227836 
-4.10443e-18 -4.81411e-18 1 

-0.0422718 -0.122667 -0.0965535 
0.0807323 -0.100265 -0.167106 
5.99283e-19 5.32696e-18 1 

-0.0811967 0.0294079 0.00973724 
0.026484 -0.0710345 -0.0293477 
-3.32778e-18 3.89975e-18 1 

-0.060475 0.0201128 -0.179287 
0.014963 -0.0263619 0.120642 
1.56664e-17 1.05019e-17 1 

-0.0354068 0.00669314 0.2834 
-0.0360185 -0.102112 0.192073 
7.14064e-19 -3.67233e-18 1 

-0.0714569 -0.0202525 0.109316 
-0.00957878 -0.108471 0.0847934 
-1.93502e-18 1.46269e-19 1 

-0.102666 0.0397387 -0.267097 
-0.0378455 -0.010882 -0.175572 
5.46276e-18 3.25e-18 1 

-0.00619571 0.0228236 -0.175316 
-0.00144785 -0.0984711 0.0454584 
-6.62447e-18 -2.29576e-18 1 

-0.0176853 -0.017789 -0.00230794 
-0.0392821 -0.0778046 0.119172 
-1.06485e-17 4.12976e-18 1 

-0.0190977 -0.000740911 -0.0535827 
-0.0245313 -0.0744677 -0.00252469 
3.77763e-18 4.05479e-18 1 

-0.0302327 -0.0339608 -0.30633 
0.0054822 -0.07947 -0.160872 
-3.31709e-18 -6.03543e-18 1 

0.0167084 -0.0339154 0.0732706 
-0.0409329 -0.147378 0.0779732 
-1.45723e-18 2.80236e-18 1 

-0.113762 0.00111599 -0.0731207 
0.0678113 -0.0363094 -0.0380493 
7.81863e-18 1.18648e-17 1 

-0.00612769 -0.00229563 0.0741635 
0.00288399 -0.0806606 0.166672 
-2.24688e-18 9.62948e-18 1 

-0.0745265 -0.079113 -0.147886 
0.0758302 -0.0451425 0.00502175 
-3.14031e-18 5.34924e-18 1 

-0.0476573 0.0217024 0.00616306 
-0.0298922 -0.0594147 0.00286589 
-3.65813e-18 -9.01278e-19 1 

-0.100996 0.0362117 -0.0647394 
-0.0135094 -0.0658941 0.191215 
3.54497e-19 -4.59386e-19 1 

-0.0111225 0.00339529 -0.110392 
0.00469878 -0.0271441 0.0799795 
2.55715e-18 1.65475e-17 1 

-0.0157995 0.0416435 0.147908 
-0.0408389 -0.0222513 -0.154585 
5.5068e-18 9.73764e-19 1 

-0.0618464 -0.0458806 -0.163038 
-0.0461889 -0.0702396 -0.025546 
-4.64986e-18 -2.0666e-19 1 

-0.0560641 -0.0131595 0.159994 
0.0344312 -0.0171676 0.122972 
5.28731e-18 1.58619e-17 1 

-0.0383743 0.0185879 0.0328201 
-0.0336261 -0.00189406 -0.116317 
-2.01545e-18 -1.88109e-18 1 

-0.1007 0.0272234 0.410241 
0.00746412 -0.0626606 0.12254 
-7.67866e-18 3.08057e-18 1 

-0.0071753 -0.0284066 0.0259778 
0.105554 -0.0921773 -0.0919005 
-1.19163e-17 8.53099e-18 1 

-0.0473415 -0.0263202 0.0320168 
0.0139456 -0.0773841 -0.0936621 
9.35025e-18 -2.55671e-18 1 

-0.0132507 0.000241375 0.0256854 
-0.00709741 -0.0952741 -0.134388 
3.9111e-18 -2.70769e-18 1 

-0.0235827 -0.0364506 -0.115465 
0.0119377 -0.0267559 0.0339448 
2.62118e-18 1.31059e-18 1 

-0.0144696 0.0212424 0.0623639 
0.0109726 -0.092484 -0.0573151 
0 1.10732e-17 1 

-0.104206 -0.00474573 -0.031315 
-0.00161103 -0.0172603 -1.70619 
2.01783e-18 5.56582e-18 1 

-0.0132388 0.0106228 0.0192309 
-0.0102373 -0.0897522 0.123629 
-1.34132e-17 -5.13162e-18 1 

-0.00892725 0.010857 -0.528816 
0.015581 -0.0250998 0.0520549 
7.33098e-18 -4.38826e-18 1 

-0.025652 -0.0165912 0.107029 
-0.0193756 0.019194 -0.299781 
4.03885e-18 4.60736e-17 1 

-0.0227669 0.00606057 0.0820738 
-0.01801 -0.0703188 -0.0799061 
-7.62768e-18 3.1878e-18 1 

-0.0694116 0.0107969 -0.137634 
-0.0274912 -0.0329354 0.182827 
-7.18701e-18 4.32644e-18 1 

-0.0950147 -0.0326656 -0.101446 
0.0163189 0.0169391 -0.0766809 
3.24077e-18 1.14544e-17 1 

-0.0210289 0.0204047 -0.0231793 
-0.0439094 -0.0752529 -0.0369011 
-1.52567e-18 -3.55989e-18 1 

-0.0422225 0.000519599 2.60512 
0.0146914 -0.0594848 -2.89503 
4.50185e-18 -9.52262e-18 1 

-0.0373205 -0.00823124 0.25664 
0.0100869 -0.0500006 -0.588297 
-5.96032e-18 2.38159e-18 1 

-0.0101215 0.0251656 -1.12204 
0.0893295 -0.10773 1.42896 
-6.31409e-19 -4.35454e-19 1 

-0.00968828 -0.0280229 -0.063174 
-0.0470229 -0.0597646 -0.140028 
-4.7482e-18 1.35697e-17 1 

-0.0209733 -0.0136885 0.126818 
0.0172927 -0.100071 -0.321211 
2.22954e-18 -3.10611e-18 1 

-0.0371681 0.00819946 0.222997 
0.0311199 -0.0781224 0.0408513 
4.39638e-18 -2.45379e-18 1 

-0.109374 0.0161877 0.0265382 
-0.0212003 -0.0359047 -0.0598844 
3.88308e-18 3.80394e-18 1 

0.00913698 0.0114576 0.0771296 
-0.047931 -0.0622185 0.100577 
1.16217e-17 -8.03337e-18 1 

-0.0346342 -0.0161515 -0.0433622 
0.0055071 -0.0911206 0.07759 
-1.00058e-17 -1.93497e-18 1 

-0.0519658 0.022616 0.198699 
0.030068 -0.0960651 -0.329499 
-8.27838e-20 1.41284e-17 1 

-0.0266958 0.000764332 -0.593388 
0.0153306 -0.0509923 1.67716 
-1.79453e-18 -1.04286e-18 1 

0.00424007 0.0252394 -2.39493 
0.0171009 -0.086979 1.00399 
-2.72842e-18 -3.32735e-20 1 

-0.00166434 -0.000286973 0.0819479 
-0.0297784 -0.0973345 -0.178879 
1.4599e-18 -5.54763e-19 1 

-0.0493137 0.00781425 -0.337052 
0.0116714 -0.0467069 -0.238117 
4.29293e-19 -1.66514e-18 1 

-0.0644068 -0.0290359 -0.0773738 
0.0137052 -0.0769565 0.346393 
-1.33388e-18 -2.97695e-17 1 

-0.0293086 0.044044 0.0299916 
-0.0233133 -0.0447821 -0.0624585 
1.65419e-17 1.08942e-17 1 

-0.0114626 0.0318591 0.00418993 
-0.0012183 -0.0717204 -0.0341404 
4.08997e-18 -5.93046e-18 1 

-0.0295536 0.00664277 -0.0481548 
0.0399005 -0.084879 0.0215945 
1.51208e-18 5.24188e-18 1 

-0.0783401 0.00570021 0.0260956 
-0.0242721 -0.0322991 0.011181 
-2.58273e-18 7.89166e-18 1 

-0.0402546 0.0264369 -0.0890206 
-0.0227558 -0.0233448 -0.204193 
-7.15404e-18 -8.7138e-18 1 

-0.0705441 -0.00759518 0.0755756 
0.0365121 -0.0952236 0.109233 
-1.35567e-18 1.57636e-19 1 

-0.0829507 0.0290815 -0.0456704 
-0.0470531 -0.0607583 0.00754786 
-3.7836e-19 -9.41918e-18 1 

-0.0178787 0.0150688 0.102925 
-0.0153716 -0.0255928 0.15167 
-1.19117e-18 9.0441e-19 1 

-0.0508167 -0.0355136 -0.0198854 
0.00310659 -0.0472457 0.111456 
-3.87804e-19 -5.4376e-18 1 

0.0056178 -0.0151844 -0.926257 
-0.00453944 -0.096412 1.47776 
-2.22419e-18 -5.03264e-18 1 

-0.0212058 -0.00462303 -0.773545 
-0.00694141 -0.133223 -0.709286 
6.33397e-18 -1.89888e-17 1 

-0.0375524 -0.0359526 -0.223119 
0.041543 -0.0542166 0.0672154 
-1.97834e-17 -3.34859e-18 1 

-0.0805682 0.0609008 0.0603249 
-0.132246 -0.0627391 0.0398451 
-2.9762e-18 5.49623e-18 1 

-0.00444857 0.00877275 -0.0628513 
-0.0466123 -0.0419701 -0.0472782 
6.35309e-18 3.79289e-19 1 

-0.0252345 0.0301044 0.239304 
0.00371273 -0.0425246 -0.160768 
-7.37772e-18 1.90591e-17 1 

-0.0282788 -0.0454377 0.0293374 
0.0209873 -0.0240703 0.063621 
-1.09244e-18 -4.78595e-18 1 

-0.0564661 0.0545421 -0.153812 
0.0147121 0.00904958 0.0589411 
9.81689e-18 2.25875e-18 1 

-0.0267346 0.0265122 -0.0881688 
-0.0202655 -0.0419191 0.246661 
-1.64055e-18 9.51517e-18 1 

-0.0948104 0.00135496 0.0582915 
0.00017673 -0.0536665 0.0030902 
3.52526e-18 9.37569e-19 1 

-0.0343782 0.00896082 0.220398 
0.00521386 -0.0316083 0.412455 
2.71119e-18 -6.232e-18 1 

-0.013197 -0.0332745 -0.20854 
-0.0465112 -0.0664227 0.182875 
1.14078e-17 -1.13828e-17 1 

-0.0776256 0.0384144 -0.162629 
0.0535041 -0.0259525 -0.0693375 
7.35167e-18 3.69418e-19 1 

-0.0474345 -0.00952789 -0.0828862 
0.0595714 -0.0664857 -0.403808 
3.39939e-19 4.75439e-19 1 

-0.037224 -0.0138239 -0.0161544 
0.0164407 -0.0733017 0.0988176 
7.66767e-19 -2.19967e-18 1 

-0.00422156 0.0296014 0.16318 
-0.0691702 -0.028032 -0.249791 
3.90371e-19 -7.20017e-18 1 

-0.0328228 -0.0208801 0.0194921 
-0.00536682 -0.06294 -0.0838719 
5.31669e-18 1.2721e-17 1 

-0.00528508 -0.0386499 0.0201 
0.0300814 -0.056407 0.0900133 
-1.11002e-17 6.25366e-19 1 

-0.00309365 -0.0205253 -0.207958 
0.0695367 -0.0555119 -0.0971186 
1.95455e-17 4.35607e-18 1 

-0.00393402 0.0195859 1.86587 
-0.0119919 -0.0546045 0.304175 
-1.11727e-18 9.42902e-18 1 

0.00260398 -0.0150093 -0.0288188 
0.0205773 -0.0495191 0.0627402 
1.20527e-17 -1.17963e-17 1 

-0.0580394 -0.0226659 -0.106529 
-0.00646542 0.0124875 -0.0650529 
3.09215e-18 -3.99523e-18 1 

-0.0827882 0.00799286 0.00396479 
-0.00155507 -0.05871 0.00702997 
-1.63614e-18 1.39553e-18 1 

-0.02551 -0.0434375 -0.448461 
0.0471505 -0.128003 0.881255 
-1.07678e-17 8.75786e-18 1 

-0.0431099 0.00818476 -0.0860365 
0.00451241 -0.0821815 0.230716 
-2.37097e-17 -1.87563e-17 1 

0.102688 0.072941 0.0854698 
0.102468 -0.150453 -0.143704 
-4.73095e-18 8.35654e-18 1 

-0.0166234 -0.00613424 0.898437 
0.0285422 -0.052983 1.37311 
-1.99327e-18 7.79149e-18 1 

-0.0847908 0.081963 -0.0312127 
-0.0133467 -0.0542429 -0.0113514 
-4.37641e-18 -6.50439e-18 1 

-0.00415605 -0.0203896 0.409574 
-0.0136121 -0.074474 0.197062 
1.94425e-17 2.27536e-18 1 

-0.00494352 -0.0213833 -0.594229 
0.0361074 -0.0590398 0.436071 
-2.01019e-19 2.65094e-18 1 

-0.00705157 -0.0260566 0.328795 
-0.00625421 -0.110791 0.614128 
-2.92199e-18 -1.61098e-18 1 

-0.0911636 0.0278844 0.101066 
0.00633115 -0.00424942 -0.00226676 
8.06755e-18 -7.19538e-18 1 

-0.0451651 0.0133079 0.307733 
-0.00126968 -0.0540725 0.201107 
3.42633e-18 6.85266e-18 1 

-0.0147922 -0.0135087 0.696728 
-0.0246431 -0.0579108 1.84229 
-3.12983e-18 -1.16717e-18 1 

-0.0561152 0.00460405 -0.0718438 
0.00909599 0.0166746 0.468446 
2.90787e-19 -1.87519e-17 1 

-0.100712 0.0394105 -0.175214 
0.0298887 -0.0991003 0.382364 
6.03616e-18 4.75928e-18 1 

-0.0629915 0.0167618 -0.241243 
0.0040737 -0.0317076 -0.117824 
9.16256e-18 4.37188e-18 1 

-0.0462164 -0.0107969 -0.00478778 
-0.014567 -0.0938994 0.0143717 
2.94154e-19 4.90257e-20 1 

-0.0157589 0.00863033 0.194839 
-0.0118195 -0.0225929 0.0647917 
-1.16867e-17 -1.08256e-17 1 

-0.0484786 -0.0734405 1.13817 
0.0245119 -0.023804 0.192243 
1.24664e-19 -9.7739e-18 1 

-0.0285973 -0.0261787 -0.0165933 
0.0838507 -0.0895557 -0.0855311 
-5.86775e-18 1.1555e-18 1 

-0.1059 0.098239 -0.144198 
0.00839816 -0.0924537 0.215174 
5.04216e-18 2.50369e-18 1 

-0.00880914 0.055665 0.0537071 
-0.0445347 -0.0759151 0.0234412 
-1.56934e-18 -1.24406e-17 1 

-0.0277085 0.00496313 0.121054 
0.00766862 -0.027161 -0.119771 
-6.10455e-18 -5.47502e-18 1 

0.00766762 -0.054011 0.0786789 
0.002879 -0.120796 0.371288 
-2.44729e-18 -3.07747e-18 1 

-0.00982796 0.0114369 0.1523 
-0.020205 -0.1261 -0.27031 
1.95231e-18 2.90208e-19 1 

-0.00454152 0.00501926 -0.022323 
0.00546751 -0.0769408 -0.147276 
2.63493e-17 5.28085e-18 1 

-0.00853661 0.00489958 0.0978693 
0.00146495 -0.0555193 -0.0859109 
5.65362e-20 -4.69251e-18 1 

-0.0524862 0.0411506 -0.130248 
0.0826673 -0.0909979 -0.240873 
1.58779e-18 2.48272e-18 1 

-0.0343716 -0.00546766 0.494765 
-0.0219026 -0.0513785 0.233234 
6.39169e-18 -1.0393e-19 1 

-0.0412211 0.0325972 -0.0690852 
-0.0426165 -0.0463341 -0.117427 
-4.07547e-18 -7.28825e-18 1 

-0.0482133 0.0155885 0.183255 
0.00016882 -0.0680921 0.0789001 
-6.54807e-18 -7.0092e-18 1 

-0.0982452 0.00949121 0.150454 
0.00993498 -0.0054624 0.471289 
-2.72212e-18 -2.28524e-18 1 

-0.0341726 0.0150133 0.014451 
0.00648315 -0.0706535 -0.124439 
-9.23613e-20 4.77816e-18 1 

-0.0261161 0.00814056 -0.189879 
0.0367517 -0.0376035 -0.219498 
-4.32623e-18 1.59891e-17 1 

-0.0345903 0.039219 0.0256822 
-0.0302413 -0.102896 -0.0333869 
3.09199e-19 -3.45226e-18 1 

-0.00400194 0.0974496 0.179926 
-0.127536 -0.0545703 -0.249148 
-3.95952e-18 -3.39709e-18 1 

-0.0426743 -0.0356529 -0.0195232 
0.0398786 -0.142463 0.0369197 
-4.94489e-18 9.14091e-18 1 

-0.0265825 0.000631327 -0.0724593 
-0.0375517 -0.0727617 0.0413548 
-3.31306e-18 -1.30238e-18 1 

-0.018632 -0.0147059 0.0724983 
0.0114469 -0.0973523 -0.402983 
-1.65194e-18 -1.56934e-18 1 

-0.0888261 0.0245008 -0.0245652 
0.0242758 -0.0424414 -0.188847 
1.11508e-17 -6.32043e-18 1 

-0.0356154 0.0109239 0.000742329 
-0.0784857 -0.0766432 0.138071 
-3.94612e-18 6.76477e-19 1 

-0.0344649 0.00266809 -0.136083 
-0.030108 -0.088979 -0.202839 
-1.27056e-19 -2.74759e-18 1 

-0.0818137 -0.0573375 -0.180523 
0.0253239 -0.0312085 -0.0231271 
2.20228e-18 -1.0413e-18 1 

-0.0295791 0.0116231 -0.258429 
0.0549178 -0.0922797 0.296517 
1.19712e-17 8.41728e-18 1 

-0.0638927 0.0432378 -0.305886 
-0.0512793 -0.0375261 -0.0471428 
-2.74152e-18 2.76475e-18 1 

-0.0695652 -0.0256637 -0.0487067 
0.03817 -0.0302362 0.0158235 
5.63924e-18 1.34021e-17 1 

-0.0231376 -0.0379186 -0.117443 
-0.0158853 -0.0801875 -0.0429799 
-4.50203e-19 1.3084e-18 1 

-0.0705319 -0.00135669 -0.141182 
-0.0125528 -0.0658635 -0.0773973 
1.57802e-18 2.35094e-17 1 

-0.088367 -0.0352092 0.400276 
0.0144537 -0.0175655 -0.249644 
-1.49537e-18 1.37902e-20 1 

-0.0823953 0.0394783 -0.0212337 
-0.0284669 -0.0685342 -0.183583 
1.02095e-18 -2.5425e-17 1 

-0.0479143 0.00624341 0.128302 
-0.0108012 -0.0263597 -0.0116515 
-1.00054e-18 4.83594e-18 1 

-0.0247594 -0.0111024 -0.221871 
0.0338594 -0.107216 -0.224016 
-2.75721e-17 -5.36315e-18 1 

-0.0131972 0.0436063 -0.268604 
-0.00359059 0.0419134 -0.151545 
-4.91804e-18 -6.64255e-18 1 

-0.0176145 -0.0190433 -0.00571149 
-0.034535 -0.0978951 0.210915 
-8.01213e-19 -7.38896e-18 1 

-0.0614905 -0.00309199 0.0344946 
0.0395721 -0.0266572 -0.167399 
-4.48794e-18 -1.62883e-18 1 

-0.0179198 -0.0203257 0.0264208 
0.0102666 -0.0904608 -0.122824 
-4.79354e-18 -8.03807e-18 1 

-0.0169077 -0.0260692 -0.055194 
0.013447 -0.0469962 -0.0200199 
-5.8399e-18 1.19548e-17 1 

-0.0999682 -0.00646439 -0.0186339 
0.00803975 -0.0356212 0.153959 
-1.94244e-19 -2.44932e-18 1 

-0.0533793 0.00251794 0.381692 
0.0244259 -0.0599821 -0.301293 
-9.91674e-19 -1.15312e-17 1 

-0.0124217 -0.00479166 -0.0345748 
0.0314923 -0.0770453 -0.0852236 
-2.39948e-18 8.52565e-18 1 

-0.003541 -0.00150261 -0.309028 
0.016239 -0.0734448 -0.329839 
1.38038e-18 -4.84931e-18 1 

-0.0304321 -0.0104989 0.310519 
0.00487106 -0.0637407 0.246665 
8.96301e-19 -1.81594e-18 1 

-0.0364873 0.0406103 -0.0258888 
-0.00360456 -0.0110851 -0.0436872 
7.58678e-18 3.68802e-19 1 

-0.125478 0.0097199 0.00623677 
-0.0517584 -0.00531482 0.214515 
-1.08143e-17 -3.03461e-19 1 

-0.0335798 -0.00913872 -0.0807727 
-0.0367347 -0.0127659 -0.0321957 
-3.67488e-18 -6.6385e-18 1 

-0.02006 0.00492236 -0.0397282 
-0.0486885 -0.0542599 0.0400214 
-1.47153e-17 -6.59071e-18 1 

-0.0723035 -0.00205122 -0.0882286 
0.00677482 -0.0658274 -0.434887 
-8.02887e-18 7.34668e-19 1 

-0.00390204 0.0210468 0.243604 
0.016154 -0.0613017 0.0180637 