# vtk DataFile Version 3.0
Output file generated by Yade's KinematicLocalisationAnalyser
ASCII
DATASET UNSTRUCTURED_GRID

POINTS 13483 float
510.58 47.1618 0.493952
611.136 74.1036 -0.48664
112.273 6.11602 -0.422111
632.886 10.5473 0.561178
449.629 9.40283 0.586189
298.697 38.7342 -0.38616
147.364 7.04346 0.487309
495.563 12.1152 0.209436
446.334 37.0848 -0.150725
580.077 18.6532 -0.526465
199.711 8.88311 -0.0914719
244.574 6.40827 -0.244644
539.595 61.9585 0.151482
530.669 25.3291 -0.172185
128.657 18.25 0.495532
210.038 35.2208 0.391413
206.939 13.1119 -0.312033
274.087 10.4403 0.47921
323.862 36.7268 0.505197
464.403 10.9227 0.539398
388.403 51.355 0.109914
495.095 67.8489 0.361952
630.782 50.2202 -0.500998
579.185 70.1446 0.375243
419.084 19.3763 0.306214
228.637 46.7254 -0.123616
443.139 40.991 -0.473036
507.495 23.0993 -0.272801
40.9069 16.2126 -0.473084
580.777 56.1614 -0.420592
438.752 5.81437 0.565604
15.566 24.989 0.33133
624.175 77.257 0.259075
447.676 2.28256 0.631977
72.6678 46.4636 -0.104403
459.768 45.6422 -0.339588
469.68 21.0965 -0.520004
323.431 24.3549 0.171409
467.611 36.5073 -0.313337
333.716 37.5771 0.53499
229.636 14.7354 0.310659
410.192 58.1546 -0.043241
547.469 7.60327 0.222277
182.421 6.2364 0.368627
50.9428 7.4127 0.0848773
62.98 8.94231 -0.138281
561.791 7.23442 0.575502
21.7794 12.2612 -0.319002
508.992 83.8499 -0.357516
557.77 61.3713 0.341084
162.029 33.4476 0.319022
612.493 59.8675 -0.134016
32.1572 30.776 -0.114863
470.622 3.43001 -0.447202
133.675 7.42608 -0.502258
503.988 60.628 0.406704
450.233 41.6269 0.114733
165.498 0.974745 -0.289213
30.2095 2.36717 -0.346206
329.401 17.8528 0.243203
523.135 89.1451 0.126066
413.971 37.2141 -0.219281
372.299 1.06469 0.202966
565.239 16.287 -0.638381
25.2159 47.7738 0.23574
243.957 33.7477 -0.362716
578.073 12.8207 -0.328508
550.94 91.4195 0.354541
386.752 10.4329 -0.62842
495.639 5.50707 0.628343
593.611 48.6526 0.506133
122.826 7.83728 0.286768
447.802 38.7891 -0.140048
434.613 18.2045 -0.117998
280.25 17.4854 -0.342822
19.1671 14.1431 0.329326
633.154 71.6576 0.383899
317.083 42.541 -0.319856
559.891 53.8024 0.381431
560.78 11.8395 0.401178
623.923 22.854 0.286651
417.18 39.5982 0.173331
87.2546 41.7657 -0.284094
567.537 77.2516 -0.264815
531.491 69.869 -0.112791
631.587 61.6172 -0.10719
622.798 2.71778 -0.652561
278.468 31.899 0.416965
536.655 9.32689 0.17762
23.0089 6.08958 -0.643959
126.276 40.0796 0.190862
458.489 20.0568 0.361629
616.511 48.2852 0.50017
185.341 29.653 -0.242858
41.0107 37.4222 0.310179
446.932 1.05248 0.160095
224.977 8.85912 -0.458079
591.055 59.6807 -0.345087
609.18 47.4345 0.227025
341.465 23.1112 -0.243057
153.089 29.3897 0.478537
476.002 55.6405 -0.432522
356.837 18.216 -0.562159
394.255 45.6991 0.118158
355.343 6.67169 0.496644
481.939 12.962 -0.183561
636.207 15.5897 -0.367805
75.1025 41.7567 -0.424058
316.85 5.47983 -0.33476
490.842 10.6679 -0.473651
343.86 49.2298 0.51214
23.1276 27.4204 0.515369
28.4946 5.96563 -0.325101
492.249 41.5829 0.399206
451.037 35.9428 0.171853
25.2568 41.4865 0.412841
88.8835 34.0158 0.243644
307.64 17.6524 0.316767
513.385 27.4019 -0.163805
427.482 45.4433 0.334287
590.213 8.21172 -0.676918
584.315 6.5709 0.254264
369.558 42.8636 -0.113059
529.15 48.6225 -0.115516
228.43 17.5769 0.489402
313.341 3.86906 0.591505
97.4465 33.7472 -0.395831
109.612 25.7331 0.26091
472.5 59.3968 0.084859
291.858 19.0714 0.520613
577.379 47.505 -0.108647
556.159 90.8702 0.110177
435.14 30.0985 -0.452394
609.141 10.6071 0.49196
395.152 29.4365 0.255822
265.6 25.2465 -0.324273
558.187 77.1835 -0.298916
266.665 30.4994 0.418729
503.351 15.0746 -0.250962
318.362 39.3681 0.224365
452.456 18.6605 0.617522
350.64 34.9697 -0.0892597
398.917 19.2067 -0.130646
304.581 45.5839 0.438115
181.583 31.1303 -0.138166
615.596 74.5589 0.174502
633.976 19.115 -0.332883
5.85467 12.9453 0.43598
397.799 27.5366 -0.450856
34.7774 25.2723 -0.0865006
361.152 36.2789 0.516088
374.042 30.5784 -0.266334
69.5708 11.8079 -0.525577
48.063 34.5854 -0.50537
216.925 13.7933 0.468553
523.062 79.9568 0.382361
503.492 25.0399 -0.511568
71.214 21.5661 -0.475959
583.642 69.1236 0.438135
604.248 7.09158 -0.647856
545.827 82.9015 -0.451292
567.673 5.04331 0.610551
480.408 38.1231 0.425844
496.194 67.1813 -0.646421
459.977 27.0428 -0.375316
630.847 5.60855 0.349105
214.995 25.3722 -0.127127
122.022 37.5676 -0.222573
237.732 6.75674 -0.449379
88.8896 4.78527 0.28562
59.5179 10.8073 -0.276142
264.81 37.8791 -0.361423
16.5729 26.826 -0.345122
489.933 25.5451 0.471397
511.213 79.4232 -0.205677
423.908 25.6489 -0.34384
633.517 93.9134 0.341227
380.42 11.226 -0.204585
416.208 60.4771 0.375903
478.159 3.0632 -0.442564
20.2327 27.3327 -0.376876
506.123 5.86081 0.580073
484.212 5.67936 0.636724
198.11 11.1963 0.508279
396.515 17.7562 -0.237952
298.031 6.51577 0.391579
366.495 20.9856 -0.413451
608.816 82.5484 -0.103689
184.757 26.4152 0.484229
617.422 10.6598 -0.430724
606.33 77.7699 0.335438
362.223 12.4372 0.362189
575.455 4.09761 0.455471
511.145 40.2997 -0.391481
588.025 29.5221 -0.472511
410.835 65.3996 0.265193
448.531 20.7856 0.532654
420.558 51.1253 0.27453
413.405 10.4905 -0.274145
548.47 85.2184 0.258367
548.177 78.2841 0.292124
184.166 40.2843 -0.347469
622.389 24.4874 0.128266
496.99 68.4572 0.282433
11.3346 17.6312 0.182285
383.026 30.4999 0.377367
180.008 23.8655 0.446678
88.8896 42.7778 -0.217327
615.245 40.4695 0.448452
540.615 84.0463 -0.224648
307.868 29.1861 0.371282
475.922 12.0693 0.586221
77.6949 46.7552 -0.203209
238.385 26.7818 -0.463678
487.662 31.6333 0.357083
442.643 29.0672 0.449777
253.709 0.889858 -0.362551
484.727 52.0565 -0.554593
472.185 67.0964 -0.448122
439.349 46.6464 0.390205
456.573 2.87611 -0.503028
568.233 31.294 -0.421551
172.104 12.6329 0.181257
452.512 59.4149 -0.431449
483.296 61.0207 0.130866
68.4888 0.977087 0.278622
242.834 4.90201 0.191556
633.313 20.9592 0.282633
625.262 23.894 -0.595562
637.031 23.3689 -0.623382
290.755 8.98638 -0.245738
596.323 36.2193 0.418684
386.268 57.3109 -0.309601
416.621 0.923622 0.511915
537.777 72.0024 -0.525595
25.5677 34.8575 -0.520266
318.916 45.4066 0.595214
243.628 3.04355 0.39859
628.682 79.4746 -0.189463
580.958 92.4438 0.223454
276.283 11.951 0.290242
552.324 68.2148 -0.0834242
492.696 2.6368 0.341264
482.716 9.11004 0.594094
90.98 19.0195 -0.503096
291.19 0.999763 -0.249126
327.009 2.26602 -0.372584
13.466 7.88388 -0.623414
4.47159 32.4564 0.300386
154.977 18.9901 -0.324115
64.6611 42.8765 -0.222702
63.4867 29.7373 -0.325993
396.41 15.9162 -0.615578
353.391 38.6658 0.45425
610.143 60.4971 0.121209
18.798 4.18184 0.291641
66.169 7.07934 0.193586
518.587 56.3921 -0.155589
283.046 1.04845 0.478359
346.514 17.8722 -0.107235
227.465 4.87795 0.378281
544.86 52.845 -0.184527
418.168 8.95434 0.676204
597.85 35.8434 -0.459905
529.008 52.8475 0.344721
563.69 46.0869 0.0825239
393.738 33.0321 0.472813
97.8981 48.33 -0.311519
477.586 59.1324 0.0702346
590.799 18.4744 0.277161
229.929 32.8572 -0.252505
29.3871 18.773 0.179327
321.357 14.8535 0.478431
102.668 43.1414 0.468113
259.056 44.8553 -0.213426
399.021 2.08583 -0.360454
618.326 53.1156 0.380603
563.399 0.781382 0.592254
317.366 3.96421 0.57522
289.554 28.9016 0.146343
420.355 47.5109 0.212814
77.2243 8.24506 0.505738
190.166 46.2208 0.382734
611.406 53.4794 -0.416394
447.007 58.3722 -0.0743416
192.509 42.097 -0.308296
154.121 44.6598 0.226581
634.374 56.8873 0.419509
635.342 17.9576 -0.596028
530.935 5.49576 -0.705323
183.013 26.3627 -0.0877815
478.894 39.388 0.105294
482.208 38.4063 0.258127
384.351 7.49947 -0.14429
442.084 1.42477 0.428639
607.255 62.5072 0.478482
81.4998 33.3369 0.22774
549.078 50.1836 -0.607535
264.267 16.3886 -0.357386
8.86204 2.4124 0.313272
120.596 39.1653 -0.195226
63.8555 24.0107 0.465749
575.631 56.6245 0.334961
623.677 86.8117 0.180214
177.755 29.8802 -0.175707
629.041 18.6826 0.376187
42.7081 39.2305 -0.258177
87.7329 32.3899 0.15931
537.085 31.445 -0.48871
388.794 18.1822 -0.536177
468.026 21.6386 0.158168
230.466 30.9653 0.191254
539.066 13.7186 0.542772
637.531 14.5081 0.48812
27.8294 35.0731 -0.326454
261.382 7.58625 0.174582
214.852 15.801 -0.282971
1.07949 36.5902 0.15567
217.971 14.5505 -0.465024
204.503 11.1322 0.122674
206.602 26.6193 0.27125
127.79 29.4264 -0.124353
485.241 20.9721 -0.457194
160.144 14.7213 0.325323
623.929 75.2542 0.235849
167.374 3.92848 0.505948
45.2332 39.9562 -0.419073
615.825 89.1239 -0.426304
271.881 33.27 -0.397367
563.063 56.4352 0.473638
623.689 54.2074 -0.514468
288.986 9.94415 0.137536
584.919 47.8664 -0.332173
315.266 2.40129 -0.43233
390.082 29.064 0.475223
558.875 33.8187 -0.562648
100.729 12.4571 -0.442146
444.773 4.07427 0.571361
599.236 32.0212 0.212052
83.9507 7.78794 -0.319831
271.903 15.6229 0.174018
396.985 12.7097 0.289133
631.185 7.33678 0.605315
377.023 1.95497 -0.566059
169.642 40.2427 -0.355437
592.428 19.1485 -0.488349
123.822 38.5295 0.21716
254.571 32.7617 -0.394528
379.055 25.2053 -0.223126
505.673 16.7886 -0.494209
366.4 10.5468 -0.510504
418.711 32.4752 -0.458125
610.846 75.6023 -0.380794
44.2916 12.0788 0.136534
288.777 42.5743 -0.343702
363.524 30.6687 -0.431563
385.367 23.7151 -0.332863
467.763 78.671 -0.356943
600.593 58.6556 0.264062
553.483 79.4587 -0.339522
217.847 35.9809 0.401081
13.0944 35.3207 0.152346
546.571 79.4536 -0.146665
456.381 71.173 -0.438995
221.647 41.1806 -0.148431
565.297 71.0563 0.105973
144.666 9.52543 -0.199317
350.647 24.1657 0.266901
421.567 49.2011 -0.156311
390.139 20.7327 0.191573
607.69 74.0414 -0.364765
399.911 4.55753 0.657501
45.5302 27.6918 -0.322481
430.059 39.9198 0.390164
419.153 65.0152 -0.347123
629.867 73.4093 -0.233998
587.767 65.843 0.218933
480.901 23.686 -0.152592
620.151 69.0488 -0.477388
282.831 2.30759 -0.534698
365.666 34.5441 0.482061
28.2953 43.5641 -0.296213
583.099 54.4208 0.176151
520.781 31.6263 -0.58236
428.957 0.727792 0.521703
120.056 4.8002 -0.373014
409.106 62.4112 0.0945822
11.1808 0.882921 -0.321506
629.43 11.3271 -0.176056
356.484 43.709 -0.451759
[...]
POINT_DATA 13483
TENSORS Strain_matrix float
-2.68801 0.178898 4.5279 
-0.702184 0.719782 3.2874 
1.06279e-17 7.30438e-19 1 

-1.12442 1.38604 15.9655 
0.446905 0.934436 8.37503 
-9.16503e-18 8.44757e-18 1 

-0.176454 -0.138633 0.186073 
0.10621 -0.012346 0.433874 
1.60981e-17 1.03468e-17 1 

-1.65628 0.0629279 -2.64151 
-0.731332 0.635036 -2.6351 
-1.02273e-18 -1.01199e-17 1 

-2.13889 -0.538672 -2.60712 
0.519806 0.623585 0.880148 
1.7336e-17 -6.75211e-19 1 

-0.122531 0.0303589 -0.302249 
-0.0605775 -0.0179916 -0.0966224 
1.52961e-17 -7.99567e-18 1 

-0.134292 -0.0164756 0.123238 
-0.0169462 -0.066043 0.0555297 
-4.54998e-19 1.26675e-17 1 

-0.435132 0.0457658 0.36872 
0.173947 0.067671 -0.204967 
9.08955e-18 1.02489e-17 1 

-0.549033 0.222477 -2.69209 
-0.174287 0.416664 1.60121 
-7.57062e-18 1.16659e-17 1 

-0.152793 0.562773 3.6825 
-0.968844 0.262316 -1.00417 
1.62567e-18 7.02289e-18 1 

-0.123313 -0.0342676 0.0854204 
0.0706832 -0.0686591 -0.110559 
-5.79211e-18 5.71688e-18 1 

-0.158803 -0.0379924 0.130539 
-0.104697 -0.0853245 0.111214 
-2.35969e-18 6.48915e-18 1 

-1.56364 -0.340471 1.79837 
0.261762 0.601916 -0.721777 
-1.00403e-17 -7.45601e-18 1 

-0.283452 -1.10839 -1.28525 
0.746425 0.790694 -0.375817 
-5.24856e-18 2.4036e-17 1 

-0.199004 -0.0629685 -0.00465677 
0.116038 0.0324476 -0.452844 
-5.90895e-18 3.0468e-18 1 

-0.183679 -0.153578 1.31916 
0.0825716 0.0231694 0.0913892 
-1.39388e-19 -1.39388e-19 1 

-0.113369 -0.0473311 0.010201 
0.0251639 -0.103036 -0.036376 
-8.19569e-18 -9.7303e-18 1 

-0.303136 -0.042863 0.0345716 
0.170163 -0.0975553 -0.115462 
-3.07809e-18 6.09969e-18 1 

-0.36269 0.0600292 -4.88777 
0.015097 0.0811083 -4.68372 
-3.1446e-18 -3.38457e-18 1 

-0.282283 0.493192 0.103935 
-0.543804 0.167579 0.648391 
-6.84788e-18 5.61116e-18 1 

-0.0777777 -0.590045 -0.44276 
0.592339 0.221573 0.0184123 
3.51968e-18 2.20701e-18 1 

-1.16591 -0.32411 1.04366 
-0.128919 0.516824 0.787017 
3.41098e-18 -5.23848e-18 1 

-1.70529 -1.01582 -1.33985 
0.173996 0.875751 -1.30954 
-1.04944e-17 -4.85852e-19 1 

0.521207 1.01829 0.19277 
-1.08942 0.803359 -0.0377313 
9.38554e-18 -1.81051e-17 1 

-0.172664 -0.65907 0.820586 
0.349591 0.207361 -0.069924 
-6.94367e-18 7.16005e-18 1 

-0.146175 -0.0311939 0.36954 
0.0238553 0.073444 -0.23262 
-6.87957e-18 -8.59946e-19 1 

-0.669737 0.245993 1.79393 
0.113252 0.276207 3.89083 
-9.177e-18 1.19636e-17 1 

-0.338607 -0.736131 -0.193433 
0.445373 0.335921 0.570349 
1.46688e-17 -1.43771e-17 1 

-0.130088 -0.0574188 -0.0330843 
0.150673 -0.0493879 -0.87588 
4.85372e-18 6.92274e-19 1 

-5.98896 2.76032 -12.3179 
1.38515 -0.998731 -2.44022 
3.24864e-19 6.31165e-18 1 

-0.505009 0.0898195 0.541265 
0.197552 0.117227 0.693899 
-4.67972e-18 5.41379e-18 1 

-0.265606 0.00510003 -0.580339 
0.0916831 0.143867 0.833669 
-2.0563e-18 1.21817e-17 1 

0.387558 -1.00245 -1.50452 
0.651654 0.318219 2.20343 
-3.62694e-18 1.38832e-17 1 

-0.695959 -0.145556 0.970712 
-0.108275 0.439022 -1.14115 
-7.82887e-18 9.53079e-18 1 

-0.102025 -0.174532 0.0404033 
0.157176 -0.0731571 0.242166 
1.12317e-18 3.07221e-18 1 

-0.603974 1.26186 -1.2329 
-0.78277 0.757422 3.24701 
-6.91593e-18 3.76349e-18 1 

-0.947227 -0.479662 4.64067 
-0.0614019 0.344864 -1.44631 
-6.64212e-18 5.58706e-18 1 

-0.516256 0.598549 0.563173 
-0.205777 0.412833 -0.255439 
0 1.4043e-17 1 

-0.845777 -0.396963 -2.49401 
0.329297 0.392109 -0.503142 
2.62002e-17 2.3856e-17 1 

-0.159816 0.112082 1.33032 
0.0559659 0.0872221 -0.217284 
-1.02625e-18 -3.59188e-18 1 

-0.320202 -0.142471 0.0407382 
-0.0488579 -0.0187143 0.00941909 
7.82561e-18 1.04341e-17 1 

-0.124231 -0.0656081 0.0545035 
0.191318 0.0182012 -0.0938273 
-1.14348e-17 -2.39334e-18 1 

-1.06836 0.869445 -0.20776 
-1.39983 1.09832 0.19893 
-2.55791e-18 1.11572e-17 1 

-0.152205 0.0408899 0.476102 
-0.0544696 -0.0602281 1.09947 
-1.1934e-18 -5.67364e-18 1 

-0.192478 0.177627 0.184878 
-0.107462 0.0191297 0.160362 
-4.0661e-18 -3.05865e-18 1 

-0.158072 -0.043963 -0.0657323 
-0.0736081 -0.0294974 0.145485 
-3.04334e-19 8.06485e-18 1 

-0.664003 -0.650473 -3.55196 
0.266667 0.366421 4.63587 
-4.43632e-20 1.17119e-17 1 

-0.0560841 -0.0387506 -0.0282995 
0.0690473 -0.155497 0.0183696 
6.53353e-18 6.43952e-18 1 

-0.477631 0.654386 -19.1484 
0.424444 0.196116 -1.01797 
7.08811e-18 1.10214e-17 1 

-1.46363 -0.744197 9.82129 
-0.23702 0.275495 -1.69174 
1.89788e-17 4.06689e-18 1 

-0.162405 0.0173063 -0.178735 
-0.0690417 0.0501371 0.262531 
-5.78751e-18 -4.43529e-18 1 

-0.0538817 -0.430016 1.02704 
0.537243 0.154035 0.0864744 
9.04272e-18 1.24677e-17 1 

-0.168758 0.424285 0.831978 
-0.0620091 0.141273 0.403089 
-1.8208e-17 1.34488e-17 1 

-0.571729 0.270923 -0.548834 
-0.0224557 0.148366 0.530622 
1.55351e-17 -3.1765e-18 1 

-0.206516 0.0410344 0.0178738 
0.014285 -0.106463 -0.0324478 
3.96916e-19 5.06068e-18 1 

-0.758496 -0.355506 -9.76869 
0.621556 0.545121 -4.86538 
3.85412e-18 -9.08695e-18 1 

-1.28658 0.0682377 -5.09834 
0.482358 0.660641 1.48289 
-1.80272e-18 -5.84216e-18 1 

-0.13504 0.140271 0.442985 
0.00389642 -0.0377836 -0.144254 
2.01069e-18 2.84046e-17 1 

-0.0943004 0.0474872 -0.494984 
-0.0700984 -0.140849 -0.651244 
-1.58782e-17 2.29418e-17 1 

-0.353299 -0.198941 -0.659145 
0.139296 0.263278 0.0525083 
-6.44091e-18 -1.46683e-18 1 

-0.399419 -4.75933 -8.8651 
0.0417915 0.66101 -1.15149 
2.54287e-18 -1.26484e-17 1 

-0.0613788 -0.190086 -2.23328 
0.259054 0.112131 -0.156711 
-5.38346e-19 -2.48611e-18 1 

-0.148417 -0.264604 -0.149252 
-0.0458883 -0.0559498 -0.210873 
-2.18483e-18 1.98966e-17 1 

-0.656473 -0.76977 -4.40118 
0.531907 0.487509 3.00734 
-2.4305e-18 -9.28008e-18 1 

-0.154179 -0.0759479 0.174159 
0.0653505 0.0816986 0.378048 
-3.3458e-18 -2.05191e-18 1 

-0.272524 0.0664669 0.585824 
0.00092799 0.0298277 0.96125 
1.80872e-18 5.91811e-18 1 

-0.990932 0.439098 0.372651 
-1.37487 0.651848 -0.0190868 
8.95486e-18 3.536e-18 1 

-0.995678 1.8323 6.87277 
0.250507 -0.083587 -1.22685 
4.79222e-18 6.52366e-18 1 

-0.349932 0.0474808 0.139108 
-0.21046 0.0160289 -0.0100924 
-2.76829e-18 -1.50376e-18 1 

-0.708074 0.158208 0.147006 
0.083223 -0.0194281 -0.000381041 
1.15726e-17 9.7922e-18 1 

-1.11785 -1.92647 -7.24164 
0.0829775 0.517395 -0.672719 
1.15337e-17 -2.77992e-18 1 

-0.138428 0.0404849 0.0325345 
-0.0547861 -0.0485018 0.264408 
-2.16377e-18 -2.7114e-18 1 

-1.25515 -0.0963211 -5.18538 
-0.194886 0.671576 0.877524 
1.04198e-17 -8.63056e-18 1 

-0.607436 -1.36333 1.7413 
0.219748 0.551719 0.402681 
1.71924e-19 -3.07315e-18 1 

-0.206799 0.0412697 0.0620494 
0.0202928 0.0234607 -0.14578 
5.42295e-19 -9.46305e-18 1 

-0.180615 0.0113857 0.0271509 
-0.0563219 -0.0792855 0.0493134 
-1.00262e-17 5.40379e-18 1 

-5.53562 5.03645 7.27421 
-1.37136 1.68258 1.36287 
-9.36643e-19 -2.95403e-18 1 

-0.141765 0.00955517 -0.0578747 
0.0833257 -0.0300108 0.0292443 
-2.19657e-19 2.56267e-19 1 

-1.58793 -1.6897 -0.213262 
-0.629879 -0.258342 -1.15004 
3.48605e-18 -2.65604e-18 1 

-1.22496 -1.54369 0.401661 
0.942724 1.25111 1.69211 
-8.86559e-18 9.00323e-18 1 

-0.312375 0.836961 0.121609 
-0.827764 0.44504 0.123633 
-1.18088e-17 -3.87476e-18 1 

-0.100368 -0.101121 -0.184094 
0.131887 0.0105085 -0.622647 
2.16843e-17 1.31767e-17 1 

-0.0930888 -0.0426429 -0.192766 
0.0697829 -0.0213637 0.318005 
3.85224e-19 1.20383e-19 1 

-0.329814 0.8378 -0.947892 
-0.495899 0.402125 0.0113027 
8.62655e-18 -2.11637e-18 1 

0.268564 -0.861104 0.0426492 
0.762537 0.396169 -0.467367 
5.71072e-19 -1.90357e-18 1 

-0.331001 0.0785925 -0.249556 
-0.135257 0.205663 0.200672 
1.08121e-18 -7.97131e-18 1 

-1.76997 0.610105 4.13986 
-0.0425092 0.801908 1.76465 
-1.07527e-18 3.3154e-18 1 

-0.0541872 -0.119841 0.0559062 
0.198804 -0.0474993 -0.428746 
-3.25613e-18 6.27969e-18 1 

-0.747204 -0.467059 0.944114 
0.416286 0.353044 0.277207 
7.14907e-18 8.50159e-18 1 

-0.225229 -0.0169497 -7.58631 
-0.004029 -0.062482 -8.27786 
1.01615e-18 1.10004e-17 1 

-0.16344 -0.0355483 -0.0963113 
-0.115378 -0.0278478 -0.108555 
-6.94094e-18 1.47118e-18 1 

-0.601835 0.132979 -1.40777 
-0.0146173 0.218846 0.726329 
8.39574e-18 -6.28171e-18 1 

-0.358996 0.668103 7.2983 
-0.484638 0.263739 0.258485 
-6.06385e-18 8.36394e-19 1 

-0.125074 -0.0138244 -0.349327 
-0.125065 -0.00297231 -0.222617 
1.04816e-17 4.88341e-18 1 

-0.0746733 0.21156 0.361681 
-0.133694 0.020235 -0.371802 
-6.59819e-18 1.87989e-18 1 

-0.307537 0.63406 -0.695878 
-0.0919312 0.368975 -0.0710737 
-3.93654e-18 -2.3225e-17 1 

-0.221375 -0.00331927 -0.100087 
0.00650383 -0.0359424 -0.939198 
9.03196e-18 -1.38043e-18 1 

-0.201361 0.074457 -0.797179 
-0.22141 -0.0700605 -0.13512 
-2.29818e-18 1.71479e-17 1 

-1.72418 0.789676 0.763623 
0.359945 0.355247 -0.0607098 
5.11931e-18 9.6691e-18 1 

-0.234232 0.257492 0.107529 
-0.0979021 0.216927 -0.0814486 
-8.2634e-18 1.29488e-17 1 

-0.114679 -0.184725 -0.86552 
0.0566897 0.0943991 0.776368 
-8.96039e-18 2.80033e-18 1 

-0.468259 0.0374825 -24.5804 
-0.593073 0.394916 10.8404 
-8.55609e-18 -3.10232e-18 1 

-0.373016 0.0821088 -2.09182 
-0.00174823 0.0520546 2.30187 
7.63695e-18 2.33699e-18 1 

-2.57567 3.29999 -14.3041 
0.165814 0.135321 0.682896 
-4.07645e-18 -1.24248e-17 1 

-0.337389 -0.0395452 0.196811 
-0.152907 -0.0835162 -0.142328 
-3.47844e-18 1.12398e-17 1 

-0.515407 -0.527242 -0.0696016 
0.39758 0.212985 0.322458 
4.5076e-18 4.73298e-18 1 

-1.3949 0.270431 1.08409 
-1.0596 0.419988 0.528099 
-1.92437e-17 6.36841e-18 1 

-0.209957 -0.0242149 0.390442 
-0.0251286 0.0270981 0.927858 
-1.17849e-17 -5.33177e-18 1 

-0.345417 0.0086922 -0.01624 
0.114127 -0.098417 0.279096 
1.83488e-18 2.47709e-17 1 

-0.69233 0.162608 -1.54124 
-0.376471 0.0960079 -2.38615 
7.02643e-18 -2.08512e-17 1 

-0.245538 -0.281879 0.855808 
0.0683543 0.634211 10.0963 
8.20041e-19 -7.39883e-18 1 

-0.287289 0.0753883 3.1377 
0.0275112 0.146623 -2.78489 
-9.42355e-18 1.40866e-17 1 

-0.246433 0.232145 -0.238274 
-0.193487 0.0103288 -0.343315 
4.65598e-18 4.70301e-20 1 

-0.106856 0.206392 0.503504 
-0.22244 0.0433968 0.0718536 
3.2941e-18 -1.42245e-18 1 

-1.45012 0.288454 -3.83991 
0.400249 0.303008 1.19508 
-4.45924e-18 -1.62154e-18 1 

-0.132887 -0.00753016 -2.17318 
0.0516004 0.0159849 -2.33714 
2.12134e-18 1.13643e-17 1 

-0.29197 -0.270885 -0.237137 
-0.0311322 0.0330463 0.043506 
-7.4011e-18 2.68363e-18 1 

-0.257059 0.0761934 0.0965154 
-0.0605957 0.0441687 -0.108938 
-1.34244e-17 -7.75583e-19 1 

-1.55698 -2.43287 0.832887 
0.332643 0.634504 -0.773612 
7.539e-18 3.0156e-18 1 

-0.0859831 -0.38141 -0.11017 
0.330808 0.0285745 0.00548457 
-2.59319e-18 7.77956e-18 1 

-0.70492 -0.591506 34.9548 
0.398013 0.432393 0.145266 
-3.51369e-18 -3.9148e-18 1 

-0.391994 0.00747028 -0.110957 
-0.533949 -0.0910421 -0.331014 
9.9962e-18 2.85725e-17 1 

-0.137598 -0.161278 0.408796 
0.110333 0.0299447 -0.176269 
5.17649e-18 -4.1998e-18 1 

-0.344364 -0.534444 -1.63243 
0.876566 0.521317 0.405092 
1.9595e-17 -1.69026e-17 1 

-0.350106 0.193004 0.638745 
-0.0184735 0.140115 0.45216 
1.48287e-17 1.04561e-17 1 

-0.287636 0.0310745 -0.532434 
0.00501412 -0.0944846 1.29162 
-1.19245e-17 1.36218e-17 1 

-0.191153 0.127666 -0.23648 
-0.19572 0.00346644 0.0920086 
-2.29296e-18 5.01585e-18 1 

-0.369335 0.386435 -0.412758 
-0.137185 0.193653 0.411901 
1.07046e-17 1.67826e-18 1 

0.285329 0.710477 0.0995269 
-0.831917 0.280075 -0.0408931 
2.52638e-18 4.01515e-18 1 

-0.255022 0.143919 -1.30808 
0.0393698 0.0145192 2.01524 
-1.00793e-17 1.09363e-17 1 

-1.98599 0.812827 -1.43173 
0.242285 -0.212985 1.11973 
1.55981e-17 -7.10982e-18 1 

-0.0111506 0.103232 0.366525 
-0.0492169 -0.0174253 -0.0170706 
9.06079e-18 1.43871e-17 1 

-0.70099 0.22477 -8.31356 
0.158373 0.275658 2.32772 
-5.03308e-18 -4.67113e-18 1 

-2.19829 1.42317 0.506147 
-1.6519 1.49596 -0.486917 
1.36014e-17 -2.10821e-18 1 

-1.91857 1.33451 -2.12158 
-0.19235 0.428851 0.273788 
-1.45771e-18 1.81822e-18 1 

-0.0881843 -0.0511141 0.285313 
-0.102275 0.0276884 0.380203 
9.91567e-18 -2.66522e-18 1 

-1.09427 -0.0566763 -1.69678 
0.259331 0.466267 0.741945 
-6.86765e-18 -1.1027e-17 1 

-0.104374 -0.0336145 -0.0862547 
0.0634514 0.00868437 -0.311179 
9.45057e-18 -7.2574e-18 1 

-0.480268 -0.14682 -0.425067 
0.311791 0.0926178 0.119139 
3.98722e-18 -4.49362e-18 1 

-0.102442 -0.0806333 0.243052 
0.13738 -0.0632233 0.0779288 
-4.33845e-18 9.1873e-18 1 

-0.377258 0.227635 -0.00601652 
-0.277519 0.107389 1.46275 
1.07337e-17 1.99291e-17 1 

-0.103113 0.219943 -0.0269545 
-0.127362 0.0643342 -0.0402606 
-3.13974e-18 -1.09019e-18 1 

-0.154637 -0.679584 0.21667 
0.36444 0.354621 -0.327402 
-7.87413e-18 5.26177e-18 1 

-0.102487 -0.0799269 -0.891997 
0.031609 -0.016252 0.172958 
1.90414e-18 4.26966e-17 1 

-0.0923126 0.0465629 0.0221966 
-0.0741078 -0.0263296 -0.127983 
-5.41868e-19 4.63974e-18 1 

-0.0744087 -0.878903 0.488728 
0.451447 0.281767 -0.499328 
7.04413e-18 -3.97169e-18 1 

-0.516672 0.312547 0.699355 
-0.179143 0.0543977 -0.0760642 
1.04104e-17 4.01804e-18 1 

-0.161168 0.0374017 0.0204778 
-0.0980809 -0.0745548 -0.305199 
5.71221e-18 2.16432e-17 1 

-0.26079 0.0926121 -1.10086 
-0.111883 0.0970811 -1.64687 
1.43204e-18 -1.15397e-18 1 

-0.058782 -0.0151003 -0.147491 
-0.105598 -0.0298817 0.086133 
-3.28001e-18 -1.47832e-18 1 

-0.248598 0.241999 -6.61626 
0.0403374 0.0647587 0.536146 
3.39643e-18 8.44215e-19 1 

-0.435694 0.720674 -3.6834 
0.21266 0.186525 0.713968 
1.02204e-18 1.29574e-17 1 

-0.205937 -0.0301925 0.235198 
-0.0153453 0.0141521 0.0907053 
-1.18163e-17 -2.41606e-18 1 

-0.215665 0.124451 -0.152689 
-0.0758465 0.0210673 -0.0187052 
-9.80577e-18 4.52588e-18 1 

-0.145988 0.0861039 -0.0446922 
-0.0724941 -0.091847 0.731513 
2.43302e-18 9.77551e-19 1 

-0.579909 -0.444458 0.833798 
-0.487964 0.193061 0.393204 
-1.39147e-17 -9.32661e-18 1 

-1.52363 -0.472549 7.45019 
-0.152651 0.541924 -2.43878 
-3.00848e-17 -1.49542e-17 1 

-0.0926722 0.134975 2.90355 
-0.0542969 0.0168822 -1.18947 
-2.27771e-18 -9.06185e-19 1 

-5.3916 -0.489444 -32.229 
2.16377 1.43245 1.44198 
3.97223e-18 3.66315e-18 1 

-1.71932 -0.0618324 -6.38385 
0.170082 0.379375 3.68487 
2.0662e-17 -2.50958e-17 1 

-0.411186 0.429368 -46.874 
0.440975 0.211702 -4.84217 
-1.36437e-17 7.77905e-18 1 

-0.585282 -0.804489 -1.06717 
1.06905 0.481522 0.133938 
-2.16307e-17 5.59959e-18 1 

-0.433428 -1.47531 2.87284 
0.0117204 0.453738 0.0846249 
3.55319e-18 -1.59459e-17 1 

-0.470714 -3.08154 356.857 
0.0595672 0.686047 4.8088 
1.34667e-19 -5.04971e-18 1 

-1.20039 -1.13348 0.716138 
-0.0153146 0.304261 -0.0580311 
4.25916e-18 9.9919e-19 1 

-1.67514 -0.759042 0.103129 
0.208446 0.474703 -0.0854789 
-2.57062e-17 -4.2182e-18 1 

-0.0468405 0.00994775 -0.00946097 
0.0140598 -0.085445 0.117407 
7.56964e-18 3.66655e-18 1 

-0.137108 0.0153147 0.0738853 
-0.00919025 -0.0109776 -0.0422987 
9.45638e-18 1.02627e-18 1 

-0.131217 -0.0469213 0.0400764 
0.0302293 -0.0762433 0.23714 
-4.36714e-18 -1.09128e-17 1 

-0.268682 -0.16644 0.0224092 
0.046052 -0.0234785 -0.632685 
1.32125e-18 1.70755e-17 1 

-0.220322 -0.0167666 -0.643846 
-0.0539307 0.0511947 1.18573 
-1.93166e-18 5.02231e-18 1 

-0.122148 0.0414113 0.00869575 
0.00560388 0.0200804 -0.169059 
-4.25963e-18 -1.10057e-17 1 

-0.445258 -0.0628152 -3.20876 
0.0218803 0.280896 -0.0839259 
-5.03926e-18 -8.74871e-20 1 

-0.37224 -0.389725 3.02826 
-0.0226796 0.197667 3.66072 
-8.38997e-18 9.26233e-18 1 

0.0181574 -0.529241 -0.070021 
0.730148 0.222965 0.0891411 
-9.96591e-18 4.64166e-18 1 

-0.508761 -0.444651 6.50988 
0.0619367 0.356611 3.11442 
-3.02099e-18 1.20624e-17 1 

0.584513 -1.04248 1.03068 
0.943577 0.733054 -1.33765 
1.04493e-17 1.16104e-17 1 

-0.340365 0.311907 0.072746 
-0.082046 0.127331 0.0148611 
5.42599e-18 -9.6638e-18 1 

-0.247739 0.509903 -48.8237 
-0.230901 0.38557 -27.3287 
8.29275e-19 5.87499e-18 1 

-0.360086 -0.0480934 -0.10621 
0.124292 -0.127721 -0.395733 
-3.23516e-17 -6.93795e-18 1 

-0.241648 0.0443724 -2.86997 
0.12662 0.0733147 -0.368376 
1.55893e-19 -7.74593e-18 1 

-1.13705 0.595038 -0.178578 
-0.217842 0.377006 -0.790913 
2.064e-17 -6.69405e-18 1 

-1.1732 0.406399 -2.58956 
0.0484917 0.3167 -1.39435 
2.37126e-18 -7.55058e-18 1 

-0.136994 -0.0429174 0.880033 
0.0668327 -0.0426403 -0.794224 
1.0865e-18 5.44265e-18 1 

-0.488825 -0.596588 0.418542 
0.00679004 0.179101 -0.753064 
-1.74235e-19 -3.4847e-19 1 

-0.238416 -0.0380103 -0.473257 
-0.0174601 -0.0459972 0.248709 
-5.56323e-19 -2.52874e-18 1 

-0.282042 -0.072445 1.03646 
0.172176 0.0524668 0.309468 
-7.8619e-18 9.44064e-18 1 

-3.26316 3.09385 -13.5905 
-0.373558 0.687177 -1.9162 
-1.48346e-17 -9.38477e-19 1 

-0.170672 -0.0700831 -1.59175 
-0.0958318 0.0154284 5.90204 
6.87682e-18 2.63187e-18 1 

-1.94836 -0.0550721 2.29463 
0.482016 0.562538 0.190778 
-1.38016e-17 -3.43399e-18 1 

-3.32714 -0.139047 -24.6691 
-0.767651 0.130561 -4.98526 
-9.55038e-19 1.34624e-17 1 

-0.465128 -0.195229 -0.201184 
0.0586209 0.177573 0.082924 
-1.18797e-18 1.18927e-17 1 

-3.66995 -1.11582 -3.96929 
0.158734 0.716151 -0.454451 
1.26168e-17 -2.35046e-18 1 

-2.73213 -1.55757 1.32643 
-0.38049 0.515929 -1.12746 
-2.12687e-18 4.53731e-18 1 

-2.14598 0.553911 0.118732 
0.18707 0.430748 -2.14503 
-1.85494e-17 -1.14976e-18 1 

-0.0293917 -0.16191 -0.0293451 
0.183125 0.0292479 0.11612 
-2.6218e-19 -5.76796e-18 1 

-0.302462 0.378076 0.11718 
-0.343899 0.00731235 -0.373023 
1.28956e-17 -7.90932e-18 1 

-2.0379 3.82528 9.19342 
-0.358932 1.2616 2.7946 
-8.16791e-18 -7.24427e-18 1 

-0.593616 -0.00580645 0.141748 
-0.350075 0.134152 0.0356992 
4.0287e-18 1.32947e-17 1 

-0.197848 -0.367232 1.29923 
0.545641 0.31619 -1.34032 
-3.63653e-18 -2.18192e-18 1 

-0.245988 -0.262698 0.542113 
0.0440346 0.0732763 0.634199 
-1.27078e-17 -5.95676e-18 1 

-0.149363 0.0339916 0.0267091 
-0.0664802 -0.0075419 0.0974801 
5.6516e-18 -2.44046e-18 1 

-0.516638 0.880556 -0.436441 
-0.683926 0.526341 -0.727138 
6.44312e-19 1.49303e-17 1 

-0.599538 -0.471616 1.82039 
0.287251 0.666886 1.42189 
6.55351e-18 1.10149e-17 1 

-0.362904 0.0521979 -0.143395 
0.00617059 0.251165 -0.327563 
8.65475e-19 3.20226e-18 1 

-1.09155 0.720608 1.11135 
0.0503077 0.278414 0.126121 
7.91641e-18 -9.58065e-18 1 

-0.143343 -0.188984 0.645299 
0.115312 0.0737302 -0.134271 
-5.05949e-18 7.04396e-18 1 

-0.119133 -0.0138625 -0.15273 
0.0378811 0.023395 0.371661 
4.62129e-18 -4.53665e-18 1 

-1.75592 -0.470286 -6.78327 
0.13251 0.549503 2.19303 
7.15801e-19 2.72402e-18 1 

0.195339 -0.577906 0.210599 
0.489197 0.0985636 0.105397 
-1.10077e-17 7.40064e-21 1 

-0.106153 0.0131666 0.3059 
-0.0851189 0.0339083 -1.182 
-4.44563e-18 -1.02424e-17 1 

-0.840814 -0.0136652 -0.879456 
0.213447 0.202173 -2.23128 
-8.64305e-18 -2.71687e-18 1 

-0.130243 -0.0105653 -0.342968 
0.0535669 0.0468571 -0.247371 
1.59515e-18 2.61327e-17 1 

-0.236191 0.108143 -0.247187 
0.0291785 0.143936 2.33862 
-2.86595e-19 1.63661e-18 1 

-1.3701 -0.914298 5.73968 
-0.204987 0.366553 1.22769 
6.48266e-18 7.09114e-18 1 

-0.737803 0.100804 1.13498 
0.0295157 0.297412 -1.43666 
-1.07155e-18 -1.1236e-17 1 

-0.187799 0.155632 0.185336 
0.00964446 -0.0220354 -0.130896 
-3.04849e-18 -3.44635e-17 1 

-0.174338 0.34553 -10.0952 
-0.184525 0.0307132 0.972138 
-1.33539e-17 5.29616e-18 1 

-0.535584 0.721837 -28.4476 
-0.658285 0.572443 6.17984 
-7.38971e-18 3.09748e-19 1 

-0.0295186 -0.555913 0.0884746 
0.448951 0.118676 -0.347236 
8.26406e-18 -4.8375e-18 1 

-1.40609 -3.50898 5.41092 
0.228129 0.839268 -1.44576 
1.40886e-18 1.09293e-17 1 

-0.733819 0.433604 -0.290942 
0.264897 0.0516827 3.55001 
9.59918e-18 -9.92222e-18 1 

-0.127039 0.00104969 -0.0455672 
-0.0246946 -0.0570528 0.0255082 
-2.09932e-17 2.64784e-18 1 

0.0688958 -0.640007 -0.896452 
0.65777 0.215683 -1.87083 
-3.27773e-18 4.72114e-18 1 

-3.64802 -3.87944 -0.256892 
1.20992 1.55124 0.321618 
-2.56714e-18 9.95323e-18 1 

-0.0913379 -0.0855177 0.196105 
0.00837199 -0.0555115 0.0915606 
-3.69012e-18 -1.54062e-17 1 

-0.12233 -0.0261419 -0.0880461 
-0.0348518 -0.0578969 0.0438283 