# vtk DataFile Version 3.0
Output file generated by Yade's KinematicLocalisationAnalyser
ASCII
DATASET UNSTRUCTURED_GRID

POINTS 13483 float
602.345 35.9634 0.413886
730.442 64.2208 -0.486972
119.566 6.10287 -0.442257
754.073 7.65974 0.502617
498.545 7.72168 0.364686
315.415 35.6029 -0.454015
155.911 7.0167 0.460752
568.574 10.4944 0.164736
497.089 25.9992 0.135451
687.632 16.9597 -0.544241
210.502 8.94872 -0.094661
257.332 6.33722 -0.255676
643.579 44.7881 0.133011
624.331 18.3037 -0.13251
136.614 18.0126 0.467145
221.518 34.8108 0.361527
217.949 13.0224 -0.296555
289.637 9.55371 0.431007
341.763 33.8311 0.493956
522.684 8.62617 0.346328
412.886 36.9133 0.109981
583.573 46.0891 0.570443
752.072 43.0214 -0.463356
690.274 58.8516 -0.464367
459.75 17.3137 0.314583
241.397 45.2794 -0.129451
491.356 29.6395 -0.468024
586.21 20.6441 -0.226948
44.8479 14.9202 -0.475073
697.928 50.7059 -0.36014
482.731 5.11204 0.405127
16.7977 23.6128 0.345258
743.634 66.2232 0.253888
494.349 2.58533 0.461136
77.9729 45.2694 -0.100695
522.235 33.1623 -0.355537
528.581 16.5779 -0.42746
344.623 22.7018 -0.186924
534.599 27.2291 -0.319857
351.99 33.9089 0.467098
241.282 14.5092 0.368632
434.403 38.5778 0.0920283
649.235 8.0623 0.233265
192.77 6.22805 0.375924
55.4568 7.03508 0.0843761
68.6282 8.97852 -0.297871
664.157 7.6358 0.56172
23.119 11.9326 -0.267859
599.555 56.0487 0.367466
666.472 43.4377 0.331674
172.079 32.7148 0.31536
730.231 50.1334 -0.15172
35.0317 28.4324 -0.115101
532.762 3.01832 0.335482
141.611 7.3427 -0.491633
589.123 37.0597 0.428952
505.005 29.8094 0.134317
174.6 0.950137 -0.276936
32.4048 2.36942 -0.33507
350.23 17.9378 0.251182
611.668 60.3752 0.132852
461.951 33.8309 -0.206795
401.455 1.02884 0.200928
672.653 12.3685 -0.411907
27.0582 43.6806 0.236159
256.418 31.1974 -0.302812
686.674 11.3183 -0.25921
657.849 70.1329 0.348864
420.004 8.69143 -0.487425
569.447 3.82527 -0.410242
710.442 40.3739 0.433996
130.414 7.75015 0.285764
500.151 27.6138 -0.131696
479.408 15.7352 -0.085735
295.685 16.774 -0.356513
20.3627 13.847 0.287972
752.208 58.7926 0.334883
334.372 39.5851 -0.30985
663.901 35.2278 0.340375
663.639 12.259 0.406069
744.5 19.2617 -0.330676
465.249 36.0086 0.185235
92.6374 39.978 -0.293192
676.607 61.768 -0.279273
638.446 54.3929 -0.107331
754.757 52.1766 -0.114358
742.026 2.6097 -0.729684
292.786 30.4223 0.439887
618.991 6.44526 -0.124441
24.3216 5.42062 -0.574132
133.538 39.2987 0.163911
512.546 15.2812 0.208137
736.265 40.298 0.549912
195.867 28.9024 -0.239833
44.485 35.1378 0.336356
493.218 1.28685 0.138166
236.626 8.69415 -0.431504
708.708 52.0844 -0.337604
727.729 38.4004 0.269666
363.746 20.8713 -0.249853
163.299 27.615 0.446877
549.484 41.6808 -0.447198
383.008 15.5778 -0.51001
417.6 30.3423 -0.10793
380.967 4.49229 0.414834
548.541 10.5736 -0.118975
758.244 13.4277 -0.315356
80.5371 40.2079 -0.388358
337.859 4.97605 -0.210804
562.366 9.28293 -0.467286
363.364 44.2118 0.4419
25.5968 25.3549 0.464202
30.3419 5.84506 0.306789
568.032 34.3455 0.449126
507.284 26.8453 0.146797
26.515 37.297 0.352814
93.9494 32.2626 0.234808
327.549 16.1427 0.289387
598.878 21.0981 -0.103778
477.388 40.0089 0.30725
699.253 8.29654 -0.676394
693.462 5.8769 0.190821
391.052 37.6223 -0.100828
628.604 37.0882 0.112614
239.913 17.3177 0.537296
333.239 3.86527 0.460041
103.914 32.5837 -0.389956
116.625 25.0358 0.264047
545.067 42.6189 -0.0932822
308.866 18.5577 0.512754
693.631 40.5811 0.112309
662.454 70.875 -0.105741
484.14 22.7892 -0.398411
727.268 9.68619 0.34541
432.615 24.9419 -0.244853
280.332 24.1983 -0.302439
668.282 57.652 -0.273164
281.573 29.1661 0.390983
578.906 13.0904 -0.216158
335.523 36.3486 0.210342
506.981 11.7569 0.485532
371.091 31.8513 0.101467
435.51 17.3735 -0.0977271
321.537 42.5484 0.430348
192.056 30.3045 -0.131165
735.107 64.3705 0.162119
756.017 16.6676 -0.348539
5.94258 12.6224 0.42573
439.134 23.4276 -0.431018
38.7101 22.9545 -0.0823884
381.486 31.9083 0.394995
400.222 25.0448 -0.287629
75.1374 11.8435 -0.501557
52.0502 33.7737 -0.458241
228.255 13.4386 0.467008
612.552 52.2226 0.403877
581.219 21.5515 -0.476858
75.8789 21.008 -0.509084
693.801 58.3626 0.515123
716.152 4.12458 -0.567473
655.606 60.9394 -0.542586
671.045 3.83757 0.543304
551.889 29.225 0.396322
584.456 46.775 -0.629852
516.546 19.0504 -0.392134
751.807 3.31525 0.244978
226.27 25.191 -0.12078
129.174 36.6044 -0.205539
250.237 6.67715 -0.417303
95.0691 4.67907 0.283569
64.9118 10.145 -0.228366
279.327 36.1867 -0.333863
17.1646 25.2333 -0.384094
559.132 19.8309 0.467913
601.005 50.5801 -0.199933
469.231 22.7804 -0.353983
756.674 80.3939 -0.194262
413.149 8.66841 -0.122059
440.793 39.3253 0.38127
541.152 3.30088 -0.221915
22.2764 24.7756 -0.398674
581.435 5.47815 0.519912
550.997 4.33858 -0.290696
208.862 11.3341 0.487079
431.39 16.2899 -0.19764
316.044 6.35122 0.359172
394.169 19.0107 -0.341521
722.834 70.9347 0.0704412
195.084 25.5398 0.463656
736.137 9.9508 -0.399669
720.615 67.4031 0.314763
389.478 10.3689 -0.151677
684.334 3.69835 0.534865
606.109 30.1933 -0.412755
701.392 24.6708 -0.486651
435.952 45.6577 -0.307106
501.514 12.6836 0.43218
470.326 46.0466 -0.225667
452.788 8.75376 -0.163757
657.779 63.2257 0.2981
657.974 56.4227 0.360613
194.531 39.434 -0.344448
742.374 19.5564 -0.156328
585.616 47.6038 0.273189
11.9902 16.6571 0.180762
415.579 25.1699 0.345936
189.757 23.6002 0.397042
94.2379 40.8823 0.203392
732.226 32.2403 0.49293
650.922 63.0886 -0.227507
324.373 26.112 0.348995
538.27 10.15 0.317768
83.0713 45.4925 -0.178579
250.974 25.9105 -0.473149
561.007 25.4344 0.400067
493.96 20.4279 0.426822
266.833 0.888465 -0.343802
558.341 42.3011 -0.516363
538.729 45.548 -0.464918
488.694 35.6635 0.422668
505.309 1.69487 -0.668873
676.67 26.9424 -0.390121
181.763 12.2093 0.168378
507.487 39.5902 -0.481346
569.091 42.761 0.203148
73.9682 0.95642 0.269153
255.546 4.7696 0.177748
755.402 18.6117 0.261875
744.702 21.2472 -0.456305
759.926 20.0166 -0.631457
308.565 8.59856 -0.239681
709.121 30.3408 0.552942
412.127 43.1869 0.319511
457.348 0.826903 -0.400649
645.023 53.4236 -0.525775
27.3062 31.1425 -0.303644
336.371 42.3641 0.581681
256.402 2.90008 0.340927
749.483 67.1509 -0.231688
690.83 77.1761 0.230896
292.158 10.9295 0.261816
662.559 48.9392 0.0802426
564.258 2.5499 0.27926
548.673 6.28054 0.43512
97.9312 18.7709 -0.518715
308.481 1.03642 -0.228932
349.204 2.26833 -0.361269
14.0339 7.53562 -0.466252
4.49328 32.4478 0.258255
164.081 18.6901 -0.348029
69.0975 42.2491 0.207559
67.9538 29.2655 -0.325949
431.552 14.4464 -0.475673
374.108 35.549 0.469354
728.099 50.89 0.121786
19.7066 4.09393 0.279771
71.6222 6.97121 0.146399
620.826 48.575 -0.162279
299.819 0.930756 0.38216
372.02 16.091 -0.106592
239.422 4.60896 0.401877
648.317 38.0474 -0.193109
459.801 8.74264 0.463377
710.43 30.77 -0.472254
627.705 40.3885 0.322274
664.59 33.3477 0.0859193
428.552 27.7233 0.468366
103.67 45.9445 -0.322201
549.188 45.7276 0.071513
699.77 18.1651 0.32127
242.163 31.4175 -0.260172
32.3841 17.167 0.194211
342.584 13.8939 0.507092
109.08 41.6046 0.465279
272.351 42.5778 -0.216053
433.84 1.66055 -0.370689
738.416 44.1421 0.447471
665.051 0.78988 0.594386
338.371 3.433 0.567985
304.991 26.9166 0.13713
469.578 42.7815 0.22157
82.8989 8.15688 0.470648
200.867 45.3909 0.378277
730.401 44.458 -0.359367
502.787 42.0126 -0.0857494
203.226 41.3363 -0.280728
163.298 42.9692 0.0772182
757.349 48 0.437228
757.524 15.3114 -0.537879
610.998 3.94707 -0.631879
193.352 25.3466 -0.104493
554.098 29.9077 0.098807
556.083 29.2956 0.271929
417.636 5.69144 -0.140295
488.137 1.29269 0.303396
725.389 53.0696 0.473376
86.4336 31.962 0.223403
651.211 33.6425 -0.465968
279.575 15.7603 -0.344722
9.56736 2.38809 0.331085
127.698 38.2939 -0.193676
68.3371 23.3163 0.487314
689.913 45.6888 0.394994
745.753 74.8246 0.186176
188.274 28.8834 -0.17931
751.023 16.6927 0.42438
46.0022 37.292 -0.261368
92.7097 30.6972 0.154569
632.412 20.7562 -0.480442
422.667 17.5189 -0.57188
526.257 17.1233 -0.0953236
242.59 29.5096 0.197057
625.32 5.42179 0.566463
759.51 12.1071 0.364946
30.2646 32.1613 -0.277764
275.302 7.79049 0.184059
226.138 15.5219 -0.260223
1.08108 37.0737 0.145407
229.284 14.1587 -0.478958
215.432 11.0733 0.124212
217.907 26.4104 0.271042
135.468 28.8577 -0.137371
554.136 15.4537 -0.363052
169.484 14.1593 0.378089
743.158 64.2881 0.223734
176.642 3.83323 0.510095
48.1818 38.4671 -0.447588
731.427 75.1992 -0.426954
286.514 32.4775 -0.390515
665.927 39.9864 0.429532
745.373 46.1873 -0.480626
306.607 9.24732 -0.104055
700.946 42.7038 -0.356016
335.311 2.50089 -0.423515
425.037 24.4694 0.408653
657.805 21.9443 0.433819
107.077 11.8967 -0.429652
490.137 3.85851 -0.625208
712.643 26.6225 0.196505
89.7083 7.81487 -0.292746
287.352 14.7905 0.192516
432.472 11.9576 -0.258365
751.672 5.03486 0.616275
406.413 2.01843 -0.525566
179.638 39.431 -0.321137
703.161 16.0575 -0.360643
131.006 37.5853 0.197221
268.084 31.5883 -0.416044
409.194 21.4685 0.230016
581.481 14.6917 -0.382918
395.308 9.89025 -0.496122
464.51 28.9547 -0.422963
730.501 65.6507 -0.462127
48.3295 10.8946 0.114122
305.178 39.5387 -0.305866
387.469 26.3335 -0.403171
418.885 21.1463 -0.258275
527.825 48.768 -0.356399
718.352 49.7769 0.243969
663.029 57.7717 0.35301
229.903 35.0856 0.373907
13.7107 32.6106 0.152208
656.258 57.304 -0.12818
518.157 43.9214 0.3411
233.856 40.2227 -0.115115
676.258 54.7881 0.111312
153.189 9.53967 -0.198601
374.31 21.6428 0.28312
471.21 44.0733 0.114688
423.066 19.1705 0.211889
726.938 64.8116 -0.319147
435.187 3.89636 0.549699
50.3834 26.0327 -0.31698
477.763 33.5343 0.270108
442.338 44.5495 0.370921
748.65 61.1273 -0.259246
702.372 56.2097 0.239028
549.238 18.0346 -0.159711
738.812 58.3139 -0.499066
299.423 2.20416 -0.492154
386.591 30.6437 0.596068
29.6097 39.2505 -0.308763
699.977 48.0257 -0.164847
613.302 23.2205 -0.452393
471.265 0.77391 0.454435
127.638 4.72692 -0.335259
433.672 43.1722 0.104481
11.9893 0.899305 -0.317687
750.826 9.49768 0.104441
378.32 39.8865 -0.42281
615.984 7.94788 0.46761
[...]
POINT_DATA 13483
TENSORS Strain_matrix float
-0.921678 -0.0456686 -2.69566 
-0.173162 0.371104 0.527311 
-9.83935e-18 3.87122e-18 1 

-0.719121 0.848718 -18.1983 
0.396769 0.669022 4.74235 
7.1403e-18 2.09825e-18 1 

-0.139672 -0.111884 0.121921 
0.0782763 -0.0345945 0.640744 
1.76457e-17 -5.89843e-18 1 

-1.49277 0.326936 -0.0864448 
-0.352741 0.482264 -0.626356 
6.68851e-18 5.98373e-18 1 

-0.330101 -0.0513793 0.0889917 
-0.0626711 0.00464335 -0.121834 
-5.55212e-20 -1.54071e-18 1 

-0.090033 -0.0129496 0.413032 
-0.00263323 -0.0311198 -0.225927 
1.38015e-17 1.78196e-18 1 

-0.113476 -0.00939493 0.575451 
-0.00599789 -0.0564776 -0.385148 
1.79603e-18 -2.45961e-18 1 

-0.107881 -0.149539 -0.137408 
0.122528 -0.0235684 -0.0746643 
1.8421e-18 2.21052e-18 1 

-0.197427 -0.0782585 0.28413 
0.0906525 0.240008 0.545774 
-3.97773e-18 2.70983e-17 1 

-0.143453 0.610802 -0.60911 
-0.550477 0.0418561 -0.142439 
-1.12388e-17 -9.63194e-18 1 

-0.0959953 -0.0111865 0.0350908 
0.0378056 -0.070287 -0.0465021 
1.65455e-17 -3.16943e-18 1 

-0.106292 -0.052864 0.198736 
-0.0695211 -0.0884998 0.0672429 
-1.13974e-17 6.004e-18 1 

-0.601378 0.456654 -0.420303 
0.0994709 0.270219 -0.722863 
-4.59895e-18 1.15343e-17 1 

-0.453128 -0.355605 0.358035 
0.547256 0.311874 -0.547321 
-6.64583e-18 -2.13782e-18 1 

-0.152299 -0.0819207 0.51613 
0.0941945 0.0369341 -0.718619 
-7.48e-18 -1.60343e-17 1 

-0.111713 -0.0776298 0.702939 
0.0258677 0.0172064 0.24073 
1.01691e-17 8.75268e-18 1 

-0.0889056 -0.0220448 0.0151656 
0.0103657 -0.107425 -0.022326 
1.13202e-19 6.10099e-18 1 

-0.17863 -0.0228668 0.0527559 
7.73155e-05 -0.084204 -0.0373556 
-1.67152e-17 3.17628e-18 1 

-0.180102 0.0257905 0.149827 
-0.0482375 0.0161789 -0.808678 
-8.04677e-18 2.71457e-18 1 

-0.132755 0.0720369 0.22308 
-0.177505 -0.0613923 0.512221 
-1.08101e-17 -2.23223e-17 1 

-0.201201 -0.217177 -0.574546 
0.217506 0.0434437 0.241759 
-4.98275e-18 -7.4659e-18 1 

-0.61857 -0.0863208 1.84165 
-0.0895583 0.447976 5.42054 
-1.27746e-17 -1.62933e-17 1 

-1.2443 -0.543946 1.83708 
0.187774 0.707601 4.14076 
7.51454e-18 -9.73668e-18 1 

-0.331346 0.447054 12.4207 
-0.560679 0.504569 -17.8785 
-1.15948e-19 -9.1193e-18 1 

-0.0857351 -0.135488 0.0578259 
0.0770862 -0.0204217 -0.0224831 
1.70647e-18 1.51571e-17 1 

-0.0795811 0.0103792 0.393721 
-0.0316772 0.0195022 -0.0565864 
-1.17754e-18 -3.21148e-18 1 

-0.231701 0.000881051 1.12305 
-0.00645267 0.0821172 -4.24628 
8.19211e-20 -1.78822e-18 1 

-0.314938 0.093764 0.850191 
0.108414 0.0547121 0.787682 
4.81135e-18 -1.28572e-17 1 

-0.126981 -0.0270723 -0.125502 
0.117924 -0.0370503 0.441566 
-1.0636e-18 -1.22314e-17 1 

-6.67748 -0.33985 -11.8495 
2.42526 -0.521699 -4.63625 
1.40914e-17 3.1206e-18 1 

-0.253241 -0.0329714 -0.147645 
0.147762 -0.041871 0.301417 
1.33721e-17 -1.01726e-17 1 

-0.0636704 -0.0499395 -0.39831 
-0.0294026 -0.0232915 -0.0961141 
-8.81537e-18 -3.04596e-19 1 

0.281307 -0.961877 -1.71045 
0.468533 0.00781081 0.296065 
6.0128e-18 2.73188e-18 1 

-0.182001 0.0302797 0.0432592 
-0.0646696 0.00955704 -0.128231 
-4.72583e-19 8.97907e-18 1 

-0.0722927 -0.0654666 0.103518 
-0.00302418 -0.114244 0.284342 
4.51394e-18 -1.09798e-17 1 

-0.370666 -0.0811542 -0.855732 
-0.168436 0.165517 1.1822 
3.94736e-19 9.2879e-18 1 

-0.179435 0.143097 -1.61283 
-0.0571939 0.0564344 -1.73411 
8.65891e-18 -4.5086e-18 1 

-0.367369 0.129705 -0.662993 
-0.212273 0.0570286 -0.783866 
6.22252e-18 -2.44261e-18 1 

-0.275187 0.200123 -2.00935 
0.210391 0.0727771 0.109057 
3.76567e-18 -5.80541e-18 1 

-0.1148 -0.0244198 2.31745 
-0.0252693 0.00344521 2.5448 
1.01665e-17 -6.31145e-18 1 

-0.182713 -0.0287726 0.0698218 
-0.117969 -0.068335 -0.0507354 
3.38439e-18 -6.35605e-18 1 

-0.0808231 -0.0280382 -0.224421 
-0.0354519 -0.0204274 0.0492246 
1.16237e-17 -4.03994e-18 1 

-1.0093 0.29457 -1.27368 
-0.411593 0.402444 -0.212254 
2.67519e-17 4.99e-18 1 

-0.0678285 -0.0217461 0.626794 
0.0117862 -0.0833088 -0.161741 
1.91609e-18 1.82628e-18 1 

-0.126226 0.0433464 0.105787 
-0.0309183 -0.0418179 0.181731 
-1.77153e-18 1.02182e-17 1 

-0.101403 -0.0126418 0.206907 
0.00911439 -0.0560727 0.0164965 
2.75912e-18 5.86728e-18 1 

-0.580256 -0.358726 -1.03134 
0.198444 0.214686 0.556007 
9.81356e-18 -7.91416e-19 1 

-0.0730841 -0.0729362 -0.0281329 
0.0114807 -0.0952438 -0.0183175 
1.11056e-17 -3.55797e-18 1 

-0.0247462 -0.480349 -0.39896 
0.505485 0.132226 -0.239634 
-2.39506e-18 3.94187e-18 1 

-0.929831 0.525009 -4.1813 
-0.1495 0.648147 -3.74604 
-2.59661e-18 1.89923e-18 1 

-0.136141 -0.0394734 -0.00702038 
-0.0621646 0.0207003 0.295259 
-1.43664e-17 9.99939e-18 1 

-0.0457747 -0.337193 0.0854954 
0.468519 0.069534 0.103563 
3.11722e-19 1.52397e-18 1 

-0.143031 0.0621656 0.0190474 
-0.0305132 0.0556863 -0.0567632 
2.24517e-18 -2.27551e-18 1 

-0.170278 0.0660606 0.114608 
-0.0259241 -0.0407343 -0.0992264 
-4.85528e-18 -5.30035e-18 1 

-0.12452 0.0429556 0.613413 
-0.0308543 -0.073786 0.309273 
-6.18141e-18 -9.78723e-19 1 

-0.0194903 -0.486986 -0.863626 
0.448808 0.0942016 1.28728 
-1.4149e-18 6.37993e-18 1 

-0.0313981 0.00261716 -0.00673164 
0.00655293 0.0141468 -0.288059 
-1.04179e-17 -6.20921e-18 1 

-0.0947385 0.112484 0.00861218 
-0.00622038 -0.0503967 0.0237517 
-2.62604e-19 -4.93657e-17 1 

-0.0547508 0.0218926 -0.0132518 
-0.0384169 -0.129384 -0.15067 
5.03125e-18 6.69336e-18 1 

-0.101699 -0.00668675 -0.162565 
1.89649e-05 -0.00683254 -0.180047 
-2.55178e-17 4.22511e-18 1 

-0.380884 -0.410826 0.361014 
0.0336133 0.78234 -0.581491 
1.9601e-18 5.35075e-18 1 

-0.0981896 -0.125694 -0.573186 
0.197971 -0.00276007 -0.14789 
-1.72791e-17 -8.87018e-19 1 

-0.114586 -0.0862535 -0.265482 
-0.0120178 -0.0527113 -0.139089 
1.0061e-17 3.30282e-17 1 

-0.528816 -0.45578 1.19952 
0.320505 0.323461 0.512666 
-4.31983e-18 -7.42526e-18 1 

-0.231112 -0.0151304 0.191801 
-0.0171406 0.104952 0.463053 
5.77089e-18 -5.51554e-18 1 

-0.169101 0.109629 -0.19589 
-0.0898553 -0.00426218 0.0838912 
-6.18212e-18 1.25461e-17 1 

-0.734619 0.664618 -0.0980673 
-1.00938 0.543597 0.200591 
-2.1964e-18 7.84429e-19 1 

-0.0622807 -0.561219 3.20176 
0.630213 0.19875 -0.976967 
1.4198e-17 -1.8358e-17 1 

-0.138993 0.024349 0.217448 
-0.0657693 -0.0697694 0.4284 
9.31858e-18 -9.67787e-18 1 

-0.308374 0.15975 0.0134014 
-0.214471 -0.0195885 -0.373005 
-2.74303e-18 1.28008e-17 1 

-1.027 -1.06447 -0.836546 
0.261588 0.52097 -0.0468931 
-7.91195e-18 1.19981e-17 1 

-0.106035 0.0406848 -0.022148 
-0.0494992 -0.0590067 0.297834 
-5.05514e-18 -7.7715e-18 1 

-0.092603 0.0166466 0.801328 
-0.0772254 0.138271 0.831739 
-2.65679e-18 8.08748e-18 1 

-0.239731 -0.142887 0.448044 
0.0587835 0.0881398 0.0798918 
2.92228e-18 3.74756e-18 1 

-0.114911 0.00187047 -0.409443 
0.0447671 -0.0496291 0.161309 
8.44853e-18 5.29689e-18 1 

-0.10238 -0.0564349 0.0578253 
0.0156179 -0.0907859 0.044362 
5.62944e-18 -9.28568e-18 1 

-3.39778 5.94095 -3.45075 
-0.656364 1.67874 -1.54372 
2.86697e-18 -3.61784e-18 1 

-0.116481 0.0490412 -0.146154 
0.0399713 -0.0297016 0.0149182 
-8.34361e-18 -5.99223e-18 1 

-1.24255 -0.813733 -0.918999 
-0.554459 0.477363 -2.63321 
2.67106e-18 -7.01844e-18 1 

-1.21813 -0.745699 -2.63629 
0.450475 0.464449 0.746837 
8.00745e-18 9.85469e-18 1 

-0.517047 0.292199 -0.0130048 
-0.455815 0.14788 -0.0452997 
9.77331e-18 7.52491e-18 1 

-0.0569981 -0.0567579 0.061604 
0.0792768 -0.0168876 0.181859 
5.16643e-18 6.7698e-18 1 

-0.0876338 -0.00957949 -0.119963 
0.0203093 -0.0418852 0.0722346 
3.96731e-18 -2.54821e-18 1 

-0.367639 0.0548654 1.59798 
-0.190344 0.165396 0.79866 
-4.54569e-19 5.62966e-18 1 

-0.0797963 -0.508247 0.139825 
0.372945 0.129323 -0.280012 
9.027e-19 -7.89862e-18 1 

-0.188441 0.148168 0.423269 
-0.15387 0.0348864 0.16957 
4.03625e-18 -1.40033e-18 1 

-1.13644 0.229454 34.8327 
0.0709117 0.380287 -12.5881 
1.29529e-18 -1.37968e-17 1 

-0.0846298 -0.0146545 0.0228618 
0.0715956 -0.0702551 -0.387428 
3.86444e-18 1.31742e-17 1 

-0.310671 0.0480529 -0.321763 
0.104893 0.0376393 -0.0483923 
5.47676e-18 -9.49694e-18 1 

-0.126914 0.0124794 -0.0652726 
-0.00479343 -0.0139069 -4.21738 
-4.71983e-18 -4.52848e-18 1 

-0.13883 -0.0735032 -0.110691 
-0.0682642 -0.030267 -0.00786303 
-2.46434e-17 3.15435e-18 1 

-0.219084 0.00496023 0.166473 
0.122076 -0.00164738 0.0733951 
-5.2609e-18 -9.30774e-18 1 

-1.01271 0.899411 -35.4147 
-0.0234007 0.335998 -8.60477 
2.8653e-18 -5.65198e-18 1 

-0.120488 -0.0271307 -0.274699 
-0.0881833 -0.00776214 -0.223457 
-4.9369e-18 6.07388e-18 1 

-0.106704 0.0861085 0.32854 
0.0260125 0.00707644 0.333184 
-1.33918e-17 2.90464e-18 1 

-0.166916 0.200903 -0.394347 
-0.00953762 -0.0794174 0.239909 
-2.97442e-18 1.76459e-17 1 

-0.156517 0.0202796 -0.0900516 
0.00205211 -0.0438742 -0.616294 
-4.56311e-18 -9.28952e-18 1 

-0.158942 0.18804 -0.649044 
-0.32341 0.0016661 -0.541475 
5.38088e-19 -7.01757e-18 1 

-1.66383 0.751021 -1.19944 
0.530932 0.390398 0.271606 
-2.27402e-18 -5.09286e-19 1 

-0.0430323 -0.045991 -0.237486 
0.028278 -0.0587414 -0.0332613 
1.54599e-18 9.68727e-18 1 

-0.105279 0.0113984 1.75379 
0.0416974 0.0214695 1.02596 
-5.60832e-18 2.17377e-20 1 

-0.239369 0.125931 -0.497149 
-0.15986 0.0523534 4.04871 
5.49858e-18 2.07854e-18 1 

-0.132532 -0.0248468 -1.31581 
0.0579508 -0.0496467 2.38956 
-7.36245e-18 -1.32776e-17 1 

-0.113531 -0.128237 0.434416 
0.187441 -0.00809119 0.338852 
-1.2296e-17 3.8226e-19 1 

-0.123154 -0.0186317 0.195566 
0.00597538 -0.0930582 0.321799 
5.44021e-18 -1.15604e-17 1 

-0.143824 -0.0254766 0.0795752 
-0.0136539 -0.0791419 0.0126153 
-4.65898e-18 6.1661e-18 1 

-1.16059 0.20678 -0.079558 
-0.858284 0.462307 0.58593 
-1.91268e-17 7.05216e-19 1 

-0.116077 -0.0209306 0.491841 
-0.043556 -0.00823513 0.176925 
-7.78382e-18 4.05258e-18 1 

-0.137356 0.0550108 0.103358 
0.0634214 -0.118546 -0.102311 
-3.37714e-18 -2.82268e-19 1 

-0.24483 -0.0109549 -0.463504 
-0.0543944 -0.0435101 -3.7471 
2.57848e-17 -9.95772e-18 1 

-0.141467 0.075239 -0.498382 
0.036865 -0.0241073 0.261399 
1.08477e-18 -4.86823e-18 1 

-0.0887145 0.0435617 0.745199 
0.047666 -0.0685253 -0.323468 
1.52457e-17 -3.07477e-18 1 

-0.0861323 0.0496255 0.0524625 
-0.0708857 -0.0763054 -0.0281699 
6.38323e-18 -6.72518e-18 1 

-0.379984 0.490174 -0.177946 
-0.167987 0.130454 -0.627782 
-2.27031e-17 -1.09633e-17 1 

-0.171877 0.24395 0.919764 
-0.363073 0.0592563 0.709525 
-1.23158e-18 -7.14097e-18 1 

-0.0865467 0.0353368 0.381885 
0.00694305 -0.0316229 0.624543 
-1.16449e-17 2.21055e-18 1 

-0.265727 -0.139748 -0.164866 
-0.0916137 0.030234 0.04045 
8.14954e-18 8.99949e-19 1 

-0.139886 -0.0576268 -0.0878989 
0.00844874 0.055407 0.203782 
-4.73935e-18 3.82914e-18 1 

-0.678338 0.0253766 -1.54398 
-0.145199 0.372983 -0.259214 
-1.04736e-17 -5.41737e-19 1 

-0.125839 -0.00655426 -0.103682 
0.0052567 0.000758122 0.0275336 
-1.98917e-17 8.06539e-19 1 

-0.609779 -0.644339 -0.251738 
0.518143 0.39743 -1.96499 
-3.31536e-18 -2.83294e-18 1 

-0.256681 0.188855 -0.280518 
-0.198467 -0.0494776 -0.169095 
1.1803e-17 1.39151e-17 1 

-0.0747375 0.104509 0.137192 
-0.106887 -9.38182e-05 -0.0444459 
-1.4645e-17 -1.07126e-17 1 

-0.154825 -0.186477 -0.0932912 
0.601708 0.172809 0.724825 
3.37332e-18 -7.85779e-18 1 

-0.122365 0.00812175 1.68601 
-0.0122318 -0.0168941 -2.38792 
-3.62865e-18 -1.9725e-19 1 

-0.105866 -0.0282457 -0.06283 
-0.0410926 -0.123807 -0.0290582 
2.573e-18 4.89699e-18 1 

-0.120421 -0.0127411 -0.248512 
-0.0729429 -0.0214355 0.108014 
1.00563e-17 -1.07338e-18 1 

-0.408097 0.326356 -0.139353 
-0.0458028 0.208635 0.505347 
3.46686e-19 -3.85207e-19 1 

-0.0672937 0.145453 0.226724 
-0.164444 -0.00887439 -0.010619 
-7.31038e-18 -2.71855e-18 1 

-0.168133 0.0188271 -0.821793 
0.107193 0.0128954 -0.667433 
7.3254e-18 8.19625e-19 1 

-2.51316 0.164673 3.5205 
1.58387 -0.114967 -2.76238 
-5.48947e-18 5.45996e-18 1 

-0.229776 -0.103445 0.253001 
0.0301926 0.112475 -0.196812 
2.80011e-18 4.23746e-18 1 

-0.162197 0.147687 -0.412351 
-0.038224 0.0825214 -0.72363 
-5.64147e-18 3.49191e-18 1 

-0.828402 0.838015 0.0789083 
-0.479176 0.369909 -0.175782 
-9.19518e-18 8.51906e-18 1 

-0.518741 -0.207145 0.33123 
0.151394 0.215598 -0.294224 
-2.62149e-18 0 1 

-0.0704038 -0.052369 -0.0277728 
-0.000132206 0.00988184 0.0140814 
1.33672e-17 2.82566e-18 1 

-0.940751 -0.651114 0.102379 
0.43279 0.563213 0.362938 
-2.02007e-18 -3.23044e-18 1 

-0.109184 -0.085224 0.00689826 
0.137732 0.00262913 -0.994457 
1.55424e-18 4.68289e-18 1 

-0.157124 0.0720476 -0.016144 
0.0282699 -0.0443415 0.0551638 
4.27676e-18 3.8577e-18 1 

-0.0959486 -0.0415856 0.182469 
0.0950685 -0.0696072 0.0947929 
-1.075e-18 9.2757e-18 1 

-0.185536 -0.046729 -0.0877201 
0.00371643 -0.0469447 0.0697802 
-6.43394e-18 -4.82545e-18 1 

-0.0956482 -0.039578 -0.0278735 
0.0712396 -0.0114441 -0.0242471 
-1.08102e-18 8.81451e-18 1 

-0.12885 -0.0992255 -0.830875 
0.269273 0.0292887 -0.70509 
-3.10581e-18 2.0078e-18 1 

-0.0733221 -0.0520992 -0.779377 
0.031492 -0.0210153 0.132192 
-4.32108e-18 3.14268e-17 1 

-0.0833515 0.0071722 0.0938866 
-0.0436378 -0.0251589 0.0524159 
3.42646e-18 -8.48456e-18 1 

-0.0620076 -0.732378 0.455321 
0.419163 0.283984 0.192002 
-5.85253e-18 -7.7007e-20 1 

-0.402707 0.402789 0.140299 
-0.302331 0.0471422 -0.0477857 
-5.72807e-20 -4.92614e-18 1 

-0.140934 0.0285911 0.341666 
-0.1018 -0.067144 0.0653717 
-2.90604e-18 -5.45134e-18 1 

-0.181068 -0.329038 -1.30775 
-0.0180481 0.0655326 0.0299473 
7.08551e-18 1.09556e-17 1 

-0.0509441 -0.00512921 -0.156421 
0.0946768 0.0128546 -0.241283 
2.46664e-18 4.22853e-19 1 

-0.148927 -0.0640357 -0.462683 
-0.0385702 0.0395945 1.94541 
-1.70375e-18 -3.93792e-18 1 

-0.173645 0.00747166 0.133928 
-0.0301785 -0.0349895 -0.230262 
-8.08204e-19 -2.35726e-18 1 

-0.177251 -0.051641 0.989507 
-0.00937561 -0.0182326 -0.796853 
-5.98403e-18 -2.53112e-18 1 

-0.130251 0.0425034 -0.299905 
-0.021587 -0.00753876 -0.281895 
2.39785e-18 -7.62106e-18 1 

-0.113498 0.0887444 0.528328 
-0.101756 -0.126675 -0.0466631 
8.5496e-19 1.29067e-17 1 

-0.842286 -0.0616246 -0.498525 
-0.211393 0.33683 -0.684795 
-7.16735e-18 -1.41228e-17 1 

-0.157639 0.0139101 0.858178 
0.0413196 -0.107583 1.51878 
8.24595e-18 -7.48944e-18 1 

-0.108912 0.0287952 -0.327605 
-0.0305163 -0.0147034 -1.38366 
2.56384e-18 2.85546e-18 1 

-2.37639 0.286958 -62.5315 
0.961383 0.855291 25.2329 
-6.33721e-18 -1.01734e-18 1 

-0.882663 0.0141681 -0.00856566 
-0.0613211 0.132068 -0.179345 
-1.2848e-17 -1.95222e-18 1 

-0.233256 -0.365034 2.98481 
0.316531 0.254285 -7.56535 
-3.95024e-18 -6.18623e-18 1 

-0.569497 -0.394355 -0.758402 
0.34026 0.11293 -0.425128 
-1.87528e-17 -1.17262e-17 1 

-0.0750181 0.0252525 0.63738 
-0.134015 -0.0119468 0.175917 
1.89279e-18 -7.91186e-18 1 

-0.407807 -0.170173 9.87237 
0.132225 0.273974 -8.84244 
1.65521e-18 -2.59354e-18 1 

-0.0964464 0.132538 -0.313545 
-0.0436101 0.00493242 -0.249332 
4.2512e-19 2.55072e-18 1 

-1.81171 -0.0276561 -0.240856 
-0.282092 0.486063 0.254261 
-3.40923e-18 -6.28017e-19 1 

-0.0409771 -0.0338001 0.0184859 
0.0691354 -0.0848624 0.0835954 
-1.01511e-18 -4.51327e-18 1 

-0.105547 0.00555956 0.12513 
-0.0334372 -0.0111283 -0.0353167 
4.45863e-18 -6.52614e-18 1 

-0.0793783 -0.0481801 -0.0332331 
0.00792124 -0.0917865 0.398949 
8.30895e-18 -2.99917e-18 1 

-0.207779 -0.0888809 0.289366 
0.0238379 -0.0136985 -0.405024 
2.85804e-18 -4.8508e-19 1 

-0.106334 -0.00993039 0.377076 
-0.00777119 -0.0469407 0.056614 
-2.22931e-18 5.00211e-18 1 

-0.0765692 0.0216896 0.0414144 
0.053121 -0.0162633 -0.0270124 
1.18569e-17 5.09194e-19 1 

-0.204246 -0.231365 -0.602831 
0.12534 0.0568529 0.113236 
3.35703e-18 3.97068e-19 1 

-0.360387 -0.0798269 2.06078 
-0.0380032 0.0936128 -2.20896 
1.67618e-17 -5.49362e-18 1 

-0.325122 -0.41837 -0.552354 
0.531946 0.299032 -0.467613 
8.53265e-18 -2.63788e-18 1 

-0.124477 -0.0853211 0.886705 
-0.101697 0.00197089 1.20276 
6.93292e-18 1.07823e-18 1 

0.472498 -0.932168 -0.399025 
0.926924 0.612163 -0.226811 
-6.25805e-18 -6.20479e-18 1 

-0.129243 0.0135705 -0.010658 
-0.000419455 -0.0465037 -0.129921 
1.05253e-18 0 1 

-0.204193 0.0794514 -1.72092 
-0.0593608 0.0698926 -0.415121 
-4.92831e-18 2.21181e-18 1 

-0.170464 0.08202 0.013288 
-0.0506294 -0.124478 -0.0410154 
1.74565e-17 -1.21956e-18 1 

-0.145889 -0.061666 -1.16521 
-0.101344 -0.00974838 -0.533036 
-9.3536e-18 6.10207e-19 1 

-0.430677 0.107111 -0.609377 
-0.209505 0.00277163 -0.0856982 
-1.40828e-17 3.98101e-19 1 

-0.0828286 -0.0291489 0.139068 
-0.00623321 -0.0751143 0.066508 
-3.39265e-18 -6.52368e-18 1 

-0.108227 0.000213704 0.141288 
0.0349647 -0.0494356 -0.778735 
-1.71677e-18 -1.95581e-18 1 

-0.338581 0.00822703 0.00174245 
0.110002 0.145169 -0.0171352 
-4.01794e-18 -7.78988e-19 1 

-0.153036 -0.0244586 -0.0314096 
-0.0465723 -0.0445685 0.203405 
-2.2727e-17 3.05941e-18 1 

-0.138911 -0.0337801 0.468218 
-0.0291436 0.00197782 0.136575 
-3.19753e-18 -2.78695e-18 1 

-0.176241 0.249622 0.296678 
-0.109211 0.0982513 -0.912651 
-6.80432e-19 -2.98904e-18 1 

-0.163358 -0.00814924 2.6356 
-0.117389 -0.0276721 1.78669 
-9.74525e-18 -2.92358e-18 1 

-1.42422 0.370862 1.21542 
0.281251 0.565241 2.14366 
-5.29369e-18 -1.08043e-17 1 

-0.0484733 0.252938 0.0851437 
-0.29613 0.0608396 0.0967105 
-1.3164e-18 -1.53913e-17 1 

-0.140362 -0.0985435 -0.0519407 
0.101491 -0.0524603 -0.0818021 
1.10754e-17 1.63884e-17 1 

-2.02345 -0.341062 -0.651577 
-0.11313 0.574663 -0.258298 
9.70947e-18 -8.0114e-18 1 

-0.697759 -0.74268 0.0636413 
0.202649 0.49816 0.97562 
8.8817e-18 -7.43139e-18 1 

-1.04912 0.612474 -0.178302 
0.228505 0.123091 -0.963027 
2.53607e-17 -9.66529e-18 1 

-0.156028 0.0541655 -0.253207 
-0.0587077 0.0381181 -0.182301 
-5.53394e-18 1.42605e-17 1 

-0.224657 0.107924 -0.0625321 
-0.0923624 -0.04101 0.0759013 
-2.93219e-18 5.11301e-18 1 

-0.139823 -0.0526001 -0.30139 
0.0708426 -0.0250681 -0.178236 
-1.19351e-17 2.5362e-17 1 

-0.181718 -0.0353066 -0.0562253 
-0.106281 -0.0332215 0.18853 
1.91832e-18 -3.11728e-18 1 

-0.370762 -0.744431 -0.635013 
0.667315 0.558998 0.871434 
-3.99709e-19 -1.55487e-18 1 

-0.141931 -0.255369 -0.0188125 
0.153692 0.0772355 0.369831 
1.43016e-17 -3.80436e-18 1 

-0.117085 0.0226044 0.032831 
-0.0393265 -0.0167696 0.0839724 
-1.92258e-17 2.72798e-18 1 

-0.485736 0.140617 -0.282824 
-0.0938848 0.059326 -0.156597 
1.07212e-17 8.90861e-18 1 

-1.02359 0.28598 1.52916 
0.0347991 0.398571 0.410395 
-5.30371e-18 1.08815e-17 1 

-0.31447 -0.0398451 -0.233677 
0.0189408 0.25788 -0.311217 
-1.14938e-17 1.04286e-17 1 

-0.076645 0.119498 -0.0120081 
0.0541968 -0.0644734 -0.637022 
2.98273e-18 4.85561e-18 1 

-0.0938127 -0.0919517 0.266915 
0.0803428 -0.00144614 0.0129718 
1.40751e-18 -2.0878e-17 1 

-0.0809374 0.00841924 -0.115144 
-0.0013521 -0.0170044 0.134365 
3.34978e-18 -7.79039e-18 1 

-1.42094 0.114446 -4.52379 
0.148812 0.427808 2.50287 
-1.60118e-18 -1.78417e-18 1 

-0.135806 -0.656301 -0.477212 
0.282554 0.210747 -0.285064 
-5.93775e-18 -9.26289e-18 1 

-0.0516466 0.0415273 -0.0959622 
-0.0924875 -0.0390748 -0.345521 
1.103e-17 -1.72473e-18 1 

-0.173842 0.0256833 -0.296053 
-0.0340437 -0.0239544 -1.45898 
4.49304e-18 7.88895e-18 1 

-0.0888936 0.0280584 -0.0149901 
0.103034 -0.0928745 0.463582 
-4.83906e-18 3.61159e-18 1 

-0.127671 0.0406844 -0.320429 
-0.0415774 0.0600173 1.94016 
1.62755e-18 9.53106e-19 1 

-0.226654 -0.00929794 1.54073 
-0.0380491 0.0582914 -0.451087 
-1.16876e-19 8.56118e-18 1 

-0.200362 0.221844 -0.80966 
0.00257214 0.152924 -0.197814 
-5.96216e-18 2.86488e-18 1 

-0.12322 0.0074323 0.0881408 
0.00172645 -0.102964 -0.0559738 
-5.55358e-18 -3.051e-17 1 

-0.255954 0.0297692 0.424893 
0.158285 0.0652846 -3.7758 
-5.38855e-18 -2.93543e-18 1 

-0.201021 0.0608636 -5.04401 
-0.138217 -0.00505742 7.17151 
-4.95914e-18 1.89751e-18 1 

-0.138877 -0.0183015 -0.743301 
-0.0566652 0.0205456 0.460264 
2.52189e-17 1.33975e-17 1 

-0.20099 2.34396 73.9223 
-0.00696528 -0.0655502 -20.0895 
1.62987e-18 -1.48502e-17 1 

-0.499912 0.816654 -2.62423 