# vtk DataFile Version 3.0
Output file generated by Yade's KinematicLocalisationAnalyser
ASCII
DATASET UNSTRUCTURED_GRID

POINTS 13483 float
579.755 44.7938 0.428672
691.184 66.9951 -0.479237
118.049 6.09503 -0.43692
712.972 7.77116 0.455389
489.141 7.91758 0.327028
310.738 36.0036 -0.452022
153.734 7.03347 0.470333
553.237 11.3224 0.233204
487.239 27.4252 0.140441
650.471 17.3541 -0.533477
207.198 8.91585 -0.0928857
253.451 6.3651 -0.251993
614.091 54.1922 0.142052
596.072 22.2616 -0.149721
134.656 18.2123 0.483714
218.207 34.9436 0.386717
214.545 13.0675 -0.304047
285.493 9.57696 0.428928
336.34 34.9923 0.507032
511.838 8.53926 0.349446
405.692 37.5175 0.113583
560.533 56.0394 0.331198
712.243 43.2474 -0.466148
656.998 62.504 -0.353211
450.644 17.5135 0.329186
237.897 45.5294 -0.129415
482.101 30.3754 -0.46519
568.243 22.8973 -0.29153
44.372 14.9586 -0.475278
660.273 51.9333 -0.511353
473.437 5.11529 0.410198
16.7606 23.7434 0.340147
704.516 68.983 0.255712
484.987 2.59988 0.458591
77.1584 45.4992 -0.100796
511.05 34.1699 -0.335757
516.91 17.0967 -0.415093
339.416 23.5266 0.178685
521.72 28.6831 -0.317239
346.297 35.4918 0.525309
237.808 14.5224 0.335752
426.295 41.4235 0.0972107
615.521 7.51697 0.319875
189.617 6.22914 0.35625
54.8836 7.05667 0.0825948
67.9319 9.05422 -0.305835
629.75 7.59553 0.60911
22.8106 11.9466 -0.270497
574.708 69.3588 -0.352965
632.989 52.6982 0.320193
169.465 33.0379 0.320724
691.878 52.4358 -0.120233
34.7235 28.6708 -0.11897
521.083 2.98535 0.333541
139.8 7.41223 -0.494466
569.208 47.7698 0.43702
495.242 31.1452 0.113598
172.303 0.954938 -0.272775
32.0527 2.36672 -0.339437
344.665 17.9603 0.255118
587.361 75.8359 0.134171
452.818 34.126 -0.208575
394.613 1.03122 0.201339
635.887 15.0036 -0.463684
26.8568 44.0332 0.23641
252.612 31.4102 -0.305419
648.497 11.9708 -0.34866
627.278 81.1354 0.358195
413.084 8.53534 -0.514984
553.568 4.92037 0.535872
672.117 42.2079 0.467458
128.738 7.81539 0.285147
490.762 28.7102 -0.14252
470.098 15.8194 0.0891775
291.469 16.7668 -0.361873
20.1399 13.9103 0.294894
713.276 63.3637 0.317889
329.388 40.5893 -0.313918
632.465 43.8618 0.380303
628.956 12.2687 0.303639
704.281 20.2679 -0.25721
456.145 36.2255 0.183401
91.8684 40.4277 -0.279025
645.075 69.8087 -0.285588
607.846 63.4012 -0.102292
713.697 54.6834 -0.13362
701.585 2.60839 -0.699101
288.789 30.6172 0.429963
597.551 5.94866 -0.122015
24.0549 5.43572 -0.586575
131.814 40.02 0.17173
502.359 15.9079 0.176834
696.049 41.4486 0.492969
192.94 29.4584 -0.243824
44.0875 35.3444 0.342654
483.866 1.29521 0.140719
233.061 8.66579 -0.443001
670.401 54.1418 -0.380265
688.126 40.818 0.26213
357.02 21.6509 -0.263629
160.695 28.1967 0.447428
532.465 45.4289 -0.400454
376.379 15.8598 -0.514131
410.852 31.4482 -0.0926064
374.485 4.57851 0.39008
535.338 11.5964 -0.19474
717.295 12.778 -0.349467
79.7627 40.4652 -0.388943
332.425 4.93972 -0.225846
548.043 10.1479 -0.558512
357.904 45.3552 0.466692
25.4634 25.6678 0.470669
30.0178 5.85468 0.298918
550.884 36.2989 0.432913
496.464 27.9438 -0.145113
26.3129 37.6249 0.365712
93.1819 32.6969 0.23956
322.84 16.5372 0.287353
576.273 25.903 0.141101
468.294 40.2461 0.305267
661.144 8.51671 -0.673266
655.265 6.06269 0.24292
384.624 37.8161 -0.0996715
598.543 43.5311 -0.135777
236.324 17.3129 0.542669
327.861 3.85594 0.468272
102.697 32.8538 -0.403979
115.264 25.4433 0.25462
528.788 47.4779 -0.0894679
304.328 18.5728 0.532614
655.037 42.7292 0.104851
632.412 81.4862 -0.107785
474.741 22.9974 -0.40677
686.995 9.13504 0.437076
425.063 25.4294 -0.216933
276.417 24.2929 -0.303929
636.183 67.6707 -0.295413
277.57 29.3664 0.393172
561.942 15.6115 -0.236568
330.744 37.4445 0.220616
496.638 12.835 0.554419
364.697 32.6113 0.0869935
427.61 18.0371 -0.113046
316.631 43.0608 0.433634
189.154 30.8722 -0.133781
695.661 66.9811 0.17228
715.362 16.4838 -0.373814
5.89566 12.6918 0.423987
430.346 24.5008 -0.455071
38.2668 23.1052 -0.0761385
375.215 32.3214 0.483538
393.677 24.9708 -0.272571
74.3641 11.9653 -0.502531
51.5253 33.9149 -0.466306
224.798 13.5619 0.455549
588.44 66.8166 0.394953
564.536 24.2292 -0.492959
75.1689 21.1569 -0.504687
661.33 61.5623 0.452771
676.968 5.25561 -0.514129
624.478 72.0227 -0.507173
635.945 4.14739 0.614742
536.036 30.6532 0.426971
561.575 55.1471 -0.607033
504.883 20.0767 -0.489983
710.369 3.81754 0.270862
222.948 25.1005 -0.125165
127.501 37.3748 -0.215253
246.451 6.71625 -0.43434
93.9872 4.68123 0.288442
64.2343 10.1773 -0.23316
275.342 36.3775 -0.338167
17.0534 25.3843 -0.387725
545.411 21.5108 0.408845
577.176 64.4636 -0.185073
460.057 23.0138 -0.35793
715.613 84.6246 -0.118934
406.306 8.65615 -0.126378
432.453 41.4873 0.412131
529.502 3.33948 -0.19296
22.141 25.0456 -0.404966
564.322 6.0684 0.547099
538.799 4.4686 -0.279514
205.585 11.2643 0.497486
423.713 16.7296 -0.194456
311.615 6.58369 0.31785
387.56 19.1936 -0.335702
688.85 75.8029 -0.103359
192.173 26.1329 0.485919
695.628 10.14 -0.421723
686.545 70.9625 0.332148
382.771 10.5872 0.185816
646.262 4.27113 0.562093
579.022 37.3449 -0.455581
662.448 25.5459 -0.44268
427.955 48.449 -0.283649
491.439 13.4432 0.480215
461.44 46.2941 -0.236368
444.426 8.80552 -0.18017
626.586 74.4401 0.275141
626.323 67.1573 0.331043
191.716 40.0175 -0.34488
702.215 20.6675 -0.0921352
562.476 56.4608 0.249664
11.8993 16.7516 0.185857
409.492 25.1452 0.389269
187.117 23.8557 0.406929
93.5146 41.419 -0.216264
692.421 34.204 0.482956
619.493 73.91 -0.235641
319.882 26.743 0.358755
525.997 10.0509 0.329476
82.2266 45.8138 -0.180424
247.221 26.0591 -0.472383
545.792 26.7077 0.4182
484.198 20.8708 0.4351
262.896 0.884903 -0.343354
541.198 43.9578 -0.572288
523.601 52.8544 -0.446484
479.651 36.0959 0.408178
495.711 1.93495 -0.662341
639.042 29.4566 -0.382677
179.147 12.5618 0.171368
498.282 41.782 -0.458187
549.026 45.6545 0.111991
73.1353 0.973657 0.274267
251.687 4.80795 0.179529
714.813 18.3813 0.315154
704.788 22.1318 -0.476655
718.951 19.6914 -0.577377
304.19 8.64228 -0.233713
671.265 31.7332 0.428595
404.348 43.8184 0.321878
448.644 0.816764 0.462948
614.488 63.6187 -0.532935
27.0786 31.4931 -0.304242
331.185 43.5023 0.588039
252.535 2.94097 0.354227
709.437 70.7444 -0.190255
658.837 83.61 0.237558
287.939 10.9549 0.268795
629.394 58.7774 -0.0981189
549.443 2.70797 0.242025
535.251 7.95425 0.6036
96.9549 18.654 -0.535003
304.09 1.04535 -0.231886
343.513 2.27556 -0.360513
13.8925 7.55966 -0.473016
4.46425 32.5818 0.261185
161.732 18.8709 -0.361787
68.4276 42.4085 0.207411
67.3215 29.3988 -0.324821
424.018 14.882 -0.47062
367.973 36.0125 0.473408
689.413 53.4573 0.12613
19.4917 4.0885 0.283942
70.8809 7.07092 0.149796
591.824 54.2355 -0.155004
295.521 0.933589 0.392118
365.445 16.3599 -0.106475
235.731 4.63875 0.398656
617.357 45.7619 -0.177134
451.273 8.34933 0.533941
672.818 31.8982 -0.380871
599.98 47.4388 0.306403
633.711 41.6021 0.105624
421.832 29.2372 0.485256
102.384 47.2996 -0.310012
533.46 49.3609 0.083109
661.383 18.4546 0.381742
238.51 31.6527 -0.260729
31.9992 17.1605 0.189584
336.887 14.088 0.493046
107.535 42.4573 0.458733
268.419 42.7541 -0.221887
427.016 2.13381 -0.296014
698.506 45.7209 0.420847
630.821 0.745755 0.652785
332.904 3.42321 0.585608
300.81 27.083 0.155807
460.465 43.0546 0.232734
82.0076 8.20678 0.493668
197.973 45.9493 0.379226
690.94 46.5903 -0.374618
493.233 43.6647 -0.0815777
200.316 41.8745 -0.291766
160.896 43.2904 0.196118
716.354 49.9665 0.412652
716.765 15.2831 -0.593928
590.44 4.22674 -0.612169
190.443 26.1258 -0.0966794
535.036 32.3261 -0.0958522
539.106 30.7868 0.252772
410.749 5.62532 -0.148067
478.798 1.26745 0.302499
686.623 55.5595 0.471646
85.747 32.2922 0.228794
620.492 41.751 -0.541539
275.508 15.8397 -0.349935
9.42826 2.39573 0.326503
126.038 38.9816 -0.194856
67.7106 23.4555 0.501599
651.722 49.2698 0.398904
704.915 78.4155 0.181671
185.337 29.5485 -0.174426
710.468 16.9301 0.449596
45.6059 37.4626 -0.265784
91.9587 31.0963 0.156614
603.439 26.7031 -0.456043
416.026 17.5719 -0.458856
514.124 17.6043 0.146694
238.925 29.7413 0.197725
601.445 8.27 0.484258
718.47 11.5127 0.424508
30.0284 32.5186 -0.280347
271.264 7.83278 0.186292
222.619 15.5701 -0.275464
1.07071 37.2057 0.145839
225.842 14.3601 -0.443582
212.067 11.1083 0.123001
214.578 26.5211 0.271013
133.724 29.3522 -0.127448
540.278 16.878 -0.345435
167.056 14.2601 0.381053
704.151 66.9984 0.231698
174.29 3.85409 0.506922
47.7505 38.6261 -0.453457
697.03 81.2207 -0.426135
282.503 32.6653 -0.391601
635.674 47.9864 0.460016
705.303 47.4103 -0.5506
302.241 9.27513 -0.103025
662.502 44.095 -0.33985
329.876 2.47646 -0.44241
417.61 26.5975 0.363594
625.992 25.8356 -0.515968
106.172 12.3173 -0.421739
480.759 3.84431 -0.62561
674.301 27.3257 0.22411
88.7016 7.82727 -0.31132
283.229 14.8348 0.192838
425.113 12.3872 -0.240241
710.34 5.50559 0.618075
399.576 2.02205 -0.524561
176.944 39.9358 -0.331591
664.778 16.6618 -0.390992
129.312 38.3561 0.20499
264.17 31.6964 -0.430015
402.834 21.5683 0.219866
564.532 17.1454 -0.390493
388.601 10.0041 -0.4962
455.213 29.1466 -0.412984
690.964 68.5461 -0.374698
47.8219 10.9279 0.115192
300.602 40.1075 -0.316497
380.856 26.6042 -0.413133
412.154 21.2433 -0.268755
513.118 58.8031 0.356112
679.743 52.0096 0.263172
631.212 68.5046 0.353455
226.387 35.4432 0.347515
13.6206 32.8334 0.152221
624.932 68.5085 -0.14603
508.121 46.9435 0.523321
230.323 40.5672 -0.117546
642.894 62.8833 0.109445
151 9.54569 -0.193858
367.29 21.853 0.282889
462.162 44.2634 0.116748
416.264 20.2592 0.207741
687.734 67.1224 -0.343219
428.228 4.56078 0.585433
49.8031 26.3313 -0.328211
468.677 33.8188 0.32618
434.402 46.4788 0.36053
709.742 64.6474 -0.257621
666.548 60.0622 0.218986
535.598 19.1581 -0.168916
699.836 60.9415 -0.452731
295.158 2.19964 -0.499765
380.033 30.8018 0.59174
29.3891 39.601 -0.310171
662.128 49.3805 -0.201774
584.965 28.4138 -0.536186
462.149 0.785184 0.453435
125.981 4.77088 -0.3563
425.672 45.9272 0.101618
11.8245 0.900205 -0.317188
709.755 9.89348 0.0815583
372.007 39.8834 -0.446113
[...]
POINT_DATA 13483
TENSORS Strain_matrix float
-2.32572 1.27782 -5.22031 
-0.403326 0.973063 0.835451 
5.01087e-18 -3.52939e-18 1 

-1.08786 2.1488 24.3801 
0.418274 1.01583 14.1156 
-3.90137e-18 -4.1949e-18 1 

-0.147132 -0.118795 -0.143748 
0.090656 -0.0240986 0.167457 
5.40195e-18 7.45469e-18 1 

-1.41427 0.368202 -0.379426 
-0.371497 0.529888 -0.521528 
-1.95987e-18 6.48259e-18 1 

-0.345419 -0.0789001 -0.0548776 
-0.00910936 0.0647654 -0.200166 
8.21677e-18 6.06777e-18 1 

-0.0977218 -0.0573787 0.417232 
0.00972452 -0.033076 0.0228067 
-9.8508e-19 1.48061e-17 1 

-0.118073 -0.0165512 0.37787 
-0.0146279 -0.0571391 0.015036 
-8.78385e-19 3.17892e-18 1 

-0.276007 -0.0685987 0.251919 
0.262403 0.000420306 -0.0319071 
-1.88445e-18 2.95516e-18 1 

-0.0823633 0.307852 0.79699 
0.0825952 0.28206 0.312175 
-1.36546e-18 5.77694e-18 1 

-0.220637 0.504823 0.820764 
-0.858572 0.143739 0.517071 
7.8312e-18 1.16349e-17 1 

-0.107725 -0.0245746 0.0483708 
0.0587173 -0.0696467 -0.0548572 
-5.52466e-18 1.76364e-17 1 

-0.115331 -0.0568783 0.205161 
-0.0703973 -0.0846479 0.0686417 
-3.5423e-18 2.79297e-18 1 

-1.44247 0.242192 0.0339048 
0.237435 0.541719 -0.55783 
4.60469e-18 -1.09492e-18 1 

-0.435633 -0.855532 -0.770894 
0.635839 0.624203 -0.514149 
-7.1489e-19 -2.30447e-18 1 

-0.193838 -0.0856327 0.424616 
0.119634 0.0382659 -0.544409 
2.16962e-18 4.93095e-18 1 

-0.152972 -0.12182 1.03892 
0.0559204 0.00919614 0.162784 
2.13399e-17 -4.71463e-18 1 

-0.101284 -0.0338775 0.0134641 
0.0144907 -0.104564 -0.0296486 
1.36219e-17 -4.11227e-18 1 

-0.195918 -0.015785 0.0479612 
0.00181876 -0.0792365 0.0613943 
5.09623e-18 9.01987e-18 1 

-0.309313 -0.0249549 -1.74454 
0.0252071 0.0641982 -4.57347 
-8.7801e-18 -4.23547e-18 1 

-0.222658 -0.0266624 -0.0101885 
-0.170272 -0.025113 0.215603 
-9.31223e-18 -6.8425e-18 1 

-0.192476 -0.329159 -0.564632 
0.318826 0.062971 0.23737 
6.48432e-18 -4.40806e-18 1 

-0.923585 -0.0550882 -2.86521 
-0.112181 0.541755 1.52631 
2.25859e-19 6.52588e-18 1 

-1.32547 -0.6359 -2.8728 
0.155235 0.836845 -1.88841 
3.47397e-18 -3.25685e-18 1 

-0.0338264 0.726036 10.0639 
-0.790066 0.774067 1.17997 
-4.16711e-18 2.28262e-18 1 

-0.0895318 -0.229633 0.191721 
0.187648 -0.0226211 0.0615265 
-7.70265e-18 2.21901e-18 1 

-0.116523 0.0552529 0.267888 
-0.0516042 0.0426536 -0.192634 
7.13491e-18 -7.91327e-18 1 

-0.306502 0.0625693 0.83595 
0.0341763 0.0855019 -0.369696 
9.87397e-18 -1.45641e-18 1 

-0.401982 -0.311762 -0.27829 
0.288896 0.227527 0.374663 
-7.77306e-18 4.16058e-18 1 

-0.138186 -0.0293355 0.178949 
0.11391 -0.0344928 0.345796 
1.34009e-18 -1.96953e-18 1 

-4.87039 1.99754 8.56972 
0.993404 -0.529222 -13.3546 
4.06792e-18 -9.22613e-18 1 

-0.262389 -0.0380976 -0.171211 
0.135553 -0.0515233 0.333196 
-1.47726e-17 -1.579e-17 1 

-0.0670015 -0.0488976 -0.435966 
-0.0486731 -0.00507042 -0.0980916 
-4.82264e-18 4.6962e-19 1 

0.328408 -0.911798 -2.05013 
0.598293 0.260865 2.17153 
6.96221e-19 1.09594e-17 1 

-0.194036 0.0191863 0.0237086 
-0.0510645 0.0191912 -0.143293 
1.88463e-18 1.23679e-18 1 

-0.0780971 -0.0828583 0.0991522 
0.0136575 -0.111928 0.284241 
7.25082e-18 -2.18134e-17 1 

-0.835372 0.24663 -1.3048 
-0.522022 0.362685 0.423777 
0 -1.0789e-17 1 

-0.172006 0.149393 -2.14214 
-0.117783 0.00909416 0.487671 
-1.03725e-18 7.01951e-18 1 

-0.411436 0.259693 0.191288 
-0.0436753 0.272215 -0.0473962 
-6.71969e-18 1.6259e-17 1 

-0.378378 0.106623 -1.67089 
0.296871 0.145684 0.856332 
-4.79248e-18 1.57321e-17 1 

-0.167806 0.00905744 2.21246 
-0.0514166 0.061031 -2.79492 
9.52538e-19 -1.37108e-19 1 

-0.195032 -0.0523743 0.123545 
-0.091038 -0.0333308 -0.0211588 
-1.10854e-17 -1.25275e-17 1 

-0.177128 0.0336787 -0.0366825 
-0.00242929 -0.0208216 -0.0919514 
2.64863e-18 4.31004e-18 1 

-1.57781 1.84218 0.441513 
-0.843897 1.0704 -0.463118 
-1.24789e-17 -1.5381e-17 1 

-0.135183 0.0340873 0.474151 
-0.0503695 -0.0620938 1.0667 
-3.63606e-18 2.14172e-17 1 

-0.13788 0.0400305 0.108645 
-0.0285779 -0.0401839 0.186181 
4.69037e-18 -1.74515e-17 1 

-0.111788 -0.01592 0.20024 
0.0258265 -0.0537012 0.0267206 
1.11359e-18 -1.79503e-18 1 

-0.529139 -0.600095 -1.54057 
0.26115 0.301047 2.22851 
-2.17562e-18 1.26525e-18 1 

-0.0762432 -0.0723708 -0.0294307 
0.00624278 -0.0948667 -0.00981572 
-4.99946e-18 -4.18803e-18 1 

0.084427 -0.54495 0.160615 
0.669896 0.157939 0.392089 
-1.01089e-17 -1.39878e-17 1 

-1.61279 -0.168721 2.82496 
-0.200997 0.411338 -3.25359 
-1.57012e-18 -6.41131e-18 1 

-0.140558 -0.0486827 0.00647733 
-0.0360537 0.0239196 0.30841 
-3.4908e-18 -5.11984e-18 1 

-0.113386 -0.289049 0.201011 
0.442815 0.107804 -0.377319 
-3.61348e-19 -2.01e-18 1 

-0.156864 0.134155 0.105554 
-0.0573448 0.0995226 0.0581623 
-7.09152e-18 1.65125e-18 1 

-0.171019 0.0194691 0.163363 
-0.0467734 -0.0587028 -0.0492214 
2.88463e-18 1.48183e-18 1 

-0.125381 0.0351753 0.181007 
0.00133271 -0.110775 -0.0993671 
-1.25174e-17 6.5008e-18 1 

0.106662 -0.657885 -2.81418 
0.757803 0.306627 1.55168 
-1.08838e-18 -1.70909e-18 1 

-0.13309 0.325264 -1.04996 
0.111017 0.00821195 -0.238709 
-2.17294e-18 -9.15407e-18 1 

-0.0973062 0.195932 -0.0645929 
-0.00386073 -0.0494511 -0.023813 
2.31275e-18 3.00933e-18 1 

-0.0655313 0.0190637 -0.172619 
-0.0366333 -0.127467 -0.11686 
-4.85683e-18 -2.03536e-18 1 

-0.13659 -0.0987512 0.148972 
0.0404809 0.0710834 0.0786164 
7.9689e-19 -5.97667e-19 1 

0.0263685 -3.74924 -6.68043 
0.0120085 0.925687 -1.1689 
-4.89712e-19 2.17453e-18 1 

-0.12013 -0.0601719 -0.463301 
0.164183 0.0182101 -0.074086 
1.70318e-17 -1.64943e-18 1 

-0.116381 -0.0739454 -0.258611 
-0.0120037 -0.0485509 -0.133581 
1.75303e-18 8.41115e-18 1 

-0.479625 -0.476111 1.39467 
0.364121 0.336829 0.797257 
1.07826e-18 -7.4498e-18 1 

-0.235482 -0.0142735 0.197064 
-0.013979 0.10384 0.449353 
-6.91135e-18 8.39601e-18 1 

-0.174987 0.115863 -0.122158 
-0.099756 0.000886781 0.165728 
-8.65058e-18 -7.19798e-18 1 

-0.795849 0.558871 0.317114 
-1.29706 0.624474 0.445031 
-1.16258e-17 -2.82827e-18 1 

-0.712189 1.26635 17.6361 
0.276784 0.383719 2.10644 
7.70849e-18 -1.91901e-17 1 

-0.149428 0.0124642 0.457096 
-0.078773 -0.0810653 0.567346 
-2.98368e-18 -6.10297e-19 1 

-0.560567 0.0963033 -0.237663 
0.149615 0.0976746 0.435732 
-1.62587e-17 -1.27519e-17 1 

-1.02795 -1.14706 -1.69579 
0.287451 0.539832 -0.27057 
5.56265e-18 -2.38399e-18 1 

-0.120948 0.0370013 0.03007 
-0.0522569 -0.0532333 0.244908 
4.54658e-18 -1.15331e-19 1 

-0.354684 0.1257 0.694719 
-0.00902639 0.265842 0.548652 
2.18276e-18 -5.69417e-18 1 

-0.274372 -0.121951 0.690491 
-0.0254874 0.0776256 0.128032 
1.16157e-17 -2.95001e-18 1 

-0.125484 0.0072469 -0.417134 
0.0449754 -0.0512441 0.118178 
-3.25326e-18 -1.18238e-17 1 

-0.12138 -0.0384832 0.0591342 
0.0140345 -0.081031 0.032759 
9.2791e-18 3.94362e-18 1 

-4.97438 4.25092 2.79952 
-1.20462 1.4202 1.18777 
2.44387e-18 -8.60326e-18 1 

-0.129942 -0.0168802 -0.0758637 
0.11119 -0.0266889 0.0180559 
-2.52137e-18 5.15398e-18 1 

-1.53264 -0.306155 -1.65585 
-0.703661 0.384439 -3.45152 
-8.88298e-18 1.78225e-17 1 

-0.974185 -1.06266 -2.08081 
0.604432 0.731547 1.0983 
1.64772e-17 1.4793e-17 1 

-0.452553 0.436378 0.354843 
-0.49498 0.202043 0.282404 
1.64562e-17 1.0738e-17 1 

-0.0636035 -0.025464 0.0832893 
0.0542575 -0.0175837 -0.0116842 
-1.02757e-17 1.61102e-17 1 

-0.0774669 -0.0189066 -0.112101 
0.0382086 -0.0305485 0.17799 
-1.72737e-18 -5.49249e-18 1 

-0.308829 0.350974 -0.574778 
-0.43251 0.229124 0.439325 
-5.1074e-18 -9.74887e-18 1 

0.0682275 -0.635302 0.0153605 
0.56623 0.219842 -0.427061 
-4.05471e-18 -4.82704e-18 1 

-0.205193 0.257686 0.122562 
-0.208975 0.163117 -0.892487 
5.35212e-18 5.98178e-18 1 

-1.26314 0.622157 16.2242 
0.0337953 0.506011 -0.684376 
-4.06404e-18 -1.16711e-18 1 

-0.0824475 -0.023311 0.0365803 
0.0857591 -0.0641153 -0.386002 
1.22764e-17 7.06558e-18 1 

-0.360882 -0.291936 0.110386 
0.0855862 -0.162467 0.0591032 
-3.47861e-18 -3.98138e-18 1 

-0.134318 0.00951287 0.0658548 
-0.00250987 -0.0213223 -5.83751 
4.04125e-19 -3.14167e-18 1 

-0.139609 -0.0551251 -0.0692891 
-0.0816323 -0.0295153 -0.0599345 
3.84185e-18 -5.18649e-18 1 

-0.267095 0.187276 0.0940288 
-0.0916012 0.0316503 0.294779 
3.29418e-18 1.06399e-17 1 

-0.151854 1.06708 1.76485 
-0.345293 0.169187 0.947168 
5.66784e-18 9.6983e-18 1 

-0.122945 -0.00533595 -0.281087 
-0.113749 -0.00739567 -0.228613 
5.5034e-18 3.41411e-18 1 

-0.11388 0.101505 0.119442 
0.0121931 0.00984221 0.196996 
-8.51146e-18 1.21845e-17 1 

-0.176011 0.155808 -0.162526 
-0.00320092 -0.0499765 0.315985 
2.00611e-17 1.08717e-17 1 

-0.175814 0.0178906 -0.126752 
0.00950897 -0.0430735 -0.719109 
2.17769e-18 -2.35619e-18 1 

-0.250507 0.143692 -0.644129 
-0.316757 0.0322345 -0.552696 
5.6275e-18 1.87093e-17 1 

-1.52565 1.2051 -0.504462 
0.330131 0.34841 0.237211 
-1.1413e-18 1.07889e-17 1 

-0.0700818 0.022998 -0.756821 
-0.0556399 0.00773823 0.634379 
9.138e-18 9.7424e-18 1 

-0.0884838 -0.0307541 1.78975 
0.0367133 0.0103791 1.54869 
-5.05999e-18 -1.23211e-18 1 

-0.12878 0.474112 1.202 
-0.487527 0.297941 0.672493 
7.96568e-18 5.36671e-18 1 

-0.139366 -0.0242523 -1.02785 
0.0475395 -0.05147 2.92253 
-2.85294e-18 -1.77779e-18 1 

-0.162044 -0.10003 0.504477 
0.19233 0.0341854 0.365251 
-8.64996e-18 5.09595e-18 1 

-0.176988 -0.044654 0.206305 
-0.124942 -0.0749311 0.199847 
-7.30606e-18 -3.35232e-18 1 

-0.189599 0.0548798 -0.04563 
-0.0823937 -0.102605 -0.137834 
-5.38354e-18 9.49237e-18 1 

-1.1817 0.388983 -0.109499 
-0.978585 0.571977 0.450146 
4.57444e-18 1.58199e-17 1 

-0.125068 -0.0358143 0.528573 
-0.0313511 -0.00641227 0.165237 
2.75147e-18 -2.16651e-19 1 

-0.160782 0.0639167 0.0927711 
0.0857334 -0.130002 -0.0907137 
1.96398e-18 -1.06095e-17 1 

-0.371439 0.0993895 0.0660343 
-0.115728 0.020581 -1.76443 
7.93554e-18 3.85816e-18 1 

-0.167032 -0.0651166 -3.69928 
0.00756888 0.0245256 2.16769 
2.42257e-19 6.44777e-18 1 

-0.0964323 0.0443112 0.897218 
0.0469719 -0.0691173 -0.860885 
-4.32496e-18 -2.41689e-18 1 

-0.0910415 0.0549506 0.0599708 
-0.0779467 -0.0709714 0.00252829 
-1.08445e-17 4.6355e-18 1 

-0.184116 -0.0956039 -1.48706 
0.137862 0.0255161 -0.477018 
-8.64052e-18 1.69975e-17 1 

-0.187227 0.251735 0.963872 
-0.300226 0.174554 0.565273 
-6.2013e-19 -2.14227e-18 1 

-0.0917635 0.0344763 0.38049 
0.0145528 -0.0331333 0.656172 
2.82217e-18 -6.58505e-18 1 

-0.26155 -0.171758 -0.154045 
-0.0618002 0.0194874 0.0406634 
4.26383e-18 -7.47601e-19 1 

-0.160249 -0.0383758 -0.264423 
0.00654054 0.0400426 0.0232072 
-1.39921e-17 1.27647e-17 1 

-0.941138 -1.91771 2.13448 
-0.147648 0.165011 -0.185015 
-4.24082e-18 -1.23186e-17 1 

-0.130153 -0.011052 -0.127588 
0.0144648 0.00289202 0.0436902 
5.56337e-18 2.25455e-18 1 

-0.597793 -0.531321 4.99092 
0.428382 0.409714 2.09935 
-1.13129e-18 7.38587e-18 1 

-0.264886 0.0826636 -0.264777 
-0.227632 -0.129506 -0.327969 
2.58638e-17 9.16734e-19 1 

-0.0790133 0.120306 0.085385 
-0.114292 0.00404881 -0.121982 
-1.31693e-19 -5.14263e-18 1 

-0.244193 -0.239602 -1.99647 
0.782533 0.245051 0.395133 
-9.23227e-18 3.39916e-18 1 

-0.18064 0.0547869 1.10478 
-0.0472068 0.0371438 -0.139524 
7.13789e-18 -2.38159e-18 1 

-0.122007 -0.0326466 -0.0158097 
-0.0540553 -0.135312 -0.0594549 
4.62633e-19 -1.2279e-17 1 

-0.176521 0.0255713 -0.330695 
-0.11695 -0.0173069 0.0974159 
1.68336e-17 -4.55454e-19 1 

-0.383782 0.311382 -0.389124 
-0.0917056 0.179095 0.443864 
2.17877e-18 -2.61453e-17 1 

-0.0485046 0.411455 0.263268 
-0.452848 0.181774 -0.315759 
-2.82147e-18 2.73918e-18 1 

-0.218483 0.0727185 -0.405214 
0.159771 -0.00284665 0.0335499 
1.72788e-17 1.67136e-17 1 

-2.66554 0.781579 4.62787 
1.61677 -0.342059 -3.24038 
-5.72233e-18 -3.55227e-19 1 

-0.0508883 -0.0381611 0.82953 
0.0282891 0.0270817 0.305912 
-1.22531e-17 -1.02174e-17 1 

-0.181343 0.182639 -0.26146 
-0.0592343 0.109993 -1.31092 
-9.04417e-18 1.33476e-18 1 

-1.29946 1.3338 -0.458167 
-0.920334 0.715512 -0.642249 
1.00374e-17 5.5837e-18 1 

-0.504163 0.013913 0.382083 
0.0355799 0.252987 -1.40944 
-4.52359e-18 -1.55334e-18 1 

-0.0635267 -0.0422581 -0.0905188 
-0.00207903 0.0159405 -0.142265 
-1.09748e-18 6.14502e-18 1 

-0.952865 -0.386067 1.10215 
0.365102 0.480304 -0.435194 
2.05383e-17 2.6912e-18 1 

-0.108762 -0.0672572 0.175283 
0.145024 0.0153719 -0.976588 
2.48504e-18 1.24583e-18 1 

-0.400482 0.0410089 -0.30691 
0.228453 0.106512 -0.117863 
9.96379e-18 7.23178e-19 1 

-0.0929371 -0.105289 0.239812 
0.163466 -0.0589496 0.062183 
-7.72248e-18 3.70169e-18 1 

-0.304462 0.038428 4.14258 
0.0193545 -0.00569988 -2.59875 
-6.68841e-18 3.42996e-18 1 

-0.101994 0.0573559 -0.02801 
-0.0290723 -0.00188215 0.0362595 
5.97702e-19 5.2077e-19 1 

0.0109267 -0.325247 -0.0707955 
0.556747 0.0136448 -0.539477 
-6.54491e-18 1.35412e-18 1 

-0.0876155 -0.0748859 -0.855795 
0.0524541 -0.00584249 0.39717 
-1.78752e-18 -1.05464e-17 1 

-0.0833962 0.0392433 0.0270274 
-0.0552857 -0.0297095 -0.0831916 
1.67301e-17 3.57996e-18 1 

-0.137614 -0.83933 0.458082 
0.370311 0.242748 -0.500797 
-5.29372e-18 -1.14019e-17 1 

-0.438465 0.422272 0.766891 
-0.274335 -0.00351254 -0.132555 
5.66384e-18 1.22292e-17 1 

-0.143296 0.0361942 0.296379 
-0.108069 -0.0617832 0.097353 
8.07321e-18 -1.30546e-17 1 

-0.249599 -0.193327 0.10744 
0.0281478 0.0192717 -3.71931 
-5.49855e-18 -2.97219e-18 1 

-0.058775 -0.0244327 -0.197882 
0.11244 0.0340876 -0.229468 
4.59833e-18 -4.26988e-18 1 

-0.15073 0.0151789 -0.314423 
0.00663481 -0.00998293 2.14485 
-2.42871e-18 4.19507e-18 1 

-0.173908 0.0538232 0.183722 
-0.0348563 -0.0459393 -0.388482 
-5.60385e-19 2.29758e-17 1 

-0.187568 -0.047561 1.03679 
-0.00509682 -0.0168467 -0.492623 
-6.60443e-18 -5.135e-18 1 

-0.143903 0.0492842 -0.340696 
-0.0265181 -0.00614713 -0.327256 
-7.4978e-18 2.7804e-18 1 

-0.115793 0.0716987 0.136688 
-0.0923092 -0.0945934 1.58807 
7.71948e-18 1.70139e-17 1 

-0.58787 -0.699775 -1.06549 
-0.351436 0.247424 -0.130335 
-1.49132e-17 8.94794e-19 1 

-0.506899 -0.0576369 2.23451 
0.00490264 0.182633 -0.147843 
-6.14944e-18 -2.71299e-18 1 

-0.109167 0.051388 1.14596 
-0.0385193 -0.0102527 -1.86359 
-4.28396e-18 2.0337e-18 1 

-4.31822 -0.301446 -21.6548 
1.8982 1.42666 14.8064 
-1.05009e-17 7.40605e-18 1 

-0.870937 -0.255041 -1.06543 
0.305219 0.127609 -0.127764 
-1.64003e-17 -1.88016e-17 1 

-0.438384 0.262686 -21.2547 
0.291798 0.466823 -10.2176 
2.92432e-20 1.66646e-18 1 

-0.718091 -0.0508142 -1.92391 
0.681352 0.108229 -0.969971 
-1.97428e-17 -2.13667e-18 1 

-0.0544613 -0.863409 1.78378 
0.0479989 0.23443 0.254923 
-1.99935e-18 -1.07955e-17 1 

-0.598149 -0.280647 8.33275 
0.254581 0.394674 20.3967 
-1.5436e-18 -4.6158e-18 1 

-0.36963 -0.0320369 -2.24578 
-0.0837846 0.153519 0.880663 
-7.81768e-18 1.45445e-18 1 

-1.91875 -0.176432 0.460774 
-0.351646 0.398489 0.189526 
-5.15766e-18 9.67062e-18 1 

-0.0439454 0.0352044 -0.0110629 
-0.00999121 -0.0800638 0.117533 
-5.0775e-18 -1.30649e-18 1 

-0.122623 -0.00393253 0.0697367 
-0.00741481 -0.0120551 -0.0420264 
1.19908e-18 6.61819e-18 1 

-0.100829 -0.0523539 0.0157822 
0.0170398 -0.0821973 0.351558 
-9.15938e-18 1.04907e-17 1 

-0.22296 -0.0967102 0.295771 
0.018906 -0.0123291 -0.399815 
9.1316e-18 -1.18888e-18 1 

-0.113681 -0.0104084 0.346833 
0.00153607 -0.0460637 0.0676955 
7.26611e-18 -3.37009e-18 1 

-0.0826606 0.0241027 0.0356397 
0.058493 -0.0154564 -0.0224711 
-3.26148e-18 -2.00445e-17 1 

-0.195317 -0.216719 -0.988065 
0.097806 0.0636677 0.541314 
-3.74404e-18 2.06568e-18 1 

-0.347334 -0.350503 -0.612872 
0.0517932 0.0836568 -0.554317 
-2.33169e-18 4.66337e-18 1 

-0.122087 -0.533344 -0.0778424 
0.666379 0.328446 0.107158 
1.57054e-17 1.09589e-17 1 

-0.120086 -0.0744363 -0.0961013 
-0.105775 -0.00821453 1.6356 
9.60018e-18 7.95015e-18 1 

0.4893 -0.905576 -0.3012 
0.97725 0.592056 -0.181346 
-4.96612e-18 -1.20798e-17 1 

-0.139396 0.0254877 -0.0068036 
-0.00958774 -0.0399733 -0.129302 
6.76419e-18 6.27403e-18 1 

-0.230528 0.188748 -0.865419 
-0.175752 0.115398 -0.549784 
1.12074e-17 -6.73063e-18 1 

-0.180002 -0.0298991 -0.0519923 
0.000293887 -0.0990234 -0.0388335 
4.39626e-18 -4.13766e-18 1 

-0.171512 -0.0587275 -1.20991 
-0.0464201 -0.0252447 -0.52878 
-1.29994e-17 -2.8849e-18 1 

-0.986143 0.373493 -0.223004 
-0.139426 0.345259 -0.660308 
-7.79562e-18 -1.04591e-17 1 

-0.341861 -0.251524 0.0317334 
-0.0800453 0.0886964 -0.0415465 
-3.1004e-18 1.0292e-17 1 

-0.124566 -0.0179487 0.69262 
0.0541172 -0.0461941 -1.01745 
-1.72098e-18 -4.57286e-18 1 

-0.293365 -0.378806 0.289022 
0.150849 0.0232859 -0.574299 
-5.00878e-19 8.05959e-18 1 

-0.165947 -0.0506516 0.0321596 
0.0325843 -0.0310161 0.0803596 
-7.22216e-18 1.78369e-17 1 

-0.129215 -0.0438938 0.436565 
-0.0453757 -0.0118051 0.145575 
4.63653e-19 -3.28316e-18 1 

-2.22147 2.87375 -12.3001 
-0.323013 0.623117 -1.8425 
-7.42489e-18 -1.8255e-18 1 

-0.148517 -0.0365241 -2.30653 
-0.0703323 -0.00680496 5.69183 
7.96163e-18 -2.96169e-18 1 

-1.47585 0.277517 -1.66139 
0.247773 0.600943 0.572229 
-7.42081e-18 -1.48416e-17 1 

-3.54693 0.249956 -30.6566 
-0.81914 0.186066 -5.99542 
3.85101e-18 -6.55194e-18 1 

-0.172884 -0.0754822 -0.142812 
0.119838 -0.0172591 0.00444341 
-1.07888e-17 5.73689e-18 1 

-2.60786 -0.406889 -1.60776 
-0.134558 0.61193 -0.913371 
-2.59657e-17 3.82317e-18 1 

-1.52059 -0.26418 -24.6166 
0.0445551 0.506924 -7.12644 
6.6755e-18 -9.83179e-18 1 

-1.76533 1.49151 0.46725 
0.157174 0.195669 -0.297149 
4.61392e-18 -3.79482e-18 1 

-0.112298 0.0721867 -0.231057 
-0.0741504 0.0364206 -0.165013 
2.46971e-18 1.2623e-17 1 

-0.274291 0.0322225 -0.175537 
-0.0332901 -0.066812 -0.19325 
-1.79173e-17 -3.43949e-18 1 

-0.194253 0.19136 -0.37705 
0.023698 0.15978 -0.391356 
1.21409e-18 -3.3818e-17 1 

-0.203255 0.0303852 -0.045625 
-0.150943 -0.0311935 0.177062 
-1.41501e-18 3.58469e-18 1 

-0.317746 -0.737745 -0.697975 
0.661149 0.562659 0.533677 
-1.99532e-18 6.50567e-18 1 

-0.281717 -0.162188 0.301022 
-0.012326 0.0212548 0.597066 
1.45228e-17 -1.35382e-18 1 

-0.125642 0.0267969 0.0305182 
-0.0550419 -0.0136525 0.0793541 
-9.05772e-18 -1.01576e-17 1 

-0.491336 0.506528 -0.281655 
-0.29574 0.189223 0.0718699 
-1.17651e-18 1.91467e-18 1 

-0.882497 -0.109929 0.834414 
0.103416 0.684926 0.674824 
1.29576e-17 8.4033e-19 1 

-0.356655 -0.0342717 -0.279245 
0.0358305 0.258473 -0.332445 
2.77746e-18 -1.92107e-18 1 

-0.329379 0.00251373 -0.452018 
0.196486 0.112565 -1.13438 
3.97165e-18 -6.73976e-18 1 

-0.0943323 -0.130762 -0.194179 
0.130772 0.0349593 0.0251025 
-2.65418e-18 1.20373e-17 1 

-0.104579 -0.0151785 -0.142582 
0.0232365 0.0115921 0.340081 
2.33351e-18 -7.54959e-18 1 

-1.4765 0.0775853 -6.36957 
0.233104 0.401633 -0.777253 
3.72687e-19 -3.79658e-18 1 

-0.0150543 -0.557045 -0.152395 
0.327106 0.155777 -0.278145 
6.39959e-18 -4.39758e-18 1 

-0.0504208 0.0293688 -0.266202 
-0.0460047 -0.0299578 -0.743836 
2.1968e-18 -3.67179e-18 1 

-0.204235 -0.067818 0.103411 
0.0130037 -0.0259254 -1.24545 
1.27779e-17 3.53302e-18 1 

-0.0989762 0.00897509 -0.00922326 
0.116758 -0.0855484 0.452271 
5.43635e-18 2.94981e-17 1 

-0.139021 0.0467213 -0.803466 
-0.0414338 0.0637086 2.26646 
5.06549e-18 -1.35755e-18 1 

-0.299224 -0.305829 -1.53067 
0.0272264 0.133821 -1.4394 
-8.1112e-19 -9.55566e-19 1 

-0.345842 0.124587 -1.17426 
0.00705673 0.243692 -0.214025 
-1.15089e-18 -8.05021e-18 1 

-0.134266 0.0299551 0.0953399 
-0.000262125 -0.117945 -0.150262 
-7.55126e-18 -7.26826e-17 1 

-0.339379 0.0113289 -6.32102 
0.0734429 0.0215986 -1.06262 
1.17902e-18 2.65511e-18 1 

-0.217482 0.455538 -23.2599 
-0.330871 -0.0159318 25.5073 
7.52078e-21 4.83727e-18 1 

-0.122316 -0.015005 -0.0691143 
-0.0160557 0.00861993 0.0470655 
2.27891e-17 8.93869e-18 1 

-0.212579 3.28279 166.851 
0.00815526 -0.0108299 -4.93625 
4.22863e-19 5.01384e-19 1 

-0.508859 0.722768 -0.386727 
0.467977 0.162399 0.399923 
-6.64639e-18 1.77533e-18 1 

-0.115978 0.0123824 -0.0631707 
-0.0138005 -0.0434197 0.0270406 
1.62616e-17 -9.48703e-18 1 

-0.136534 -0.0960564 0.927251 