# vtk DataFile Version 3.0
Output file generated by Yade's KinematicLocalisationAnalyser
ASCII
DATASET UNSTRUCTURED_GRID

POINTS 13483 float
408.192 57.9098 -0.483875
480.408 84.8364 0.462359
101.758 5.9545 -0.580039
510.035 5.45047 0.400683
363.09 11.0153 0.618293
252.318 49.4945 0.47528
135.82 7.25393 0.451668
387.94 44.0764 0.174341
360.9 27.9695 -0.176964
469.984 17.4401 -0.650752
178.695 9.11728 0.169964
210.929 7.93769 0.547931
442.134 72.7676 -0.179854
422.345 57.3883 -0.0749348
118.087 17.9555 0.549267
184.495 45.5638 -0.41081
185.847 12.9716 -0.298338
236.813 10.6827 0.724575
271.708 46.498 0.526507
383.232 7.97621 0.506194
309.387 53.2377 -0.136387
398.084 85.1697 -0.332792
505.774 50.16 0.525028
455.803 66.8457 -0.571725
343.577 25.8089 -0.392557
200.016 59.7836 0.124122
355.935 38.0712 0.514311
396.626 54.2224 -0.244416
38.3051 17.7585 -0.46462
460.189 35.5924 0.361166
351.588 6.11862 -0.495166
15.4319 25.5426 -0.392278
493.107 92.8613 -0.250109
358.56 2.29647 0.570196
67.0398 49.5354 0.113711
383.252 33.391 -0.388535
388.833 16.0468 0.555839
272.372 29.1191 0.209462
387.244 30.6664 -0.507218
276.81 52.3389 0.494638
200.818 20.7995 -0.487053
326.1 50.1434 0.101374
436.728 7.13701 0.204913
165.123 6.60575 0.46143
47.7576 8.10403 -0.101437
57.9408 9.31176 0.264664
446.911 14.0325 -0.575825
20.5686 12.322 0.305076
403.857 99.692 -0.300139
451.15 64.2681 0.325254
147.205 36.9114 0.447157
486.901 70.8477 0.165357
28.6801 31.7449 0.143793
392.253 2.66289 0.539527
122.96 7.73696 -0.558921
400.506 73.3461 -0.373848
366.892 31.3541 0.141432
153.471 0.94958 0.248589
29.5265 2.19345 -0.409383
277.984 22.1764 0.514553
413.312 97.8272 -0.132472
336.94 56.9388 0.180508
303.972 1.01759 0.251983
455.005 6.78145 0.603756
21.9301 50.1678 0.244613
214.395 39.3296 -0.296007
472.383 11.814 -0.276596
450.522 103.543 0.348787
317.044 9.12673 -0.637473
398.939 23.2906 -0.520838
477.361 52.4118 0.423003
111.951 7.7853 0.280011
362.278 31.1103 0.209159
350.056 22.3629 -0.163616
241.639 16.9485 -0.578039
18.1029 14.6929 0.265366
504.03 90.8825 0.325726
264.068 51.7708 -0.32061
437.352 27.7951 -0.478093
446.132 19.815 0.379168
498.692 14.8254 0.333549
339.016 57.3933 -0.170196
80.9227 43.1378 0.30714
456.595 77.963 -0.238812
439.403 84.8722 0.114137
512.526 51.0642 -0.145903
496.34 0.803496 -0.562793
237.976 32.4514 0.603563
417.582 27.5572 0.148096
22.0971 5.83263 -0.650454
113.567 41.8982 -0.155589
374.695 15.3975 0.209159
503.606 77.4835 -0.520704
169.416 33.6358 0.249877
37.3713 38.1373 0.287706
357.652 1.10795 -0.10796
197.868 13.9712 -0.524955
470.075 64.9575 0.334236
494.8 68.2713 0.279583
282.596 33.9288 -0.346087
141.776 28.679 -0.448
361.001 80.5699 0.394693
294.262 23.6501 -0.555163
309.937 45.236 0.197876
291.427 12.3075 0.371387
401.436 20.2675 0.116123
512.525 16.5798 0.232829
69.0058 44.6173 -0.464164
267.557 10.697 0.25509
383.476 41.5696 -0.410578
272.254 75.2023 0.164484
22.7789 29.3404 0.465678
27.8279 6.42231 -0.341596
380.815 71.9847 0.446553
369.547 27.3378 -0.221861
21.4252 43.4844 -0.423527
81.1146 34.5069 0.284023
260.378 23.3743 0.345796
406.139 44.9184 0.136982
349.665 56.2603 0.384016
484.479 19.4205 -0.593465
478.308 15.7815 0.174838
293.105 60.5163 -0.0969361
427.063 71.0547 0.133515
199.673 23.0273 0.664306
265.965 8.03082 0.603922
90.0248 34.765 -0.30326
99.9569 26.2223 0.265378
358.074 84.4453 0.0707417
246.308 26.2575 0.592566
455.978 41.6059 -0.178641
454.674 101.145 -0.102612
352.152 31.0271 0.49931
509.038 59.9767 0.248454
322.018 35.2091 -0.358622
227.95 28.2626 -0.38399
454.099 85.0497 -0.295672
233.51 38.1419 -0.518097
395.923 44.9165 0.195583
265.463 48.6595 0.207378
369.207 13.1899 -0.683642
285.52 49.7677 -0.0953228
320.96 24.3237 -0.1533
255.702 60.0523 -0.439732
166.006 34.2972 0.177418
485.033 85.9637 -0.166208
509.549 17.4697 -0.419039
5.73072 13.2558 -0.437329
325.225 31.6457 -0.449687
32.3377 26.1919 -0.10583
294.196 46.4131 0.500519
302.772 33.9341 -0.265894
64.2864 12.7875 0.499087
44.4645 35.9846 0.41899
190.831 21.2008 0.640137
411.662 86.5429 0.439892
393.98 58.9172 -0.598681
65.4439 23.8757 0.632802
458.586 64.2746 -0.597809
499.375 40.934 -0.703542
442.861 98.6824 -0.471506
451.203 2.75735 -0.683067
364.291 67.0923 0.384475
399.015 86.3179 0.527489
378.072 18.9673 -0.446527
507.332 3.91725 0.501211
187.877 32.668 0.136734
110.615 37.6078 -0.236567
208.073 11.9471 0.404399
80.5893 5.38505 0.346754
55.1193 12.1736 0.228633
231.549 46.7395 -0.291014
15.4625 27.5022 -0.43797
377.094 57.1198 0.424735
401.738 94.9002 0.189273
337.886 42.6982 0.378379
510.04 104.071 0.362918
312.501 11.1116 -0.183005
320.962 60.9981 -0.391409
399.73 3.21696 -0.379147
19.7605 27.3826 0.481308
403.558 22.4776 0.531343
404.621 7.83679 -0.52092
178.609 12.7819 0.614598
318.975 22.3 -0.300895
257.391 6.28398 0.560758
302.403 27.0835 -0.483897
465.249 59.1618 -0.125296
168.338 30.4557 -0.471497
490.453 6.15813 -0.535584
466.061 53.9224 -0.358703
298.804 14.6637 0.260457
471.212 2.23449 -0.691144
411.515 54.8617 -0.446781
482.735 39.3025 0.546348
311.704 69.8599 0.261384
366.199 16.366 0.53861
346.567 64.6696 0.28795
335.296 11.8196 0.322169
446.482 97.3869 0.25918
445.275 92.7758 -0.290084
160.822 50.2389 -0.330501
496.972 15.9489 -0.223432
382.961 88.7953 -0.241725
10.6996 18.1651 0.234682
307.287 40.2828 0.404655
163.502 27.8228 0.425221
81.3892 44.9132 -0.231804
504.407 73.9926 -0.405606
440.036 103.785 0.230322
258.431 35.0839 -0.467491
396.908 9.89551 0.56655
72.0403 49.0455 -0.209847
209.359 33.8684 -0.514144
374.704 63.1749 -0.32936
359.649 26.6277 0.488798
216.805 0.847425 -0.528898
371.424 81.305 -0.381232
352.403 85.0279 -0.441776
356.433 45.9692 -0.541658
367.14 2.47679 -0.640025
457.987 17.8683 0.735326
156.593 15.849 -0.159822
372.22 39.9673 0.607803
381.589 80.4137 0.107851
62.9859 0.973453 0.343518
208.725 5.8085 -0.251551
508.877 19.3379 0.213342
498.996 16.3944 -0.569946
513.934 24.2961 -0.625081
250.897 8.62224 -0.50934
483.096 45.0476 -0.444591
311.786 59.3208 0.393103
335.54 0.775098 0.616318
444.91 79.4554 -0.403841
22.8178 37.0042 -0.374756
266.042 54.6663 0.62642
209.592 4.24143 0.519558
497.387 92.8238 0.168149
473.328 93.551 -0.237059
238.24 12.9965 0.367366
448.021 80.7581 -0.0894482
412.544 2.60347 0.366711
400.977 12.4497 0.620438
84.4286 20.9489 -0.450776
250.868 0.863471 0.257829
274.428 2.52075 -0.441565
12.8509 8.0744 -0.611697
4.27668 32.5924 -0.329794
141.782 20.5604 0.361633
59.2296 45.8741 0.230176
57.8099 32.674 0.0478609
320.918 18.9076 -0.686994
285.477 67.0824 -0.45712
484.738 71.0678 -0.141118
17.9209 4.0552 0.288876
60.9827 7.48022 0.154756
420.128 84.4486 0.130599
243.732 2.32361 0.520255
287.02 28.8352 -0.0911223
200.138 10.1661 0.498178
444.296 60.4047 0.225674
337.389 8.62755 0.651885
485.548 46.8562 0.515756
426.115 74.262 -0.280765
437.844 25.9825 0.175482
318.898 38.6163 0.542845
90.3899 50.108 0.313528
362.61 87.1588 0.0528938
484.046 30.2651 0.339759
199.926 38.192 0.223738
27.0521 19.8632 -0.254761
272.139 19.1662 0.583335
95.2897 45.0748 -0.470079
225.311 53.285 0.186996
329.161 6.74623 -0.3369
504.366 85.9409 0.381692
446.463 2.22026 0.678067
268.361 7.55486 -0.607079
243.819 38.1925 -0.148701
344.539 62.5076 -0.266275
70.3489 9.33513 0.601147
165.938 57.0641 0.38592
495.315 71.7385 0.464225
369.289 43.2298 -0.14556
168.179 53.1617 -0.25887
138.493 45.8972 0.55519
513.61 44.8004 -0.536694
511.028 15.9329 -0.691904
412.165 20.7462 -0.475596
167.03 29.309 0.129015
366.337 69.1378 0.107194
368.294 68.6399 -0.266545
315.331 6.56152 0.128488
357.024 3.05051 0.331342
481.145 72.053 -0.540089
75.0776 35.2895 0.242331
430.646 41.759 -0.457469
227.348 17.1598 -0.662486
8.13278 2.70449 -0.436236
111.544 42.6644 -0.207278
58.5201 25.795 0.630472
452.419 43.3362 -0.405291
497.734 101.252 0.159826
162.212 33.3177 -0.197838
507.68 14.682 -0.40183
38.9002 39.5972 -0.297676
80.0519 32.8003 0.2414
430.61 53.6417 0.483459
313.367 29.6485 -0.481705
385.933 16.5342 0.162425
200.35 36.1781 0.197613
420.909 16.3192 0.535021
514.322 17.5839 0.59998
25.4979 37.838 0.334146
224.594 8.27 0.237747
188.386 20.7332 0.262994
1.04278 36.9737 -0.158088
191.361 21.6744 -0.587613
183.369 10.9941 0.174654
182.145 36.1054 0.291123
115.691 29.2323 0.208015
377.91 46.5278 -0.36056
146.882 15.963 -0.407242
492.079 89.631 0.22357
154.076 4.82172 0.663536
41.0818 40.8454 -0.482104
464.103 77.5324 -0.462194
233.632 36.7992 0.43729
438.056 51.2221 -0.662871
512.66 93.7584 0.476703
249.747 9.9239 0.250189
471.641 43.4722 -0.493576
266.74 2.51168 0.479608
315.01 35.9544 -0.427171
438.053 19.3658 0.727203
90.7892 13.4933 -0.595849
358.277 6.67953 -0.67293
487.914 47.5978 0.17877
76.1676 8.13349 -0.216809
234.024 16.585 0.177342
322.626 15.764 -0.517523
508.313 6.15264 0.570033
308.865 1.97409 -0.44975
154.493 43.7554 -0.296844
487.216 31.1518 -0.527581
112.426 38.5421 0.226107
223.016 40.2772 -0.463781
308.74 32.1006 -0.211957
398.025 47.1535 0.501693
301.167 12.6415 -0.608952
335.915 50.8264 -0.505292
481.927 84.5627 0.410141
41.4431 13.2306 -0.157525
243.52 51.6726 -0.2834
298.858 40.8326 -0.500653
314.01 26.5534 -0.265803
339.366 87.4116 0.356722
477.127 66.1206 0.220454
449.515 91.6597 0.373197
192.884 45.5376 -0.406426
12.4046 33.4244 -0.18438
443.652 94.0094 0.127542
333.673 75.7609 -0.441304
197.023 50.5382 -0.0927927
442.335 48.9949 -0.152974
133.212 9.7205 0.249415
288.163 36.8143 0.422049
346.487 62.5644 0.121193
313.547 31.5664 -0.216163
477.067 83.2744 -0.0285241
326.801 9.97379 0.627734
42.2479 28.3065 0.342352
348.024 48.9211 -0.361391
318.671 74.623 0.303053
498.248 86.6398 -0.234696
470.926 40.3191 0.357324
371.444 55.7585 -0.205941
491.319 81.352 0.448018
243.87 3.43872 -0.581091
287.489 54.1374 0.496882
24.4461 45.5501 -0.322493
472.381 45.87 -0.181968
417.542 47.1837 -0.490483
344.832 3.05959 0.640209
109.339 4.69804 -0.379481
325.071 54.4809 0.124605
10.3626 0.962582 0.468188
507.756 8.17002 0.385026
290.157 70.9063 -0.41016
416.903 32.2066 -0.367339
[...]
POINT_DATA 13483
TENSORS Strain_matrix float
-0.0174625 0.0549752 -0.0158899 
-0.0646198 0.015995 -0.349311 
-0.000399324 0.00216509 -0.010536 

-0.00949213 -0.00768605 0.106567 
0.0490208 0.0126801 -0.114235 
-0.0177141 0.00720543 0.00922846 

0.00188456 -0.0145415 -0.570447 
-0.0052372 -0.0327298 -0.894132 
-8.36638e-05 0.0117688 0.331015 

0.00349742 0.0272558 -0.00289537 
-0.0209386 0.0100426 -0.00563732 
0.000243498 0.00172053 -0.0118559 

-0.00359759 -0.00179165 0.0475138 
-0.0166724 0.00494189 0.0177701 
0.00096732 -0.000823277 -0.00860074 

-0.0595543 0.0713483 -0.782934 
-0.115382 0.0156461 1.37071 
0.02607 0.0232608 0.0436587 

-0.0211938 0.0194878 -0.270018 
0.0116759 0.0190935 -0.0604695 
0.00327402 -0.00410415 -0.00422712 

-0.00119513 0.0523614 0.169508 
0.0688868 -0.0316222 -0.0428362 
-0.0162278 -0.0360741 0.159411 

-0.00644644 0.0812861 -0.0145875 
-0.0474735 0.00430784 0.00877333 
-0.00026625 0.000545279 0.00198591 

-0.0174619 -0.126885 -0.293575 
0.043994 -0.0132454 -0.0658312 
-0.00228087 0.000356322 -0.0173922 

-0.207935 0.0419361 -0.0660477 
-0.198688 0.145068 0.0292387 
-0.0139486 0.0311757 0.137352 

-0.436363 0.255602 0.849804 
-0.264486 0.295935 0.930579 
-0.00367281 0.0129519 0.142296 

-0.021618 0.0668153 -0.07236 
-0.101836 0.0108649 0.0547842 
-0.000875737 0.00232542 0.0403461 

-0.00287012 0.010714 -0.00672941 
-0.0188744 -0.00284215 0.0142272 
0.00220809 0.00197538 0.0082617 

-0.00384092 0.00749 -0.00156258 
0.00811328 -0.00107957 0.0115623 
-0.00123062 -0.000159358 0.0220283 

-0.015562 -0.0528377 0.428569 
0.119212 0.0480535 0.536088 
0.00121993 -0.000733162 0.571037 

-0.119352 0.016489 0.114549 
0.0453367 -0.0150745 -0.101546 
0.00689809 -0.00255963 0.115178 

-0.0760675 -0.0226445 -3.66721 
0.0118283 0.0401071 5.81841 
0.00107728 0.00648109 -0.254646 

-0.0670666 0.0212438 -2.39768 
0.0175096 -0.0109143 -1.43867 
-0.0200189 0.0173505 0.281338 

0.00516816 0.00405262 0.0266046 
-0.00208729 -0.0173485 0.0298827 
-0.000306304 0.00126582 0.0132567 

0.0158701 0.111233 -0.0566265 
-0.145137 0.0220399 -0.174008 
0.00198315 0.0103557 -0.00743551 

-0.181911 0.190387 0.323785 
0.212271 0.0546496 -0.22935 
-0.00136637 0.0008066 0.0138337 

-5.74635e-05 -0.0327813 0.567033 
0.016492 -0.0519097 -0.203631 
-0.00953773 -0.00762551 -0.0953703 

-0.0955543 -0.0546771 -0.735342 
-0.0376865 -0.00401251 -0.18707 
-0.00789234 0.00665602 0.0690791 

-0.04394 0.0835596 0.0826816 
-0.190689 0.0711133 -0.451198 
0.00915749 -0.00876266 -0.102413 

-0.0195086 -1.3559 2.24302 
0.0467593 0.384169 -0.993593 
0.000322143 0.00596823 -0.0333499 

-0.0241666 0.0399538 0.0523214 
-0.0729092 0.000893139 0.0988662 
-0.000246024 0.000123289 -0.0191108 

0.0080595 0.03792 0.0257991 
-0.016473 0.00659297 -0.0451752 
-0.00372521 -0.0011209 -0.0155637 

-0.0234236 -0.0257966 0.0394721 
-0.0255447 0.00419198 -0.0500683 
-5.34198e-05 -0.000483084 0.0349057 

0.0120775 -0.0109115 0.0203018 
0.0129968 0.00168139 0.0298064 
-0.00182166 0.00111988 -0.0105456 

-0.0219409 0.0242864 0.0312534 
-0.035387 0.0280953 -0.0457492 
0.00210858 0.000438221 0.0114384 

-0.0914471 -0.0151382 0.0469025 
0.054197 0.0450332 0.110511 
0.0118696 -0.0974966 0.0370315 

0.00418725 0.00157698 0.0995747 
0.0242303 0.00395817 -0.0903069 
-0.000419287 -0.0001156 -0.0108213 

-0.00312063 0.00475174 0.00858758 
0.00257266 0.00332077 0.00661201 
0.00229076 -0.000618385 -0.0129095 

0.0100308 -0.0212163 0.0693405 
0.0324394 0.0156497 -0.128822 
0.0692256 0.11358 0.393174 

-0.211183 -0.706712 -0.906985 
0.319009 0.492597 0.0646313 
-0.00328395 -0.00777495 0.194225 

-0.0196694 -0.00795483 0.175564 
0.0206852 0.00262748 0.156397 
-4.725e-06 -0.000377202 -0.0143761 

-0.445067 -0.457679 0.75721 
0.148606 0.428359 -1.27888 
-0.0426787 0.0408586 0.433046 

-0.825569 -0.200987 0.369983 
0.184953 0.349993 0.718874 
-0.0247755 -0.0503432 0.0192068 

-0.261564 -0.224153 -6.40769 
0.0562027 0.147948 0.221462 
-0.0542065 0.0680236 0.971392 

-0.083745 -0.0760784 -0.364241 
0.177241 0.0513208 0.294785 
0.0210339 0.00529281 0.100897 

-0.0363071 0.0715523 -0.0283411 
-0.102661 -0.0107262 0.235783 
-0.00375941 0.00096818 0.0635621 

-0.0040246 0.0399161 0.010159 
-0.0606895 0.0400597 -0.00712844 
-0.00601765 -0.000637963 -0.0650319 

-0.0668267 -0.0647437 -0.0711604 
-0.00501877 0.0726069 -0.151005 
-0.00360924 -0.0430673 -0.124884 

-0.0289592 0.0664897 -0.0414327 
-0.127203 -0.000895651 -0.0295934 
0.00466501 0.0051241 0.0540111 

-0.0195794 0.0381773 0.009769 
-0.0220497 0.0163282 -0.0196271 
-0.00347958 -0.00293314 -0.00847555 

0.0449732 0.0763038 -0.00761737 
-0.0266717 -0.0276566 -0.0336432 
0.00155397 -0.0046838 -0.0149368 

-0.0358258 -0.052436 -0.0193382 
0.00401277 0.0544993 -0.0755261 
0.0101421 0.00158123 -0.0219648 

0.00530687 0.0166085 0.064567 
0.0150037 0.011781 -0.0235755 
-0.0181455 0.00411939 0.0647557 

-0.166015 0.0679564 0.219468 
-0.1441 0.0606076 0.0933766 
-0.0103783 -0.000787509 0.110944 

-0.149157 -0.072792 0.886145 
0.101723 0.0955158 -0.943068 
0.0118301 -0.00650128 0.10077 

-0.00344144 -0.0271656 0.0232242 
0.0253395 0.00105453 -0.00535346 
-0.000565641 0.00023918 0.00106103 

0.00627418 0.0130189 -0.0945305 
0.0245919 0.00169905 0.0677994 
-0.00321729 0.0105158 -0.077402 

0.00857768 -0.0137758 0.00714351 
-0.0195433 -0.0178291 -0.0154288 
-0.000217625 -0.000901469 0.00632397 

-0.00158001 0.00601249 -0.000844037 
0.00286298 -0.00265293 -0.00065009 
-5.51549e-06 0.000372528 0.00374795 

-0.0323316 -0.0355904 0.47387 
-0.00206292 0.023358 0.327903 
-0.0280275 0.0018874 0.72053 

-0.0140818 0.0788226 0.00326906 
-0.0224047 -0.000910042 0.0101104 
-0.000352561 0.00263946 0.0197594 

-0.0155365 -0.0139226 0.0345038 
0.00721684 -0.0313597 0.00750743 
-0.00246348 -0.00323876 0.0485751 

-0.0280921 -0.00486319 -0.100237 
-0.00693222 -0.0227172 -0.141277 
-0.00149281 -3.86543e-05 -0.0262005 

-0.300776 0.0264004 -1.28168 
0.0191571 0.222279 0.278383 
-0.0359112 0.00548463 0.152242 

-0.178543 0.0661957 0.410648 
-0.177537 0.0630035 0.0425841 
0.00530848 0.0700406 0.485547 

-0.00413698 0.0642758 -0.133121 
-0.0990833 -0.0115073 -0.018906 
-0.0165207 -0.0130249 0.313954 

-0.0369688 -0.12149 0.546667 
-0.000624056 0.0472411 -0.0612478 
-0.0127063 -0.0468425 0.0724179 

0.028649 0.0293192 0.432647 
-0.0176928 0.00218349 -0.570333 
0.00102207 0.000890366 0.0827249 

0.0176647 -0.021851 -0.0582912 
0.0442514 -0.00153578 -0.0745073 
0.00104834 -0.00190688 -0.00521318 

0.0195659 -0.0698692 -0.0243465 
0.0558068 -0.0135259 0.0116081 
0.00850601 -0.0060481 0.0191152 

-0.0269766 -0.068896 0.007063 
-0.00624408 0.0175698 0.0997456 
0.00896489 -0.0498837 0.0874083 

-0.0349164 -0.112471 -0.142007 
0.0253111 0.0898246 0.353073 
0.00178679 -0.0163709 0.0929531 

0.0210084 0.0370687 -0.918226 
-0.0221571 0.013018 -0.662145 
0.00179377 -0.00387432 0.15306 

-0.227228 -0.363186 1.85929 
0.0769037 0.342078 -1.52026 
0.00430063 -0.000387989 -0.0484591 

0.00265155 -0.00302173 -0.0253217 
0.0423426 0.0177313 0.0372201 
0.00636977 -0.0365833 -0.0895213 

-0.000246979 0.00522322 -0.00460123 
0.000476536 -0.00229318 0.00241443 
0.000294118 0.000345703 0.00508456 

-0.0219242 0.0667573 0.00124641 
-0.0400132 0.00769246 0.0061362 
-0.00233649 0.00158249 0.0273868 

-0.0370426 0.089623 -0.127523 
-0.0897716 0.0709628 0.355535 
-0.0221978 0.0121657 -0.067203 

-0.0663992 0.0118091 1.92163 
-0.0847611 -0.0126284 0.557959 
-0.0112564 -0.00716139 0.158598 

-0.018986 -0.0474979 -0.0431351 
0.0300025 0.00860543 0.00495969 
-0.000822763 0.00262717 0.022742 

-0.00267572 -0.0116956 -0.0408577 
0.0173516 -0.00189034 0.00641156 
-8.09933e-05 -0.00113596 -0.00715451 

-0.0124969 0.0411898 -0.127416 
-0.046327 -0.0395197 0.131036 
-0.0175298 0.0997403 0.721895 

-0.00607994 -0.0118068 -0.201356 
0.010991 -0.140712 -0.13529 
0.003243 -0.0362198 0.153761 

-0.00180453 -0.00200199 -0.0641129 
-0.0177708 0.000951727 0.033173 
-0.000388434 0.00421469 -0.00243498 

0.000853287 -0.024978 0.00448823 
0.0449686 -0.00212377 0.0319909 
-0.0052847 0.00160264 -0.00191677 

0.0142582 0.0784755 0.06193 
-0.109482 -0.0112005 0.105231 
0.0260655 -0.019353 0.671419 

-0.0626567 -0.0901993 0.0281174 
-0.0617845 0.0469394 -0.156384 
-0.000557518 -0.00342496 0.0607996 

-0.485883 0.170479 -1.88748 
-0.350919 0.36311 -0.583854 
-0.00259146 0.0040135 -0.145706 

-0.00865704 -0.000638852 -0.0772832 
-0.0259728 0.018588 -0.0119875 
0.00253137 -0.00355254 -0.0178138 

-0.0240679 0.00271506 -0.0854332 
-0.0399329 -0.00853991 -0.0728024 
0.00714211 -0.00530707 0.0489739 

0.0155452 0.346061 1.7964 
0.00115779 -0.0911733 -0.038038 
0.00765291 0.00182292 0.0219927 

-0.191092 0.0222367 -3.78515 
0.174426 0.141273 2.72953 
0.0200608 -0.0239527 0.243571 

0.0267737 0.0193646 0.0333026 
-0.0440106 -0.00595757 -0.0269923 
-0.0108894 0.00559194 -0.00606309 

-0.00616898 0.00188264 -0.376436 
0.00715745 0.0169027 -1.25318 
0.000489101 0.001376 0.418056 

-0.158035 0.0818889 -0.504436 
-0.0501936 0.18427 0.10346 
-0.000838046 0.00990673 0.0212051 

0.000636366 0.0131372 -0.00808186 
-0.00444416 -0.0124649 0.012686 
0.000191402 0.00127986 0.0188869 

-0.0122828 -0.0262341 0.613437 
0.0292196 0.00756614 0.094134 
-0.00155107 0.000198065 0.174909 

-0.0734074 0.0509653 0.0381111 
0.110951 0.131233 0.728851 
-0.0144701 -0.0461818 0.117881 

-0.0163149 -0.0121916 0.108217 
-0.0145213 0.00573535 -0.0598533 
0.000591362 0.00215558 -0.0190088 

-0.00112658 0.00659985 -0.00465567 
0.00268661 0.00139557 -0.00702625 
0.00522392 0.00398939 0.0117709 

-0.166731 -0.109577 -2.10421 
0.283045 0.16436 -0.266592 
0.0947302 0.016311 -0.476188 

-0.0106161 -0.0191219 -0.0037002 
0.0147092 0.00475352 0.00173167 
-0.00173447 0.000614185 0.0110529 

-0.00110326 -0.0216692 -0.00365688 
0.0174304 0.00188736 -0.0111204 
-2.16912e-05 -0.000479208 0.00518503 

-0.0173635 0.037559 -0.0411306 
-0.0193505 -0.0156392 -0.0513282 
0.00516729 0.000437344 0.0505518 

-0.0030776 0.016497 0.566287 
-0.00953347 0.00969051 -0.975659 
-0.0115532 -0.00499691 0.243939 

0.0222115 0.00933777 -0.538041 
-0.0322443 -0.00554706 -0.619503 
0.0217465 0.00513947 -0.176294 

-0.0120177 0.099246 -0.151828 
-0.151745 -0.0032953 -0.147533 
0.00185334 -0.00210365 0.00978102 

0.00112127 0.124532 -0.068091 
-0.19721 0.0139007 -0.0846272 
-0.00649098 -0.0616591 0.202627 

-0.180031 -0.0935785 0.577487 
0.125185 0.188362 -0.100238 
-0.148887 -0.0745929 0.756769 

-0.0874993 -0.224168 -0.715022 
0.428555 0.130465 0.082413 
0.0224503 0.0072535 -0.0504928 

-0.0158005 0.0172401 -0.0238613 
-0.0991725 -0.0149917 0.112965 
0.00018543 -0.000400699 0.0288296 

0.00300126 0.0118451 -0.159021 
-0.0232992 0.0111285 0.122252 
-0.000770648 0.00303046 0.0664141 

0.0227479 0.00713492 -0.0258686 
-0.0600153 0.0150852 0.0265166 
0.0287164 -0.00454243 -0.0355783 

-0.279896 -0.458774 -1.75504 
-0.0832394 0.290651 1.10506 
0.0770338 -0.0593501 0.0795861 

-0.573386 2.24044 -2.1378 
-0.0875671 1.07652 -1.98504 
-0.0451462 0.262234 -0.0359093 

-0.125785 -0.0270836 -0.0820975 
0.0746226 0.176619 0.0739033 
-0.0459477 -0.0207361 0.246395 

-0.06805 0.0580613 0.0595252 
-0.0105864 0.0850912 0.16951 
-0.0124376 0.00122909 -0.0482913 

-0.00357678 0.0258897 0.00851167 
-0.0202202 0.0111714 -0.0656903 
0.0015332 -0.00199954 -0.00212765 

-0.00759825 0.0733918 -0.0375909 
-0.0479989 0.0160902 0.0262797 
0.0104124 -0.00538338 -0.0256604 

-0.01669 -0.0237651 -0.162816 
0.0384355 0.0206682 0.00806149 
-0.00852907 -0.000396108 -0.127531 

-0.0173597 0.0354034 -0.030903 
-0.0519398 -0.0170598 -0.0458583 
-0.0039831 -0.00481495 0.0485994 

0.0211642 -0.0319761 0.0857738 
-0.0169721 -0.0289342 -0.00779161 
-0.0104435 -0.000927713 0.0635399 

0.00795109 -0.00801372 -0.108335 
-0.0786635 0.111185 0.268733 
0.0959056 -0.0360369 0.175316 

-0.0291071 0.0579232 0.193905 
-0.0518262 0.0523393 -0.186451 
-0.00295435 0.00305825 0.0385946 

0.0338996 -0.0622483 -0.0100799 
0.148665 -0.0577431 0.0245021 
0.00317756 0.0038061 -0.00243502 

-0.0715045 -0.075777 -0.128859 
0.163958 0.0879989 0.0419779 
-0.00393515 0.0151085 -0.0226959 

0.0593554 0.0248473 -0.284941 
-0.0679728 -0.022063 0.057807 
-0.00284673 0.00261776 -0.12638 

0.000973742 0.0382309 0.0105282 
-0.0305834 0.00323999 0.0156436 
0.00219557 -0.00390006 -0.0235478 

-0.171798 -0.0595916 0.748367 
0.0205674 0.0102646 -17.3296 
-0.00453808 -0.00619775 0.184717 

-0.493776 -0.52121 2.46462 
0.0164031 0.233465 -0.370981 
-0.0100917 0.015398 0.202822 

-0.0183984 0.0226504 0.0436462 
-0.0326317 0.00980258 -0.0217627 
0.00148645 -0.000282309 0.0278929 

-0.0188603 0.0266816 -0.0227869 
-0.0284692 0.00823839 0.00739092 
0.000457308 0.000932646 0.0159396 

0.000655706 0.0625445 -0.196225 
0.0310406 -0.00307865 0.130143 
-0.00542151 -0.00498093 -0.0289252 

-0.413172 -0.382028 0.280758 
0.399915 0.477376 -0.13288 
-0.0291866 0.041916 0.040716 

-0.000812747 0.0121998 0.00388856 
-0.0234104 0.0158831 -0.00247035 
-0.00162457 -0.000222285 -0.0102029 

0.0244408 -0.0418328 -0.0195836 
0.0673096 -0.0153024 -0.057806 
-0.0678413 -0.0189068 0.248428 

-0.054737 0.0704785 -0.033904 
-0.0940508 -0.007172 0.106023 
-0.0188033 0.0220336 -0.048439 

0.161528 -0.166542 -0.111167 
0.00717117 -0.0335206 -0.189889 
-0.0631221 0.0076264 0.0266625 

-0.148396 0.0737627 0.00798634 
-0.128709 0.0762525 0.147862 
0.015153 0.00870329 0.0886219 

-0.331776 0.102123 -2.33675 
-0.47402 0.237768 -2.74312 
0.00230374 0.016561 -0.0180896 

0.00780336 0.122999 -0.077709 
0.0709711 -0.0221116 -0.531435 
-0.0287648 -0.00201159 0.0708992 

-0.295345 0.746388 -1.06562 
-0.314789 0.560117 -2.89954 
-0.0306292 -0.00939581 0.236268 

-0.178566 0.0675568 0.145585 
-0.203985 0.217407 -0.000279755 
0.0113958 -0.00510877 -0.040975 

-0.027465 0.0371146 0.129517 
-0.0116543 -0.00416207 0.255372 
-0.0332272 -0.103373 0.272705 

0.000415603 0.00914416 -0.0727452 
-0.022291 -0.0128614 -0.0412275 
-0.00109645 -0.000302307 0.0108109 

-0.580616 0.361823 -1.38894 
-0.652698 0.628099 -1.5519 
0.0757298 -0.0256926 0.826775 

-0.129867 -0.0598524 -0.322371 
-0.0712521 0.251044 -0.557503 
-0.00571934 -0.0116481 0.0681406 

-0.285527 -0.271811 6.25646 
-0.153764 0.336799 -4.21142 
0.000110356 0.0160574 -0.214542 

-0.00216541 0.135811 -0.0480731 
-0.0472859 0.0134773 0.701341 
0.0179334 0.012736 0.0315648 

-0.00288518 -0.0384366 -0.00123057 
0.051017 0.0121807 -0.000226144 
-0.000377376 0.000476892 -0.012542 

-0.112769 -0.149413 0.0585484 
0.221186 0.125115 0.29138 
0.000820232 0.0176531 0.0294893 

-0.00886135 -0.0089905 0.0232976 
-0.0166018 0.000436898 -0.0920721 
-0.000177526 0.000215166 -0.00197339 

-0.00406234 0.0231455 -0.170596 
-0.0597342 0.0146418 0.0500161 
-0.00313488 0.00877218 0.042532 

-0.0105593 0.00583792 0.00405504 
0.0284165 -0.00474132 -0.0180565 
0.00114914 -0.00239102 0.0183422 

-0.593376 -0.51248 -4.0567 
0.382986 0.490815 2.79401 
0.00844898 -0.00553805 -0.173283 

-0.621591 -0.349749 0.681642 
0.559237 0.471653 -0.610878 
-0.0167935 0.0389516 0.14503 

-0.0258698 0.0415392 0.0854883 
-0.0370595 0.0108288 0.0235757 
-0.00268813 0.00745156 -0.0299997 

-0.00293777 -0.0156028 0.00334025 
-0.00456945 -0.00637571 -0.00291923 
-0.000497069 -0.000155973 0.00745091 

-0.370391 -0.176293 6.62407 
0.173661 0.173399 -5.06037 
-0.0136681 -0.0188556 0.18677 

0.00288409 0.0352586 0.148282 
-0.0460851 -0.00464411 -0.288027 
0.000984504 -0.00125494 0.051824 

-0.0326358 0.0210559 -0.113903 
-0.0224102 0.00353145 1.30604 
0.00235241 0.00297405 0.23051 

-0.0482319 -0.00498258 0.22075 
0.035754 0.0427457 -1.65659 
0.00280959 0.00345614 0.0244956 

-0.0294198 0.013599 -1.13695 
-0.00781282 0.0040481 -0.600827 
0.00102738 -0.000793127 -0.0450369 

-0.0428964 -0.0024894 -0.245117 
-0.0487896 0.0438957 1.77641 
-0.000901532 0.00213544 -0.242953 

-0.0410064 -0.03968 3.42897 
0.0588593 0.0436753 -2.91362 
0.000369276 -0.00505718 0.0282905 

0.0223911 0.0330843 0.221258 
0.00946385 -0.0253111 -5.60598 
0.00196393 0.00605749 0.403325 

-0.0282053 -0.0375308 -0.0796957 
-0.0449577 0.0513583 -0.410331 
0.00309661 -0.00200873 -0.0752251 

-0.0214021 0.121477 -0.339363 
-0.00798104 0.02886 0.303822 
-0.000311076 0.000205511 -0.219913 

-0.0123322 0.0142498 0.00626351 
0.0119244 -0.00411878 -0.0134261 
9.75233e-05 -0.000558804 0.0128125 

-0.00465106 0.0572403 -0.0165327 
-0.0401381 0.0449018 0.0259292 
-0.0116088 -0.00233188 -0.0325927 

-0.0270932 0.0173283 -0.327941 
-0.0160224 -0.00973265 -0.33034 
-0.0135626 0.00446628 0.116602 

-0.0634224 0.0463642 -0.127031 
-0.0605297 0.00436451 0.041025 
0.00715872 -0.0108886 0.0439182 

-0.671117 0.529774 0.103999 
-0.390815 0.451422 0.0892917 
-0.00508612 -0.0119679 0.367456 

-0.109384 -0.00924305 -0.00589229 
0.0594968 0.0924277 -0.920453 
0.0351592 -0.0269233 0.33956 

-0.066859 0.0660399 0.111251 
-0.066696 0.0870245 -0.0293496 
0.000149159 0.00750891 0.0386444 

-0.903634 -0.482812 1.53697 
0.0234542 0.265696 0.770212 
-0.121448 -0.0679073 0.874733 

-0.108279 0.0373705 0.0503101 
0.0742682 0.0637708 0.0942731 
0.0237562 0.0382553 0.167841 

-0.0565258 0.0180837 0.2143 
-0.140916 -0.0557577 0.674496 
-0.00582164 -0.0128311 0.164051 

-0.0207436 0.156307 -0.000212489 
-0.0899771 -0.00814752 0.068499 
0.0123848 0.00292974 0.112426 

0.0111327 0.0468159 -0.0385057 
-0.210236 -0.0154789 -0.0973768 
-0.0401843 -0.0445524 0.226599 

0.0115953 0.0139122 0.0720055 
-0.00645929 -0.00493459 -0.0318488 
-0.00232233 -0.000145482 -0.0214544 

0.00100064 0.0382967 0.0104751 
-0.0486261 -0.00967946 -0.00210831 
0.000297833 -0.000702076 0.0166105 

-0.12199 -0.113581 -0.613299 
-0.140642 0.0230445 0.104704 
-0.0533819 0.00704173 0.139609 

0.00656522 -0.00639561 0.00376268 
0.00701991 -0.0123798 0.0135076 
-0.00163456 -0.00239739 0.00865941 

0.0414313 0.113244 0.000460479 
-0.0317029 -0.0101931 0.00131247 
-0.00603377 0.00954935 -0.0255014 

-0.150526 -0.404145 1.06014 
0.325289 0.131013 -2.57208 
-0.0172672 0.000517577 0.0530103 

-0.0185749 -0.00957534 0.113343 
0.0987668 0.0428642 0.395721 
-0.00132982 -0.0082828 -0.0131624 

-0.127342 0.087156 -0.423134 
-0.113724 0.0954034 -0.374326 
0.00782527 -0.00280029 -0.148079 

-0.381219 -0.716379 -0.66791 
0.291967 0.860991 -0.909857 
-0.00660714 -0.00129813 -0.0110161 

-0.0471896 -0.0828168 -0.645366 
0.226014 0.0145527 -0.955925 
0.0293998 0.0111559 0.0414268 

0.0610924 -0.0191515 1.29028 
0.0141822 -0.00247603 -0.726142 
-0.000361145 0.0104966 0.0682029 

-0.0138118 -0.0122888 -0.00695831 
0.0201992 0.00487703 0.0103861 
3.50562e-05 -0.000341118 0.0054322 

-0.0161063 0.0201024 0.311538 
0.0403338 -0.0232007 -0.193643 
0.00240568 -0.0277251 0.577272 

0.0224175 -0.106497 -0.0421502 
0.0316353 0.00102462 0.210612 
0.000617153 0.00418175 0.0581216 

-0.0117856 -0.0109669 -0.00479445 
0.0231457 0.00318499 0.0183295 
0.000529389 0.000128094 0.00957557 

-0.00310028 0.0890875 -0.0506272 
-0.118907 0.0104177 -0.0217686 
-0.00310398 -0.00501176 0.00357103 

-0.0417019 0.14996 6.48527 
-0.0372965 0.123207 0.654099 
0.00307634 -0.0145392 -0.353622 

0.000124024 0.0449637 -0.0200643 
-0.032007 -0.0015562 -0.0207654 
-0.000381413 -0.000472381 0.00139624 

-0.00985415 -0.0529486 0.0340614 
0.00592091 -0.0243271 0.00655472 
-0.000967209 -0.00341208 0.0268257 

-0.0266021 0.302109 0.641669 
-0.168825 -0.0273157 -1.21615 
0.0129791 -0.00467233 0.246575 

0.00345232 0.0379425 -0.00169506 
-0.0376963 -0.00809234 0.011596 
0.00048103 -0.00299358 0.00940972 

0.0240502 -0.571799 -0.898959 
-0.0558223 0.274757 0.663173 
-0.0102955 -0.00241846 0.0367958 

-0.66598 0.468502 0.0778474 
-0.581125 0.738985 0.62617 
-0.00475897 -0.0536697 0.130837 

-0.0552897 0.00586314 0.145488 
0.111074 0.0263259 0.428248 
0.0159918 0.00166079 -0.144196 

-0.036473 -0.0681329 -0.0588013 
0.0938212 0.0138539 0.0704634 
-0.00199532 -0.00173932 0.021128 

-0.304495 -0.385217 -1.6021 
0.0709749 0.290765 3.79095 
-0.0829062 -0.019279 1.63121 

-0.0132207 -0.0372026 0.00579665 
0.0298494 -0.0140886 0.040626 
0.00299669 -0.00381607 0.0496843 
