# vtk DataFile Version 3.0
Output file generated by Yade's KinematicLocalisationAnalyser
ASCII
DATASET UNSTRUCTURED_GRID

POINTS 13483 float
615.649 28.2281 0.58608
765.534 70.9333 0.442979
120.442 6.07239 -0.468446
794.901 5.42762 0.446783
503.822 7.8336 -0.253599
316.53 35.0974 -0.467857
156.848 6.93891 0.44276
577.06 10.2532 0.155307
500.31 23.7358 -0.201564
733.281 11.3509 -0.576525
211.257 8.80911 -0.082056
258.314 6.30016 -0.257937
665.037 29.883 -0.2111
643.769 15.6828 0.0824072
137.585 17.2898 0.429348
222.189 34.7382 0.409384
218.599 12.9515 -0.286088
290.481 9.70407 0.396938
343.134 32.8062 -0.531584
529.168 8.56391 0.351979
413.836 36.7266 0.0980598
598.982 44.8188 0.284028
791.705 35.8078 -0.589418
711.217 45.969 -0.515046
462.831 16.3359 -0.351198
241.952 44.3994 0.138964
495.311 27.7632 -0.495575
594.353 19.9542 0.226286
45.2662 15.6278 -0.373065
727.687 30.2525 0.379532
486.798 5.04043 0.361746
16.5182 23.7405 -0.317985
779.767 73.5512 -0.252572
499.49 2.57239 0.471781
78.2567 44.7085 -0.107234
526.659 30.5158 0.432071
535.831 16.6513 0.426568
346.221 22.7119 -0.220446
539.135 25.5739 -0.317649
352.817 33.5653 0.479285
242.226 14.7094 -0.305658
437.63 35.5148 0.0777671
688.882 7.32111 0.151795
193.274 6.24243 0.34582
55.7126 7.00945 -0.127478
68.9993 8.95689 -0.30958
702.904 12.6423 -0.614847
23.3215 11.6775 -0.270567
620.098 45.7015 0.367506
689.472 28.8985 0.432231
173.285 32.4499 0.326348
767.657 55.4825 0.171024
35.0156 28.3032 0.116536
539.606 3.01048 0.324109
142.626 7.55578 -0.542836
602.585 34.4649 0.440526
508.63 27.1211 -0.173364
175.777 0.941264 -0.272225
32.6954 2.38366 -0.314759
351.351 17.934 0.272253
630.892 47.1612 -0.139265
466.113 33.9306 -0.187682
402.525 1.02744 0.1996
711.709 7.33459 0.517158
26.6032 43.4885 -0.235762
257.737 30.6217 0.285757
733.704 6.28124 -0.212765
680.448 50.1132 0.106783
421.032 8.634 -0.5158
577.807 3.64606 -0.358109
752.285 41.8027 0.384397
131.289 7.73385 0.280456
502.854 26.1323 0.171913
482.291 15.0737 -0.164863
296.677 16.7545 -0.346702
20.5613 13.6783 0.299627
789.997 68.7701 0.34139
335.351 38.9761 -0.299782
688.908 21.7064 -0.365323
702.755 16.349 -0.255418
781.625 13.689 0.361419
469.554 34.705 -0.166512
92.7799 38.9158 -0.275463
698.695 39.3559 -0.267828
661.467 41.7276 0.153207
799.25 43.3564 -0.135394
775.205 0.676229 -0.536101
293.382 28.7873 0.466557
633.177 6.92573 -0.107838
24.2839 5.27511 -0.56169
133.659 38.5673 -0.164867
518.381 14.8698 0.260722
786.44 56.3526 -0.508931
196.951 29.0136 -0.230956
44.5156 34.4359 0.309076
498.344 1.29983 0.124997
237.58 8.97635 -0.375373
748.647 53.5106 0.270629
774.624 50.4322 0.273312
364.881 21.2481 -0.264093
164.962 26.9679 -0.465723
557.814 38.5408 0.431664
383.903 15.6914 -0.443806
418.001 29.6726 -0.0907995
381.88 4.50181 0.404024
555.771 10.9779 -0.0957994
798.519 13.2878 0.163118
80.5464 39.6574 -0.396486
338.913 5.01417 -0.20619
570.436 9.57371 -0.367212
364.152 44.0036 0.451849
26.0437 25.2879 -0.500084
30.3797 5.77659 -0.328381
578.734 32.2435 -0.23518
511.437 24.6397 0.138838
26.5469 37.3475 -0.431519
93.8609 30.9721 0.229605
328.669 16.0271 -0.277676
612.346 18.9581 -0.144063
481.799 38.3778 0.310556
751.43 9.31745 -0.501936
743.657 6.41691 -0.182293
391.851 37.2578 -0.10572
649.981 26.846 0.126315
240.701 17.1451 0.4916
334.281 3.89076 0.456186
104.359 31.7344 0.378625
117.524 24.5189 0.295362
553.048 38.7946 -0.096083
309.914 18.931 0.458774
725.354 35.5334 0.181295
684.798 48.1432 0.114984
487.801 20.6612 -0.439651
785.901 38.9287 0.251921
434.913 23.3251 -0.246812
280.037 24.4112 0.295106
687.908 36.0236 -0.28945
282.366 28.4459 -0.440047
588.636 12.1974 -0.198417
336.489 35.6947 0.207267
512.901 11.3489 0.480396
371.98 31.7188 0.0913421
437.03 16.7551 -0.109061
322.597 42.1147 0.429782
193.127 30.0364 0.136194
770.153 70.0828 -0.16022
794.576 13.6485 -0.329988
6.07523 12.5474 -0.486877
441.13 22.4036 -0.425621
38.5731 22.6427 -0.0918258
382.197 31.3547 -0.300221
401.224 24.9972 0.258678
76.0171 12.0896 0.498454
52.3656 33.306 0.422717
228.93 13.5804 0.419554
632.631 39.2494 0.500657
590.787 21.0854 -0.49925
75.904 21.1609 0.440546
714.131 48.3088 -0.500922
772.316 23.1696 -0.503145
674.504 45.0369 -0.479217
707.281 3.73996 -0.589281
561.963 26.6691 0.428448
600.414 45.5995 -0.450619
521.962 18.2347 -0.410436
792.768 3.13162 -0.167575
226.719 24.9413 0.149703
129.544 35.6049 0.228395
251.162 6.51162 0.388817
95.6228 4.44108 0.281411
65.3517 10.1158 0.199564
280.404 36.0039 0.332239
16.6329 25.4913 0.405903
568.05 19.4645 -0.406654
619.665 40.6158 0.24257
471.659 21.3242 -0.39004
798.094 79.5443 0.366326
414.128 8.65005 -0.110598
444.089 36.1401 -0.399005
548.167 3.40671 -0.197465
23.2018 24.2609 -0.396395
590.979 4.47407 0.484743
558.035 4.35144 -0.315212
209.468 11.2746 0.490882
433.173 16.5479 -0.201919
316.988 6.31156 0.362585
395.354 19.1221 -0.32186
739.733 49.123 0.137997
195.456 25.957 -0.443072
770.247 6.51969 -0.409109
739.808 43.8084 -0.361037
390.527 10.2672 -0.156936
731.173 2.30165 0.452205
619.645 26.3499 -0.469626
754.038 26.9208 0.392234
439.029 43.2976 0.262637
507.285 12.7592 0.384405
474.642 44.3805 -0.230006
454.706 8.64191 0.121291
677.732 43.0777 -0.268303
675.927 38.7773 -0.387922
195.444 39.3617 -0.363486
779.742 14.2517 -0.172455
602.067 45.8351 0.247957
11.6646 16.787 0.228143
415.325 25.305 0.3944
190.491 23.3865 0.396639
94.4994 39.7971 -0.215842
785.991 53.0154 -0.410017
673.672 50.7696 -0.274808
325.332 25.5954 -0.380602
545.07 10.2627 0.313908
83.3663 44.9656 -0.167618
252.056 25.9729 -0.501427
570.72 23.7637 0.390796
497.527 18.8078 -0.413536
267.749 0.886768 -0.345814
567.262 39.8218 -0.383344
546.427 40.949 -0.474005
492.274 33.3499 -0.146868
510.405 0.887648 -0.569161
717.9 18.7097 0.404732
182.618 12.4255 -0.20097
511.58 36.8299 0.463102
579.614 39.8813 0.13564
74.3248 0.972097 0.276901
256.514 4.7215 0.18452
793.571 15.4333 0.173419
782.024 15.2571 -0.604512
800.468 19.464 -0.707589
309.499 8.59854 -0.231801
756.213 32.518 -0.40757
415.674 41.4601 -0.311035
458.938 0.8051 -0.408406
666.873 37.0265 0.52532
27.559 30.9259 0.297802
337.383 41.6472 0.579754
257.367 2.85866 0.339667
783.847 72.2369 -0.186641
723.044 57.029 0.226982
293.035 11.0454 0.242767
682.001 31.0002 -0.129373
572.326 2.54125 0.280102
555.806 6.50716 0.441044
98.367 18.5185 -0.498565
309.375 1.03602 -0.226941
350.249 2.2494 -0.369492
14.0362 7.61617 -0.455752
4.55088 31.1394 -0.270118
164.64 19.1342 0.40071
69.3182 41.9605 0.219562
67.7375 29.057 0.378913
432.844 14.6684 -0.440846
374.941 35.1861 0.475674
765.697 56.3994 -0.162629
19.6617 4.02566 0.269461
72.0454 6.9842 0.134609
642.032 38.424 -0.193041
300.621 0.919619 0.36736
372.814 16.3961 -0.0942022
240.163 4.7262 -0.389471
670.651 21.5211 -0.230462
462.142 8.32106 0.431955
758.975 33.6489 0.477256
649.408 30.2918 0.390904
687.66 20.094 -0.102487
429.664 26.528 0.546735
104.025 45.062 0.320595
556.702 42.3355 0.076289
752.26 18.6101 0.219514
242.537 30.5924 -0.268178
32.522 17.2882 -0.213981
343.763 13.8861 0.509722
109.637 40.7294 -0.462183
273.238 42.312 -0.214221
435.191 1.61992 -0.315586
789.798 63.796 0.363451
702.404 2.24036 0.626219
339.427 3.46364 0.563971
306.484 26.5067 -0.156229
473.613 41.2102 0.225181
83.1867 8.32113 0.462039
201.449 45.4864 0.377777
776.211 53.637 0.400642
506.733 39.3596 -0.0850949
203.958 41.5893 -0.2946
163.898 42.6845 0.344445
800.442 37.2585 -0.58922
796.856 13.6837 -0.578717
624.257 3.15877 -0.632162
194.13 24.8305 0.109907
563.754 27.5812 0.115146
565.761 27.3582 -0.27689
418.708 5.68959 -0.140553
493.314 0.944961 0.374338
762.311 58.79 -0.547488
86.5901 31.4118 0.219282
675.225 19.0655 -0.444851
280.206 15.5861 -0.359034
9.53106 2.34927 0.34559
128.176 37.4935 -0.202997
68.2635 23.3812 0.527485
720.37 38.0734 -0.412356
786.022 79.9231 0.166051
189.328 28.6804 -0.194021
790.892 12.3314 -0.359617
46.0152 36.6254 -0.265842
92.7128 29.3121 0.186949
653.398 13.3675 0.385197
423.124 18.5368 -0.508929
532.539 16.6604 0.123161
243.057 28.584 -0.183554
640.131 4.31541 0.493595
801.117 14.0907 0.501026
30.2324 31.9693 0.295184
276.018 7.74121 0.196724
226.577 15.2286 0.255724
1.06806 35.7012 -0.148744
229.91 14.6321 -0.36629
216.128 11.0516 -0.102558
218.616 26.5182 -0.275912
135.579 27.9899 0.15666
562.394 15.0892 -0.36443
170.414 14.1954 -0.362169
778.043 70.6795 0.241736
177.776 3.8184 0.512073
48.3537 37.6246 -0.426953
738.257 59.2708 -0.443232
287.356 31.3541 -0.378641
693.946 27.5549 -0.519774
799.502 68.15 0.463747
307.538 9.21146 -0.106993
744.039 34.6446 -0.466141
336.358 2.5239 -0.417887
426.075 24.0957 0.344974
692.49 17.0319 0.484118
107.585 11.9548 -0.477484
495.179 3.82859 -0.554512
761.663 33.5461 0.218294
90.0762 7.72414 -0.22881
287.967 14.8153 0.202608
433.631 11.8503 -0.206376
791.267 3.87347 0.602641
407.513 1.99683 -0.528969
180.534 39.0212 -0.29248
755.642 18.2867 -0.51039
131.347 36.63 -0.218627
268.871 31.4404 -0.387751
410.056 21.7489 0.22008
591.071 14.1022 -0.318919
396.371 9.78864 -0.501845
468.002 27.8895 -0.34551
766.74 69.9634 0.451887
48.4545 11.0843 -0.112674
306.202 38.5756 -0.256326
388.805 27.1523 0.347329
419.611 21.0838 0.250634
534.669 44.3769 0.356409
756.785 54.6935 0.218612
680.735 38.4768 0.361453
230.78 34.3688 -0.377606
14.0341 31.8706 0.154954
674.572 40.3499 0.140304
522.214 41.4044 0.451953
234.456 39.518 0.115113
700.768 35.2789 0.131776
154.131 9.33708 0.225151
375.367 21.5539 0.342442
475.379 42.3341 0.1048
424.095 19.8588 0.231061
761.522 70.678 -0.290843
436.681 3.87359 0.515784
50.679 25.2373 -0.284481
482.142 32.0242 0.331037
445.439 42.2577 0.363265
783.325 66.1929 -0.248599
742.129 32.0591 0.27439
556.026 18.4851 -0.20127
774.939 63.601 0.439553
300.177 2.20515 -0.463695
387.491 29.589 0.503247
29.6791 39.0901 -0.329714
745.523 36.67 -0.174338
627.907 20.4386 0.531848
475.04 0.775385 -0.472821
128.665 4.58557 -0.312088
437.219 40.0236 0.122546
11.9597 0.910165 -0.316493
790.599 6.21845 0.252281
379.195 39.3861 -0.435994
[...]
POINT_DATA 13483
TENSORS Strain_matrix float
-0.101906 -0.00560332 0.686665 
0.0522711 0.060087 -1.70828 
0.000640885 -0.000537138 -0.025612 

0.0787235 -0.420282 -1.45182 
0.121114 0.0803684 1.01401 
0.00534996 0.0328507 -0.366263 

-0.0121261 -0.00410013 0.0656994 
0.0024436 0.00502362 0.300748 
-0.000402707 0.000511849 0.235144 

-0.195806 0.0762349 -0.436508 
0.152148 0.137722 0.464889 
0.0220601 0.00317008 0.0729902 

-0.0605314 -0.0187321 -0.00590568 
0.00632375 0.0249752 -0.0605667 
0.00769182 -0.00472985 0.0470304 

-0.0128697 -0.00710897 0.0428573 
0.00330487 0.00355845 0.00376569 
-0.000540743 0.00251772 -0.00668826 

-0.0130441 0.0188933 -0.0203371 
-0.00620306 0.00520913 0.0197227 
-0.00749243 -0.00140355 0.422116 

-0.0138404 0.00937592 -0.00573709 
-0.015213 -0.0049353 -0.0134697 
-0.00344475 -0.00131577 0.0365234 

-0.0157383 -0.022025 -0.0405747 
0.0177224 0.0148945 0.0352916 
0.0111042 0.0232322 0.130587 

-0.0535754 -0.0409509 2.84252 
0.02201 0.00456875 1.33199 
-0.00146988 0.000587656 0.304381 

-0.00536763 -0.000835098 0.00721849 
0.000953536 -6.00426e-05 0.00278484 
-6.76098e-05 -0.000171292 0.0113577 

-0.00732949 -0.00736544 0.00758815 
0.0141848 0.000137221 0.00204897 
0.00103281 0.000237027 0.00585406 

-0.0358319 0.00661638 -0.101088 
-0.0223837 0.0506337 -0.186643 
0.00572977 0.00025356 0.0928829 

-0.0391582 -0.0166447 0.00832659 
0.0155109 -0.010471 -0.062836 
-0.0109401 -0.0430415 0.130884 

-0.0174691 -0.00876724 0.00153867 
0.00843122 0.000980467 -0.0170743 
-1.83545e-05 0.000196334 0.0287208 

-0.00794595 -0.00139082 -0.00106068 
0.00259028 0.00139567 -0.079029 
-0.00200977 0.000416622 -0.0167205 

-0.00944855 -0.000759911 -0.0110058 
0.00201475 0.00577965 0.0360876 
0.00087415 -0.00238079 0.00999722 

-0.0139559 -0.00115019 0.00800843 
-0.00200438 0.00343888 -0.0124817 
5.61665e-05 0.000451162 0.0158352 

-0.0127696 -0.000474244 -0.120749 
0.00272958 0.00212 -0.0867006 
-0.000567973 0.000603546 0.03372 

-0.0126373 0.015459 -0.0384865 
-0.0291083 0.0102892 0.16074 
-0.0169051 0.0110858 -0.00243375 

-0.00384286 0.00263439 0.00178979 
0.00327399 1.60339e-05 -0.00317664 
0.000282803 -5.5855e-05 0.00946717 

-0.059161 0.0373528 -0.122652 
-0.0367733 0.0864657 -0.0383805 
0.00779434 0.122497 0.297817 

-0.332096 0.206288 -19.854 
-0.386478 0.121555 -21.4794 
-0.016148 -0.0560708 -0.810702 

-0.0155619 -0.192436 29.2301 
-0.146459 -0.126522 12.4552 
-0.00923271 -0.0188244 0.335758 

-0.0304183 -0.00780407 0.196847 
-0.0145398 0.0243533 -0.0507913 
-0.00607204 -0.00619107 -0.00406704 

-0.0203042 -0.00971863 0.016955 
0.00844971 0.00724111 -0.0322264 
0.00558929 -0.00153364 0.0207548 

-0.02842 -0.0148378 0.0191487 
0.0175656 0.0117503 -0.0429792 
-0.0012652 -0.000304884 0.0962423 

-0.0185781 0.0049792 -0.0851985 
0.00502591 0.0084316 -0.0244134 
0.0286129 0.0363262 0.111088 

-0.00894923 0.00543709 0.0362851 
-0.00242365 0.00498023 -0.0348328 
-0.000789765 -0.000796032 -0.00109662 

-0.0640886 -0.112982 -0.245089 
-0.063403 -0.0650728 0.614648 
-0.0330302 0.0185528 0.131585 

-0.0250663 0.0115189 -0.0875668 
-0.117019 -0.0061415 0.00517134 
-0.0797395 -0.0398849 0.42463 

-0.0208839 -0.0242262 -0.0197571 
0.015171 0.0101853 0.0294002 
-0.000521347 0.00287169 0.0259562 

-0.015897 -0.281223 0.099202 
0.159172 -0.00195754 -0.541636 
-0.00719186 -0.00351573 0.0625556 

-0.0125827 0.0284728 -0.0244018 
-0.0247694 0.00261896 0.0965127 
-0.00715913 -0.0399647 0.196148 

-0.00340336 -0.0122179 0.0356581 
0.0108414 0.0015325 -0.00200361 
0.000251885 0.000694745 0.00735583 

-0.0460581 0.0329244 -0.0589853 
-0.0411322 0.0327853 -0.185171 
0.0014276 -0.000844041 0.0630065 

-0.0321347 -0.00196645 0.00308469 
0.0135215 0.0222142 0.119663 
-0.0035847 0.00697961 0.142802 

-0.0146971 -0.00232693 -0.00967213 
0.00515929 0.00457248 -0.00279506 
-0.000246349 -7.75615e-05 0.00850006 

-0.0422106 0.00816226 -0.00485048 
-0.000632718 0.0239385 0.175163 
-0.0212087 0.00576578 0.040446 

-0.00901633 -0.000813603 0.254088 
0.00351763 0.00247641 0.140124 
6.78652e-05 -0.000124663 0.00908728 

-0.00850235 -0.00371053 -0.00628429 
0.000754815 0.000883517 4.31804e-05 
0.000102232 -0.00016222 0.00695538 

-0.0212667 -0.0151711 0.0657852 
-0.00169911 -0.0260196 0.0459135 
0.0193654 0.0192794 0.160926 

-0.0876777 0.0338001 -0.0585399 
-0.107377 0.0356493 -0.0783194 
0.00017345 0.0156391 0.113431 

-0.0146161 -0.00361418 0.0581855 
-0.00425824 0.00341284 0.0725468 
-0.010006 0.018403 -0.0153495 

-0.0111475 0.00139156 -0.00480687 
-0.00241022 0.005821 -0.00515078 
-0.000620325 -0.000261925 0.00110474 

-0.00915976 -0.00640381 0.00548617 
0.00275322 0.00497089 -0.0162835 
0.000259823 -0.000101329 0.0068221 

-0.096048 0.13509 2.17606 
-0.236116 0.0778144 4.07523 
0.0278557 0.0375717 -0.00362147 

-0.0132273 0.00206979 0.00499343 
-0.0165472 0.00868989 0.000401567 
0.0028279 0.00141166 0.00986076 

-0.0198772 -0.00773285 -0.0188735 
0.00879556 0.000285319 -0.0342963 
0.0050814 -0.00197915 0.0595941 

-0.150627 -0.100398 0.74493 
0.202501 0.15506 -1.66171 
-0.00836821 -0.00844117 -0.0335727 

-0.00873754 -0.00369169 -0.0194391 
0.0123178 0.00798377 -0.00106715 
0.0583662 0.044305 0.617373 

0.0101117 -0.162029 -0.0194991 
0.135066 0.0220712 0.0128077 
-0.00960287 0.0446302 0.101874 

-0.00634687 0.000908155 0.00717996 
3.66529e-05 -0.000359166 -0.000722665 
0.00045687 0.000247359 0.00793443 

-0.02515 0.00198264 0.00959976 
0.00016335 0.0109069 -0.0469097 
0.000536652 -0.000323343 0.00798653 

-0.0197828 -0.00555238 0.629829 
0.0134497 0.00954509 0.400797 
-0.00426355 0.00111338 0.317452 

-0.0502027 -0.0845619 -0.453105 
0.104904 0.0650569 0.237143 
-0.0268518 0.000945728 -0.0719825 

-0.028183 0.00875817 0.0457072 
-0.0062229 -0.00753154 -0.00940098 
0.000207616 -0.00195647 0.0301042 

-0.00823552 -0.0753051 -0.213779 
0.000187161 0.0185155 0.0507986 
-0.000266145 0.0119815 0.0317671 

-0.00797601 8.07574e-05 -0.00834407 
-0.00175355 0.000902491 -0.00604098 
-0.000275744 0.00155619 0.00869427 

-0.00800956 -0.00884957 -0.0071761 
0.00802231 0.00303345 0.00228764 
-6.4159e-05 -0.00244895 0.0304489 

-0.0140351 0.103852 0.109202 
0.0107073 -0.00594951 0.00504586 
0.000106063 -0.00118257 0.0163529 

-0.00967353 -0.0310473 -0.0600551 
0.00161191 -0.00629893 -0.0421842 
-0.00012119 -0.00168169 -0.00138049 

-0.00539838 0.00367049 -0.0201994 
-0.000114135 -0.000726307 -0.00458289 
0.000214359 0.000293639 0.00667343 

-0.0653935 0.143134 -1.06771 
-0.167133 -0.011639 0.94749 
-0.000283194 0.00773221 0.366523 

-0.0295829 0.00645635 -0.00444535 
-0.00831303 0.0198965 -0.0319992 
-0.00735906 0.0281784 0.115952 

-0.0132208 0.00159393 -0.00778605 
-0.00377405 0.00786734 0.0165639 
-0.000325688 0.000733721 0.0131631 

-0.111228 -0.103951 0.295956 
0.0192419 0.163747 0.542767 
-0.00495581 -0.0122828 0.105932 

-0.346333 -0.178616 1.03886 
0.0363969 0.440175 -0.383797 
0.0219651 -0.0987471 0.973532 

-0.0139656 -0.000784316 -0.319721 
-0.004021 0.00265103 0.0491768 
0.000333201 -0.000190324 0.0403239 

-0.0386055 0.0621245 0.0242294 
-0.0890701 0.000910609 -0.246804 
0.00520896 0.00130643 0.0859397 

-0.0599838 -0.233292 0.348743 
0.129448 0.0695185 0.160697 
-0.0764321 0.0331443 0.298913 

-0.00973919 -0.000703701 -0.00193049 
-0.00564521 0.00478243 0.00313887 
-0.000625379 -0.000644062 0.0107694 

-0.0306916 -0.032849 0.0510188 
0.0320513 0.00762483 -0.0107589 
0.000982702 0.0014024 0.0472333 

-0.021899 -0.0236158 0.00147607 
0.0113885 0.00194675 0.00926928 
-0.00270884 -0.00189665 0.0457559 

-0.00760362 0.00179947 -0.0187879 
-0.00273046 0.00228217 -0.0214477 
-2.33122e-05 5.83807e-05 0.0165753 

-0.0168541 0.00710952 0.0412094 
0.00497858 0.00348734 0.00393159 
0.0018264 0.00366322 0.0301972 

-0.0029234 -0.322623 -0.41031 
0.268238 0.0442131 0.0695115 
-0.00208791 0.0015823 0.00363836 

-0.00689332 -0.00181604 -0.0491871 
-0.00144653 0.0028 0.00784891 
4.95408e-06 -0.000126183 0.0168816 

-0.153242 -0.178084 0.968599 
0.180653 0.240676 -0.400651 
-0.057153 0.026754 0.251152 

0.0171552 0.0520551 0.0632611 
-0.108872 0.0131529 -0.188911 
-0.0062754 0.00755091 0.0347283 

-0.0484634 -0.0608038 0.01187 
-0.00904793 -0.00744854 0.0238954 
-0.0154295 -0.0318389 -0.0134517 

-0.00308617 -0.0203719 -0.00193387 
0.0155949 0.00310426 -0.00143219 
0.00353377 0.0007787 -0.0195203 

-0.00592936 -0.00646122 -0.0190405 
0.00545548 0.00318036 0.0220708 
3.44757e-05 1.19428e-05 0.00433988 

-0.076091 0.0154314 -0.332854 
0.0841828 0.0375699 -0.333833 
-0.00726467 0.0160843 -0.00123614 

-0.184265 -0.0602822 -0.00871804 
0.0187169 0.120715 0.341024 
0.0407134 -0.000857185 0.120318 

-0.304943 0.283563 0.136502 
-0.223891 0.284871 0.26385 
0.000638704 -0.0502866 0.2619 

-0.149822 10.9297 6.43019 
0.00972001 -0.490023 0.175798 
-0.0112616 0.269527 -0.0986962 

-0.0123166 0.00252408 -0.00199853 
-0.0048066 -0.00125603 -0.0158026 
0.00133949 -0.00063352 0.0103919 

-0.161913 0.145127 -0.105936 
0.0316266 0.12683 0.0256953 
0.0125457 -0.0524939 0.0533363 

-0.0141783 -0.000432375 0.327679 
2.36302e-05 0.0112485 -0.449924 
0.000104279 -0.000703652 0.815564 

-0.0191955 -0.052183 -0.0228818 
0.0303807 0.00615695 -0.1009 
0.00032381 0.0507024 0.274427 

-0.0514581 -0.0172217 -0.0413502 
-0.0109411 0.0167649 -0.0816286 
-0.0417084 -0.0114309 0.221582 

0.0811121 -0.267272 6.8552 
0.261702 0.019377 2.10884 
-0.0065369 -0.00421415 0.0769237 

-0.004391 -0.0135684 -0.00932565 
0.0177005 0.00371772 0.0292739 
0.00262987 -0.00568567 0.0109829 

-0.00925284 -0.00113042 0.0809936 
0.000898265 0.00242461 -0.0031091 
0.000196493 -0.000272507 0.0182868 

-0.0161082 0.0252834 0.0313865 
0.0032019 0.0236433 0.0515683 
-0.0216806 -0.151204 0.401464 

-0.00858216 0.00215695 0.0161249 
-0.00334313 0.00286739 -0.00994132 
-0.000599456 6.1432e-05 0.00849401 

0.0654677 -0.190306 -0.00226033 
0.119188 -0.0438998 -0.160498 
0.000657311 -0.00322089 0.0325215 

0.0386604 -0.198009 0.00547265 
0.193607 0.00804572 0.0902112 
0.00214072 0.00239601 -0.00307373 

-0.00832024 -0.00104561 -0.00333063 
0.000887147 0.00107794 0.0442824 
0.000876627 -0.000296975 0.0138539 

-0.0104031 -0.00274863 -0.061184 
-0.00441674 0.00137309 -0.0523147 
0.000993856 -0.00013076 0.0141107 

-0.0115006 0.00393553 -0.12711 
-0.00847435 0.00248939 -0.0364259 
-0.0001962 -0.00194433 0.0569458 

-0.00930923 -0.00161859 0.185157 
0.00815315 0.00361102 -0.257388 
-0.000350442 0.000626461 0.0453968 

-0.00947295 0.00694443 0.0149087 
0.00140953 0.00436318 0.0143149 
0.000943857 -0.00191276 0.0130647 

-0.00655079 -0.00491194 0.147867 
-0.0208137 0.00602685 -0.00270429 
-0.000543204 -0.000264786 0.0129789 

-0.01732 -0.0324624 -0.0341123 
0.00244515 0.0050936 0.00319568 
-0.00166507 -0.000231184 -0.00171335 

-0.0106725 -0.366914 0.0134774 
0.351997 0.110449 0.168297 
-0.0184081 -0.0514976 0.0396981 

-0.0153845 -0.00432571 0.0456658 
0.0103868 0.00475361 -0.00311964 
0.00088884 -0.000302619 -0.00623155 

-0.0093278 -0.00042559 0.0024083 
0.00520121 -0.00199457 -0.0113615 
-0.00108489 0.00110273 0.0251718 

-0.0172345 -0.00741312 0.511127 
0.0226017 -0.000904176 -0.278578 
-0.00272946 0.000272338 -0.0150588 

-0.00925884 -0.00130221 -0.0496768 
0.00417616 0.0011045 0.2481 
0.000205089 -0.000770015 -0.00644794 

-0.00980127 -0.00185818 -0.309456 
-0.00303362 0.00624733 -0.872043 
0.000630358 -0.00104428 0.299247 

-0.00999289 0.000965515 -0.00461592 
-0.00440891 0.00419951 0.00200167 
0.000198534 -0.000119375 0.00740367 

-0.00819837 0.0388081 -0.0338478 
-0.0583555 0.0231336 -0.137742 
0.0247837 0.0239547 0.117036 

-0.0251421 0.0327376 0.0362291 
-0.0247103 0.0202063 0.010475 
0.00534663 0.0116314 -0.0128674 

-0.0141534 0.00805084 -0.210138 
-0.00445153 0.0046309 -0.321326 
-0.000391119 -0.00028907 0.0398447 

-0.00982026 -0.0133053 0.0255381 
0.00798728 0.00423812 -0.00439963 
-0.00380755 0.00923918 0.0267295 

-0.0110957 0.00480805 -0.00100333 
0.00258453 0.00288983 0.00348125 
-0.000533291 0.000986654 0.0193036 

-0.0801175 -0.00489392 0.0344086 
0.0389993 0.0588684 0.165834 
-0.00149106 -0.0301278 0.251291 

0.00477833 -0.0330417 -0.00797283 
0.0408021 0.00209024 -0.0210761 
0.00208489 0.00199247 -0.0148015 

-0.238036 0.175846 -0.357457 
0.00457604 -0.0193202 -0.330596 
-0.0437297 0.0291037 -0.0350859 

-0.213 -0.0417597 -0.402832 
-0.0614747 0.143361 0.22559 
-0.058228 -0.0455572 0.0611602 

-0.00235734 -0.0111029 -0.0249226 
0.0263911 0.00385574 0.0425871 
-0.000194641 -0.000555227 -0.00835837 

-0.0372409 0.0328028 0.02778 
-0.0421507 -0.00679092 0.0281025 
3.90676e-05 -0.0170625 0.113907 

-0.0102643 -0.00196609 -0.0900495 
-0.00168243 0.00377646 -0.05991 
0.000250701 -0.000251222 0.0945824 

-0.00562002 -0.00645317 -0.0149343 
-0.00116705 0.00243882 0.0147 
-0.000867383 -2.12489e-05 0.0116067 

-0.0352932 0.0160253 0.0949652 
-0.0418335 0.0286929 -0.0478411 
-0.00230507 -0.0346463 0.284967 

-0.00758022 0.0111553 -0.0176457 
0.00386161 0.00421311 -0.00106868 
0.000955085 -0.00161989 -0.0028882 

-0.0134059 0.000915883 0.0133734 
-0.00829896 0.00324276 -0.0146545 
0.000532044 -0.000990161 0.0248265 

-0.018188 0.00370067 0.0304182 
-0.000117783 0.00363663 0.0625445 
0.0386331 0.0291366 -0.309171 

-0.880813 0.407058 2.03483 
-0.707709 0.374377 -0.160676 
0.0130956 0.0404996 0.518411 

-0.0274097 -0.077273 0.0896806 
0.0129169 -0.0017055 0.0730064 
0.0453685 -0.0351176 0.169818 

-0.0194032 -0.0070625 0.134407 
-0.0041359 0.00112215 0.339077 
-0.000378491 0.000337859 0.0646002 

-0.0572244 -0.143709 0.0323101 
0.241355 -0.0334689 0.20023 
0.0949693 -0.0696894 0.385858 

-0.0150659 0.00484626 -0.0616435 
0.00339299 0.00417698 -0.0411883 
0.000817991 -0.000822702 0.0260185 

-0.00997513 0.0163158 -0.00797049 
0.00623941 0.00578163 -0.0902889 
-0.00261639 -0.000176771 0.0069993 

-0.025564 0.149403 -0.112905 
0.0888589 -0.0391647 -0.177669 
0.00652837 0.0211355 0.344608 

-0.0102731 0.00168605 -0.0799898 
-0.00492633 0.0025931 0.0152517 
0.000399077 -5.15888e-05 0.0106921 

-0.0161006 0.0129187 0.0160096 
0.00139808 0.00264503 -0.00861599 
0.00132493 -7.90819e-05 0.00836039 

-0.00542961 -0.0115153 -0.00925652 
0.00510401 -0.000187488 0.0244912 
0.000715263 -0.000629957 0.0130431 

-0.020015 0.00520199 -0.0108219 
0.00932112 0.00565105 0.00227877 
0.000151243 -1.58191e-05 0.0319174 

-0.00579741 -0.00367017 0.0240841 
0.00130063 0.00430313 0.00908714 
-0.00163141 0.00716633 -0.0137878 

-0.00826347 -0.00103222 0.00662398 
-0.0017163 -0.000405255 1.65965e-05 
-0.0015565 0.000293483 0.01451 

-0.00951488 -0.00895267 -0.0314268 
0.0047118 -0.00451911 -0.140062 
-0.00423143 0.00123259 0.021818 

-0.00475556 -0.00900209 0.000191241 
0.00819923 0.00271113 0.0114404 
-0.000575881 0.0017135 0.00894129 

0.0140621 -0.219194 -0.00634406 
0.202135 0.0227741 0.00394092 
0.00049806 -0.00125326 0.0359539 

-0.0569158 -0.231831 -0.260871 
0.154761 0.116106 -0.35448 
-0.00347184 0.0092457 0.161637 

-0.0117296 0.00469411 0.0568942 
-0.0126679 0.00870564 0.0432631 
0.000632334 0.000348796 0.0272948 

-0.00729777 0.00357018 -0.0765121 
-0.0107696 -0.00290223 -0.0441563 
-0.000767127 -0.000160371 0.011003 

-0.0089198 0.00213528 0.0171217 
-0.00782233 0.00355136 0.00189544 
0.000149005 0.000796312 0.00694736 

-0.0101102 -0.00796967 0.0147719 
0.00690534 0.00402294 -0.0331337 
0.00219103 0.000178895 0.0156669 

-0.0156825 -0.0010318 0.0122746 
0.0044754 0.00408711 0.0168839 
0.000627828 -0.00180021 0.0147866 

-0.0143482 -0.00816078 0.140457 
-0.00282604 0.00693937 -0.379108 
0.0199408 -0.00478507 -0.0522943 

-0.00859688 -0.000516849 0.0686655 
-0.00278988 0.00296362 0.0510871 
-0.00046483 -0.0005986 0.00466652 

-0.00524354 -0.000359777 0.0149002 
0.00147933 -0.000104545 0.00526152 
-0.000167148 3.69233e-05 0.010836 

-0.0250741 0.0004961 -0.22942 
0.0105328 0.0296377 1.16427 
0.00144104 -0.00212765 -0.112427 

-0.0185618 -0.00254388 -0.194181 
0.00341162 -0.00277547 0.15709 
0.000804099 -1.16936e-05 -0.000283025 

-0.00971543 -0.00326572 -0.0255858 
0.00752163 0.000969909 -0.0038462 
-0.000256529 0.000172159 0.0122674 

-0.156645 -0.708436 32.9338 
0.0116615 0.352361 -4.77214 
-0.00857348 -0.000690446 -0.805735 

-0.465107 0.0715187 11.2228 
-0.267896 0.279078 8.70071 
-0.0358322 -0.000438325 0.297749 

-0.177729 -0.0590596 -0.373406 
-0.0109376 0.141698 2.03582 
0.00898957 -0.0197116 3.07692 

-0.190626 -0.015618 -0.59617 
-0.282335 -0.00789267 0.07212 
0.00346721 -0.00289896 0.416131 

-0.0255775 0.000318907 0.0587026 
-0.00614602 0.0022269 0.0411397 
0.00118038 8.07881e-05 0.0505847 

-0.066299 0.0889017 -1.7748 
0.0318836 0.0779731 -0.0472568 
0.0241594 0.00508067 0.0618305 

-0.0444198 -0.00235649 -0.0389613 
-0.0120543 0.0220955 0.158109 
0.0193582 0.015677 -0.0111921 

-0.0378923 0.0370187 -0.0109588 
-0.0786836 0.0184149 -0.0395291 
0.0103098 0.0165316 0.00938499 

-0.00704103 -0.00451535 -0.00118876 
0.00294906 0.00100326 -0.000503038 
0.000264561 -0.00056818 0.00981673 

-0.00725463 -0.0107512 -0.0813593 
-0.0373193 -0.00530921 -0.159553 
0.0357635 -0.00631483 0.0755559 

-0.0100204 0.00808826 -0.0391103 
0.000667161 0.00598403 -0.135214 
0.000265872 -0.000187816 0.0329927 

-0.0094561 -0.00311636 0.0113527 
-0.00128558 0.00110205 0.0129005 
-7.20723e-05 0.000201832 0.015974 

-0.00916615 -0.0060618 0.00669281 
2.77225e-05 0.00354787 0.0101004 
0.000407293 -0.00134311 -0.0028319 

-0.0101113 0.00239583 -0.0134509 
8.94991e-06 0.00193442 -0.0147289 
-9.82928e-05 -0.00110786 0.0147666 

-0.00787753 -0.0392512 0.0903179 
0.00274411 0.0151037 -0.0319708 
-0.0235075 0.00671351 -0.153504 

-0.0185908 0.00691662 -0.0357506 
-0.0158844 0.00447194 0.0418519 
0.00118089 0.00027209 0.0517174 

-0.00183729 -0.0167672 0.0413728 
-0.0182008 -0.0226078 -0.0491522 
-0.00205617 -0.000715895 0.0403851 

-0.0100883 -0.00514006 -0.162339 
-0.00920326 0.00517161 0.366775 
-0.000738495 0.00465545 0.0927066 

-0.00783905 -0.154571 0.000474818 
0.16006 0.019808 0.0329184 
0.00908187 -0.0114798 0.0976954 

-0.0129526 0.00692563 -0.00427067 
-0.0140345 4.17291e-06 -0.00821192 
0.000333849 0.000504608 0.0184813 

-0.0394948 -0.0202732 -0.0995524 
-0.00196937 0.0174975 0.00641362 
0.00960728 0.0107982 0.12971 

-0.016319 0.00442151 0.0292226 
-0.0123007 -0.0101127 0.00592969 
0.0022516 0.000522854 0.0520918 

-0.00845157 -0.0104182 -0.00536538 
-0.00111681 0.00327797 -0.000260227 
0.000148162 0.00107078 0.0161789 

-0.0185534 -0.00359651 0.0353075 
-0.00198828 0.00458772 -0.0105962 
-0.000577044 -0.000949107 0.00157545 

-0.0260895 0.00100438 0.0732789 
0.000111385 0.0132364 -0.0570657 
0.00299923 -0.00647089 0.0608967 

-0.00913849 -0.000655943 -0.0985107 
0.000740343 0.00145691 -0.0486864 
-0.000198084 -0.000325385 0.105817 

-0.0119993 -0.00335377 -0.0020954 
0.00198173 0.000441244 -0.000333241 
0.0033405 -0.000542684 0.0239542 

-0.0145297 -0.00234022 0.00434176 
-0.00489069 -0.00189234 0.0296544 
-0.000994827 0.00131467 0.0402642 

-0.011805 -0.00719207 0.0347405 
-0.00383199 0.00468935 -0.0587422 
-0.00357895 -0.000527494 0.0178376 

0.0523596 -0.219595 0.034215 
0.186954 -0.0612779 0.312065 
0.00320041 -0.0160036 0.0514245 

-0.00951479 -0.00710387 0.374245 
0.00521964 0.00502835 -0.103413 
-0.0204259 0.00991774 1.7361 

-0.15812 -0.0609641 0.0290509 
0.00412879 0.0259621 0.0826362 
-0.0212193 0.0352056 0.231306 

-0.00611188 -0.179543 -0.471642 
0.0641568 0.0656868 0.0746749 
0.00876017 0.00939727 0.228038 

-0.0108861 0.00499679 0.0125059 
0.00270686 0.00140876 0.00334149 
0.00142051 -0.000137565 0.0157761 

0.0337655 0.0147937 0.260279 
-0.151904 -0.0622858 -1.38415 
0.000119574 0.0155626 0.0365227 

-0.0633373 -0.0680541 0.32318 
0.0351094 0.0463646 0.110019 
0.00411473 -0.0356346 -0.474077 

-0.183964 -0.131598 -0.61046 
0.117734 0.230854 -0.888496 
-0.120749 -0.0893209 0.79756 

-0.177765 0.053434 0.50251 
0.0141226 0.272328 0.345703 
0.020075 -0.0306545 0.000619322 

-0.0174719 0.0301499 0.0193413 
-0.0254682 0.00202814 0.0103209 
-0.000757221 4.31053e-05 0.0345843 

-0.0336063 -0.0187316 -0.048361 