# vtk DataFile Version 3.0
Output file generated by Yade's KinematicLocalisationAnalyser
ASCII
DATASET UNSTRUCTURED_GRID

POINTS 13483 float
430.171 47.224 -0.436641
527.928 95.6246 0.44751
102.042 6.07289 -0.437355
548.784 8.55042 -0.407903
375.253 8.4144 0.514218
253.357 58.5511 -0.46499
135.474 7.2343 0.482431
414.452 15.4492 0.24327
371.626 28.4393 -0.150544
505.37 17.7178 -0.715134
176.205 16.5059 0.20082
208.855 7.86055 -0.422122
453.94 63.6327 -0.149207
451.445 27.139 -0.105461
118.612 17.8959 -0.469445
183.725 46.6213 -0.400163
181.85 18.0606 0.262914
232.572 13.2494 0.526639
269.875 46.3085 0.452474
393.902 8.65718 -0.549842
322.798 59.0717 -0.0961814
418.701 55.8716 0.294686
549.304 65.1839 -0.494599
486.093 65.1135 -0.431492
347.666 25.9259 0.298812
200.603 56.1183 -0.159656
365.515 40.2161 -0.469256
426.429 22.0484 0.240347
38.0413 18.4111 -0.50152
495.412 55.4498 -0.39196
362.278 7.96336 0.475797
14.7159 25.9686 0.312029
542.158 97.0916 0.24861
371.222 2.51006 0.525044
66.5104 49.0213 -0.10823
380.707 44.3696 0.388895
389.172 25.1186 -0.520427
273.678 24.3479 -0.208987
387.827 39.9836 -0.367969
276.492 49.9459 -0.420562
195.82 17.7125 0.301571
326.463 56.1117 0.0659061
476.275 12.1816 -0.152103
164.816 6.52235 -0.556682
46.3084 7.2445 -0.0784822
57.0733 10.6631 -0.254042
481.048 10.6369 0.680073
19.5389 15.1815 -0.280751
420.905 73.1459 0.374731
469.627 54.2834 0.348409
143.593 38.4526 -0.301145
524.264 79.0447 -0.120798
29.5444 32.5912 0.124138
401.564 4.51948 0.631242
122.478 8.42239 -0.684616
425.054 46.478 0.388192
370.132 34.6594 0.125047
152.174 0.995892 0.3405
26.6784 2.46706 -0.2719
278.267 19.035 -0.346743
424.563 88.7795 0.131779
349.389 56.7256 -0.181474
309.451 1.05745 0.275735
489.281 13.0649 0.722629
19.4493 49.9776 -0.243761
215.887 41.9113 0.308358
504.024 10.6037 -0.378335
472.022 96.7902 -0.351744
323.833 11.6036 -0.65235
414.434 9.84468 -0.397267
512.876 46.3028 0.42197
112.515 7.84404 0.279084
367.795 43.3916 -0.181895
360.764 19.6984 0.111103
238.598 18.7166 -0.41827
16.8965 17.237 0.313777
534.469 73.3818 -0.307851
272.293 53.1609 -0.289672
469.137 48.1273 0.359138
485.099 22.4699 0.243702
544.948 25.4943 -0.226241
350.738 60.8412 -0.161211
80.4426 45.8748 -0.124899
475.192 73.0054 -0.214369
453.427 75.1589 0.105145
554.56 71.6834 -0.114948
538.449 1.56782 0.677043
235.663 38.5547 0.424291
459.742 5.89029 0.148065
21.0336 7.48957 0.625561
113.686 48.735 0.146558
385.152 17.5317 0.284994
532.687 60.9498 0.480607
164.349 39.8841 -0.228173
37.4411 44.1805 0.26365
370.727 1.01137 0.243371
193.844 8.72176 -0.499685
510.741 85.1684 -0.245065
526.413 57.5946 0.29508
285.055 32.2118 -0.268494
137.049 31.6328 0.469897
395.207 69.9283 -0.399585
298.645 26.7703 -0.480228
318.513 47.7621 -0.105548
297.433 14.7962 0.419814
402.57 25.068 -0.0915685
553.886 12.4821 -0.372655
68.834 44.1735 0.384279
266.484 6.00642 -0.217322
409.864 16.7191 -0.495905
296.685 68.9095 -0.29006
20.9331 28.769 0.448091
26.2188 7.01273 0.467226
404.611 62.0412 0.411948
371.012 36.706 0.145872
16.2293 45.632 0.436826
81.4727 35.4912 0.22076
260.58 19.4791 0.36062
434.541 26.4849 -0.200185
356.321 67.7924 -0.33366
518.093 6.59071 -0.527324
509.5 5.94226 0.282522
303.661 57.2137 0.0980371
450.021 47.9505 -0.12294
196.665 21.7606 0.580916
263.192 5.95472 0.618223
88.738 35.1638 0.312784
99.7982 26.6922 0.255533
391.873 65.1381 -0.0716735
245.876 23.2605 0.554827
494.203 73.3105 -0.108211
479.362 93.3413 -0.103722
363.549 33.3899 -0.381361
537.971 42.1919 0.316349
327.712 35.6426 0.247567
227.935 28.9016 -0.315377
471.27 72.6399 0.285662
229.87 39.2013 0.400631
422.944 13.797 0.28202
272.573 49.8931 -0.183844
383.194 13.177 0.651327
288.636 45.3375 0.0857153
331.016 25.9583 0.103284
262.084 60.3806 -0.448581
160.777 38.8607 -0.118495
532.188 94.3114 -0.14163
552.062 14.7904 -0.36787
5.89308 12.6949 -0.40917
333.315 31.8443 -0.429522
33.7516 26.4354 -0.0844836
297.731 47.3578 -0.48078
310.984 36.3831 -0.252146
62.6168 14.1748 -0.630833
43.442 41.4828 -0.434142
188.381 16.5803 0.456184
423.924 80.955 -0.382681
423.143 23.1725 -0.60062
64.1572 23.4764 0.469988
485.755 69.4976 0.434591
532.297 23.6884 -0.644903
466.579 89.5277 -0.521992
488.851 2.15793 -0.555895
401.938 45.6258 -0.470426
419.203 57.4607 0.554968
382.555 24.8545 -0.408844
546.613 6.64385 0.373988
189.338 31.5315 -0.116916
116.707 40.354 -0.212572
202.4 9.04718 -0.661601
79.186 4.89108 0.286054
53.6322 12.7098 0.261552
234.151 46.574 -0.315362
14.2861 27.6251 -0.373798
410.622 38.2304 0.529592
425.669 73.3283 0.2092
355.019 30.7218 -0.396857
539.506 75.8783 0.354738
317.65 10.2984 -0.164522
332.914 49.1902 0.405476
403.838 11.26 -0.237459
18.1022 28.1246 -0.447427
423.649 6.04725 0.589513
406.089 18.251 0.475331
175.531 20.0949 0.484614
329.732 22.8733 0.231675
251.61 6.62815 0.61979
306.202 25.4433 -0.473174
513.659 73.7561 -0.107763
163.944 34.9083 0.490349
536.189 14.8875 0.45304
517.034 72.7474 -0.312323
303.294 15.9125 0.204121
500.619 3.3672 0.541994
432.679 42.6683 -0.386684
514.733 25.0798 -0.483416
333.728 56.9518 0.272371
378.51 13.423 0.674584
349.415 73.5828 0.225676
344.622 14.9449 -0.220706
470.028 90.8736 0.268339
463.028 77.5133 -0.307668
161.142 52.0298 -0.364813
542.893 24.8842 -0.229324
420.586 56.7767 -0.283324
9.34536 21.0288 0.195055
317.977 36.5134 0.419815
159.587 30.9403 -0.418322
81.7675 47.2571 0.258387
533.004 53.4871 0.439688
461.845 90.2797 0.240668
258.801 32.7376 0.375609
397.02 21.61 0.43797
71.1181 50.0808 -0.172919
210.852 33.1949 -0.502885
409.554 43.7362 0.362856
370.062 23.8553 0.447659
214.983 0.836448 -0.399857
398.458 76.8439 -0.390679
385.791 63.442 -0.578713
361.928 63.265 0.392813
380.723 2.26712 -0.655724
494.695 28.0131 0.496974
156.376 14.6637 -0.206345
368.866 66.176 -0.408853
409.208 75.0569 0.154289
61.1545 0.9296 0.407161
207.374 6.4532 -0.210531
551.506 18.4483 -0.26202
544.095 27.3151 -0.577338
556.631 28.6052 -0.533487
244.926 8.94751 -0.284356
514.579 34.9946 -0.528644
322.437 64.6934 0.32072
345.898 0.802768 0.644946
458.036 77.1471 -0.435327
21.7717 35.149 -0.319264
271.831 56.5359 -0.536455
208.142 4.59527 0.480588
543.587 93.6532 0.174319
495.602 87.6002 0.216917
234.587 14.7642 0.366252
467.095 62.1086 -0.0831217
409.28 9.98062 0.263693
403.264 20.2469 -0.522109
82.4485 19.1734 -0.489297
245.712 0.96761 -0.257916
276.372 2.18291 -0.418117
12.719 7.69664 0.626287
4.48987 36.865 0.255879
141.873 20.276 0.358763
57.8785 48.0096 -0.247018
55.9902 33.4988 0.296435
329.608 21.1756 -0.427352
289.447 48.8094 -0.479389
523.052 80.9358 0.114331
18.4155 4.376 0.331828
58.6322 7.83878 0.262625
431.159 76.078 -0.149423
237.974 0.857912 0.483176
287.692 26.1833 -0.118765
195.924 4.58296 -0.432153
460.765 50.1023 0.174954
347.043 8.73132 0.594773
516.26 31.0966 0.434214
445.78 52.6275 0.340643
473.061 41.9484 -0.0931405
324.88 39.4054 0.529899
92.1685 50.9577 -0.304322
391.334 70.6099 -0.0944451
518.092 13.0587 -0.26785
203.551 41.5494 -0.241369
27.9201 21.0959 -0.16515
271.442 15.0404 0.528676
95.9317 44.8894 -0.451509
230.737 55.6539 -0.21631
333.168 4.72098 -0.379442
535.451 65.064 -0.405415
484.003 3.30507 -0.670244
266.667 4.1801 0.525242
247.161 36.6492 -0.139467
349.169 70.2304 0.221849
68.3665 8.64339 0.631313
166.007 58.5316 -0.379816
528.141 57.5582 -0.404757
380.926 78.9254 -0.0642176
168.661 55.0601 0.254261
132.909 51.6055 0.0612399
554.525 60.2007 -0.405813
553.812 14.3701 -0.571029
451.516 5.00803 -0.53956
163.27 32.0671 -0.098981
399.387 51.3238 -0.115049
403.155 50.4245 0.288677
322.338 7.95888 0.156482
366.595 0.846134 0.41896
517.795 86.4269 0.483093
75.782 36.018 0.226504
466.575 40.021 0.514865
224.106 21.5581 -0.387935
8.82927 2.3718 -0.326584
114.8 37.9031 -0.190607
58.5299 27.3174 -0.449666
492.318 64.1294 0.354496
549.181 95.3907 -0.1695
159.197 37.3075 -0.193807
553.428 23.8553 0.488121
36.8152 46.0206 -0.253004
80.4623 33.8455 -0.15707
459.964 28.4368 -0.440889
321.671 23.6232 -0.537962
387.83 26.4203 0.104796
203.887 38.9558 -0.189021
452.086 14.0753 -0.588025
555.504 12.3746 0.586897
24.4416 36.2958 -0.281911
221.085 9.14585 -0.259959
187.793 19.1659 0.265101
1.09861 40.9133 0.145954
189.201 17.9364 0.383625
179.546 17.6769 0.198136
181.82 35.8869 0.299817
117.675 30.3169 -0.14048
407.164 31.2431 -0.326344
146.573 16.0908 0.358672
539.83 94.5264 0.237646
153.243 5.20375 -0.684298
38.8538 47.237 -0.358131
505.379 78.2694 0.436089
233.226 40.8599 0.382988
473.166 52.6314 -0.443439
540.647 59.2543 0.504954
244.32 10.9341 0.269372
506.519 47.2554 0.340451
264.896 2.665 0.688481
323.201 33.6025 0.434917
479.715 35.6121 -0.529293
90.9295 11.9079 0.570961
368.423 4.24552 0.584819
520.019 32.2329 -0.198448
74.3113 7.92454 -0.32531
230 18.1409 0.207481
330.745 16.3585 0.368448
549.277 2.9139 -0.526712
313.945 1.63018 -0.664642
148.115 45.8905 0.288838
521.718 11.8851 -0.651308
116.901 42.4014 0.200568
221.114 42.4713 -0.377939
314.624 27.9255 0.250139
425.212 15.9178 -0.319484
306.444 12.813 -0.553206
352.764 39.6049 -0.485436
528.204 97.1376 0.395095
40.8976 13.2855 -0.113177
247.619 65.2836 -0.25754
303.628 42.4382 -0.392436
316.242 26.9411 -0.268398
376.123 60.7851 0.409104
519.812 79.4094 -0.197833
466.28 74.8297 -0.347893
190.646 42.5793 0.396213
13.0693 38.9763 -0.154968
464.991 78.1881 -0.119655
379.601 68.0041 -0.372865
197.757 46.9739 -0.0926974
475.985 58.9272 0.123032
132.936 9.91554 -0.316176
293.055 34.1222 0.306188
350.595 71.7277 0.121848
321.961 26.6943 0.235899
524.343 97.0084 -0.289919
333.838 6.1947 0.617376
41.5842 32.3888 -0.316644
356.607 51.0617 0.348851
335.516 51.8829 0.365009
532.772 74.7285 0.24604
505.753 50.7908 0.291613
403.412 35.7993 -0.137426
527.252 85.4765 -0.415407
238.002 2.09606 -0.552298
304.006 44.8982 -0.499664
19.8655 44.8899 0.318316
511.329 49.3707 -0.14726
440.511 35.0721 -0.518714
354.287 1.73291 0.60865
109.736 4.77182 -0.384388
330.479 58.1897 -0.130496
11.1943 0.868937 0.35683
544.607 9.8759 0.143031
291.07 52.9893 0.413586
[...]
POINT_DATA 13483
TENSORS Strain_matrix float
-1.76395 0.568857 3.42425 
0.544514 0.485008 -1.31931 
4.09312e-18 -6.28006e-18 1 

-0.217422 -0.357386 -2.82212 
0.235826 0.273383 6.52761 
-4.69474e-18 -1.10204e-17 1 

-0.18807 -0.099109 0.186386 
0.103889 0.0180396 0.628508 
1.38094e-17 1.84493e-17 1 

-0.766611 0.184258 -1.27634 
-0.352676 0.246337 0.139793 
-8.86745e-19 -1.25951e-17 1 

-0.767219 -0.188213 0.596442 
-0.0182792 0.124114 0.0120226 
2.23541e-18 -1.19921e-17 1 

-1.9618 -0.778488 21.67 
0.389051 0.952498 -1.01952 
3.5744e-18 -2.83786e-18 1 

-0.202119 -0.0237905 0.219566 
0.00940154 -0.0585473 -0.137478 
6.50755e-19 -8.08795e-18 1 

-0.200517 0.371577 -0.114109 
-0.529424 -0.0485291 0.0940982 
-5.74522e-18 -2.187e-17 1 

-1.52775 -1.31695 1.40769 
-0.217851 0.787098 -0.393773 
1.10024e-17 -1.65616e-18 1 

-1.19652 -0.079646 -57.1302 
-0.0504606 0.678427 -90.581 
1.31587e-18 -2.36856e-18 1 

-0.729528 0.189682 -0.492957 
-0.281283 0.30935 -1.33576 
1.23752e-17 1.33669e-17 1 

-0.534516 -0.390043 -0.22165 
-0.0179953 0.0649347 0.382937 
-6.01486e-18 1.1631e-17 1 

-0.427104 -0.14724 2.68095 
0.529139 0.342476 3.61739 
-8.99294e-18 -1.3767e-18 1 

-0.200601 -0.0604588 -0.659112 
0.212452 0.171796 -0.564416 
-1.11284e-17 -1.34308e-17 1 

-0.302518 0.10975 0.611091 
0.0489881 0.0986846 0.0822599 
-5.63604e-18 -4.52089e-19 1 

-0.376049 0.279163 -0.551561 
-0.163792 0.304957 -0.961846 
1.79852e-18 1.32002e-19 1 

-0.568359 0.875029 -0.787713 
-0.758405 0.577016 0.89461 
4.0787e-18 -2.50997e-18 1 

-0.401423 -0.000223599 -0.0794676 
0.219355 -0.131368 -0.0940676 
-1.56583e-17 -1.9057e-17 1 

-1.66824 1.23567 -0.344403 
0.205163 0.634209 -0.771817 
-7.98649e-19 4.35954e-18 1 

-0.728657 0.146249 -0.281101 
-0.0884279 0.133589 0.16299 
-3.99825e-19 1.47435e-17 1 

-2.02319 1.21376 1.50298 
0.325627 0.25993 -0.299403 
-6.72501e-18 1.02439e-17 1 

0.0590595 -0.0298578 -0.233212 
-0.671895 0.136675 0.637004 
-2.12287e-18 9.78509e-18 1 

-0.856063 0.150718 -0.0975573 
-0.381339 0.403415 4.3975 
-6.48199e-19 -1.06903e-17 1 

-1.00543 -0.496035 22.8148 
0.484009 0.0719617 -3.15029 
-1.2784e-20 -2.61433e-18 1 

-1.52136 -0.867084 0.963951 
-0.380111 0.397677 0.207995 
7.95955e-18 -5.27705e-18 1 

-0.776935 -0.508006 -0.307377 
0.335999 0.737622 -1.03236 
-8.24653e-18 3.63557e-18 1 

-2.16369 -1.0131 0.81088 
0.0684792 0.516504 -2.12106 
-4.45666e-18 1.24228e-18 1 

-0.700449 -0.278701 -1.28642 
0.613526 -0.0118756 -0.610368 
1.84764e-17 -1.49384e-17 1 

-0.251503 0.141928 0.701532 
-0.0788719 0.0653692 -0.779718 
9.93962e-19 1.30285e-19 1 

-1.7799 -0.101224 -2.00903 
0.216522 0.497029 0.829349 
6.15688e-18 -7.68207e-18 1 

-0.764475 0.401217 -0.000311893 
-0.287142 0.138419 0.37571 
2.32914e-18 -1.06475e-17 1 

-0.273753 0.153947 -1.46319 
0.211307 0.0111651 0.0111069 
-1.13901e-17 -4.0933e-18 1 

-0.797458 0.881736 -26.2488 
0.398712 0.331971 0.764012 
-3.84051e-18 9.68837e-18 1 

-0.465606 0.0306096 -0.337826 
0.00251024 0.330515 -0.777717 
-6.52719e-19 1.28078e-17 1 

-0.160528 0.0463606 0.132629 
-0.0449435 0.049271 -0.190812 
-4.45284e-19 1.26906e-17 1 

-1.31177 0.181983 1.22154 
-0.703367 0.591324 -0.296337 
7.6598e-18 1.14744e-17 1 

-1.04419 -0.489774 -10.9793 
0.427462 0.608989 -1.72365 
3.42892e-18 7.83753e-20 1 

-0.0856542 -0.442421 0.541989 
0.194978 -0.176403 0.188868 
-2.04948e-17 -7.70541e-18 1 

-0.369012 -0.0743355 -1.54658 
0.330713 0.189605 0.797433 
-5.97247e-19 -4.18073e-18 1 

-4.17467 1.88673 -19.4297 
-0.386876 0.621435 -0.145478 
-1.65403e-18 7.22637e-18 1 

-0.787257 -0.143082 -0.23947 
0.205317 0.315702 0.243623 
-1.86727e-17 6.95968e-18 1 

-2.51782 1.06249 11.7144 
-0.936272 0.857472 0.460921 
-6.77314e-18 2.25635e-18 1 

-1.31667 -0.276408 0.0741957 
-0.93132 0.671646 -0.553016 
-1.76777e-17 -7.60332e-18 1 

-0.580638 0.00429955 1.76936 
0.379495 -0.0213789 -5.61434 
6.36724e-18 1.06169e-17 1 

-0.195203 0.213802 -0.12562 
-0.181348 -0.00344595 0.0512406 
9.5964e-19 -1.3086e-19 1 

-0.427988 0.316858 0.115956 
-0.183343 0.1765 0.11483 
7.71595e-18 -2.42749e-18 1 

-2.90141 0.389859 9.96338 
0.0440238 0.704133 17.1314 
-1.49752e-18 1.60217e-17 1 

-0.281236 -0.206136 -0.0306098 
-0.0613288 0.0213869 -0.00962194 
-1.22663e-18 -5.17909e-18 1 

0.0170876 -0.743121 16.5914 
1.03419 1.16594 1.2668 
6.74238e-18 -4.10794e-18 1 

-0.830602 0.542241 5.26388 
-0.0637777 0.331236 -2.21693 
-2.09359e-18 7.36943e-18 1 

-0.447499 -0.501567 -0.930628 
0.377693 0.331256 -0.916335 
1.83268e-18 -2.79265e-18 1 

-3.39542 -2.1347 -3.39358 
-0.0496601 0.638574 0.326585 
7.14628e-18 -7.28134e-18 1 

-0.270814 -0.175735 -0.108794 
-0.00112391 0.201034 -0.0131188 
-4.52479e-19 -2.99767e-18 1 

-1.08237 -0.719309 -2.01339 
0.0745335 0.312428 1.01273 
2.93525e-19 8.80575e-18 1 

-0.282221 -0.181126 32.127 
0.0263766 0.171615 -17.7021 
-1.86521e-18 -1.14129e-18 1 

-0.733969 -0.144517 -3.46454 
0.284128 0.256911 0.153844 
-5.39022e-18 2.82753e-18 1 

-1.76021 -2.36326 -1.76077 
0.24313 0.867765 -2.30907 
-2.48619e-18 -3.31492e-18 1 

-0.446078 0.563228 -1.00872 
0.031932 0.0999432 -0.150012 
-1.00126e-17 3.09585e-17 1 

-0.451122 0.563238 0.182351 
-0.606515 0.356238 0.000650022 
-2.93783e-18 6.7796e-18 1 

-1.09526 0.322971 -1.55473 
0.177022 0.402854 0.714756 
-3.70607e-18 8.09238e-18 1 

-1.48712 5.06345 10.6992 
-0.0253593 0.852915 1.54519 
8.00655e-19 -2.46024e-18 1 

-1.51423 -0.238673 1.13641 
0.0673849 0.564686 -0.676682 
1.16943e-18 6.80775e-18 1 

-0.203737 0.0370134 -0.548604 
-0.0348184 -0.088078 -0.509183 
1.5857e-17 9.90094e-18 1 

-1.13023 0.13151 69.0606 
-0.119038 0.448052 28.9205 
1.09884e-18 1.26572e-17 1 

-0.380428 0.608351 1.01394 
-0.587712 0.344346 -0.627652 
-8.4068e-18 -2.21469e-18 1 

-1.02668 0.354627 1.0044 
0.17176 0.655237 -0.411597 
-8.2926e-18 -5.08359e-19 1 

-0.938082 0.190426 0.303749 
-0.517294 0.220207 0.0720764 
2.88665e-18 2.19935e-18 1 

0.0634352 -0.351977 -1.10143 
0.465195 -0.242303 3.43029 
4.34683e-18 -8.10426e-18 1 

-0.509063 -0.0585984 1.3305 
0.0299058 0.0417543 -0.821029 
4.07138e-18 -1.23631e-17 1 

-0.373276 0.694042 0.403024 
-0.940031 0.874909 0.883196 
2.57929e-18 4.75557e-18 1 

-1.13518 1.10832 -1.03952 
-0.198401 0.482136 0.830735 
-1.24142e-17 -1.67184e-17 1 

-0.159283 0.0427443 -0.149744 
-0.0638586 -0.0384602 0.018243 
1.80148e-18 4.89179e-18 1 

-1.77093 -0.907 0.309443 
-0.0122171 0.077829 1.61497 
8.19169e-18 1.21413e-17 1 

-0.53763 0.0160673 -0.318403 
-0.358044 0.18592 -0.0960462 
4.76344e-18 5.34671e-18 1 

-0.575254 0.224357 -0.378249 
-0.0465005 0.150284 -1.27714 
1.17213e-17 1.28588e-18 1 

-0.142137 -0.110617 0.141748 
0.326104 -0.0180542 -0.670874 
2.20671e-17 -6.03721e-18 1 

-1.53488 -1.10053 -7.80872 
0.118092 0.4172 0.604327 
2.93184e-19 -7.32645e-18 1 

-0.150613 1.69602 -8.67483 
0.780741 -0.406434 -0.324258 
1.47376e-17 1.13998e-17 1 

-0.826505 -0.63851 1.82217 
0.2883 0.579863 0.276577 
-1.89973e-17 4.20964e-18 1 

-0.893018 1.60639 2.07649 
-0.491562 0.645708 -0.736218 
1.13715e-17 5.13224e-18 1 

-0.780271 -0.441363 0.253135 
0.195026 0.239013 0.428934 
1.85341e-17 -5.6947e-18 1 

-2.22245 -1.02399 -0.325231 
0.298292 0.634413 -0.486122 
3.25636e-18 -5.86716e-19 1 

-0.252799 -0.223955 -0.171744 
0.235997 0.15359 0.410227 
-8.31368e-18 -4.79965e-18 1 

-1.0271 0.189582 -0.765127 
-1.57618 0.757645 0.987518 
5.59162e-18 -3.55513e-18 1 

-0.20334 -0.375879 -1.63269 
0.570183 0.186339 1.3259 
1.06869e-17 -6.93508e-18 1 

-1.08072 -0.676351 -1.04433 
-0.122656 0.49283 0.770612 
1.40847e-17 9.1921e-18 1 

-3.83977 0.764946 0.135221 
0.00821902 0.663902 -3.66711 
1.59988e-17 -1.07967e-18 1 

-0.732337 0.801718 0.937524 
0.477873 0.0594873 -0.182 
-2.1424e-17 -1.50441e-17 1 

-3.14098 -5.31872 -7.34263 
0.946091 1.77434 -0.190163 
-1.87642e-17 -6.14969e-18 1 

-0.425447 0.0788193 4.85195 
0.0297218 0.13711 -6.34666 
2.05172e-18 -8.35609e-18 1 

0.190916 -2.25219 -2.41712 
0.773522 1.15719 -0.241947 
-6.77171e-18 -9.11103e-18 1 

-1.81615 -2.17574 -2.58159 
0.0304059 0.462768 -0.461773 
2.2939e-18 -1.2656e-18 1 

-1.48226 -0.396643 13.7653 
0.163808 0.501796 -0.853177 
-1.18199e-18 -2.99592e-18 1 

-0.286033 -0.429604 -0.339293 
0.636051 0.462941 -0.650872 
9.24029e-18 4.82548e-18 1 

-0.205043 -0.145085 -2.57842 
0.0241391 0.185483 -0.008692 
3.56263e-18 -1.09424e-17 1 

-0.48511 0.153992 -0.566056 
0.00459952 -0.023426 -0.318071 
1.27382e-17 2.52142e-17 1 

-0.401776 -0.041386 0.850106 
0.0683082 0.123826 -0.388113 
-3.23569e-18 -1.81875e-18 1 

0.145414 -2.72356 0.812765 
0.556254 1.47812 -0.603308 
8.11555e-18 -7.3092e-18 1 

-1.72627 -0.147372 0.510273 
0.349984 0.614668 0.0905682 
2.84964e-18 3.4101e-18 1 

-0.343875 -0.0855585 0.487796 
0.0644187 0.170743 1.32257 
-2.39112e-17 3.9852e-18 1 

-0.462073 -0.229032 -1.35466 
0.0436487 0.193337 1.06793 
8.41998e-18 -4.64046e-18 1 

-0.816439 -0.388075 15.6106 
0.685037 0.535905 -1.21859 
-4.28219e-18 5.93316e-18 1 

-0.710391 -0.10679 -1.35724 
-0.259966 0.264724 0.961608 
-1.34704e-18 9.63654e-18 1 

-1.00649 0.141204 -1.68284 
-0.0290764 0.516924 -0.707507 
6.11992e-18 -7.97176e-18 1 

-0.739307 -0.394885 -1.24082 
-0.733865 -0.119805 -2.04673 
-4.9174e-18 7.61251e-18 1 

-0.169717 0.11477 -0.0207595 
-0.0628944 -0.112212 -0.145028 
-5.089e-18 1.28001e-17 1 

-1.24188 0.473474 -0.302136 
-0.479022 0.290842 -0.0845997 
9.07694e-18 1.88445e-17 1 

-0.070308 -0.203254 0.86686 
0.0470825 -0.0202263 -1.12864 
-8.87066e-19 1.05603e-18 1 

-0.222886 0.316973 -0.153644 
-0.248272 -0.0351462 0.117853 
-1.97416e-17 6.15402e-18 1 

-1.333 1.09801 -5.05023 
-1.12852 0.852782 -3.41665 
-1.46644e-17 -2.57642e-18 1 

-0.791713 -0.118424 41.0169 
-0.229661 0.97853 -10.9841 
1.49011e-19 -1.07845e-17 1 

-0.0505235 0.0792237 0.334094 
-0.105955 -0.0641895 -0.460295 
3.08441e-18 2.28474e-18 1 

-0.460495 0.161495 -0.282989 
-0.273757 0.143384 -0.375927 
8.56724e-19 1.25418e-17 1 

-1.24324 0.623919 0.629282 
-0.0428572 0.594595 0.381038 
4.44072e-18 -2.6175e-18 1 

-1.07089 -0.0251078 -3.15104 
0.501382 0.939852 -1.99378 
1.28604e-17 -1.28604e-17 1 

-0.298956 -0.196777 7.13689 
-0.461117 0.149529 -1.04957 
-8.13021e-18 -4.18426e-18 1 

-0.746189 0.302513 0.0253133 
-0.522363 0.512126 0.0437842 
-4.60277e-18 2.16797e-18 1 

-0.409664 -0.492725 0.694547 
0.217508 0.283524 -0.0640762 
1.93501e-17 8.83843e-18 1 

-2.15499 -0.311375 2.7126 
1.04396 0.559774 0.349949 
2.6471e-18 4.52794e-19 1 

-0.364095 0.162726 0.996381 
0.243153 0.0123792 -1.35257 
6.34389e-19 1.3005e-18 1 

-0.286913 0.1545 -0.273518 
0.0221925 -0.318823 -0.44856 
-5.39351e-18 1.876e-18 1 

-0.732556 0.199293 -0.63926 
-0.0950662 0.12207 -0.167618 
1.2994e-17 3.13109e-19 1 

-0.114112 -0.335751 -0.209029 
0.471172 0.26265 0.400533 
3.118e-18 1.2013e-17 1 

-1.05052 -1.74703 2.6378 
0.689709 1.07406 -1.18491 
5.68345e-18 -4.00596e-18 1 

-0.610762 0.419065 -11.414 
-0.0694668 0.216232 -8.00646 
1.05524e-19 3.63353e-18 1 

-0.672532 0.0457223 0.488344 
-0.0915822 0.128539 -0.493282 
-1.23428e-17 9.75013e-18 1 

-0.213306 0.375865 0.867185 
0.0416964 0.00714084 1.07178 
-4.19526e-18 -3.20739e-21 1 

-0.184427 0.0856687 1.05822 
-0.142024 0.154815 -0.833825 
-4.14081e-18 -4.69292e-18 1 

0.140103 -0.753378 -0.144388 
0.739745 0.295165 0.25718 
5.00883e-18 -1.1461e-17 1 

-0.774968 -0.198971 1.17697 
0.15599 0.354338 -0.565308 
-4.65532e-18 -3.64789e-18 1 

-3.38946 -0.18967 -2.37243 
0.0159979 0.805231 -1.76679 
1.35971e-17 5.65787e-18 1 

0.708323 0.631648 -0.994324 
-0.794575 0.362827 0.381179 
3.0301e-18 6.43897e-18 1 

-1.88851 -0.247565 0.0806945 
-0.585753 0.794453 5.44158 
-5.63796e-19 -9.16168e-19 1 

-0.380302 -0.609536 -1.02458 
0.405642 0.29603 -0.82476 
-1.16195e-18 4.3896e-18 1 

-0.800621 -0.555206 -1.27672 
0.0632743 0.463474 0.980541 
-1.95377e-18 1.72755e-17 1 

-0.369635 0.107639 -0.216323 
-0.262515 0.329855 0.658745 
1.46158e-17 -1.84389e-18 1 

-1.88486 0.0630706 0.760478 
-0.190155 0.81377 0.596982 
7.15012e-18 -2.97148e-18 1 

-0.977613 0.469665 -1.96145 
0.08075 0.482831 -0.239768 
-7.66179e-18 1.30376e-17 1 

-0.174065 0.123523 -0.916593 
0.0364029 -0.0839586 -0.238246 
-7.51478e-18 1.58266e-17 1 

-1.97937 0.240528 -7.05744 
0.393605 0.514943 1.56791 
-1.40933e-18 -5.16756e-18 1 

-0.830196 -0.597127 2.79644 
-0.0871467 0.26449 0.147755 
3.7254e-18 1.10298e-17 1 

-0.125272 -0.03958 0.24026 
-0.404557 -0.174301 0.138702 
2.00101e-17 5.15514e-18 1 

-0.189589 -0.580622 -1.19511 
0.648909 0.252746 -0.344537 
-1.35054e-17 8.96377e-18 1 

-0.262031 0.0565902 10.9047 
-0.508764 0.730528 -10.4649 
-1.95234e-18 9.15892e-18 1 

-0.27745 -0.723946 1.14808 
0.1616 0.324416 -1.383 
1.16255e-17 6.79432e-18 1 

-0.180937 -0.670185 0.544409 
0.256203 0.278156 -0.411069 
-1.37334e-17 4.44316e-18 1 

-0.79554 0.105895 0.0106056 
-0.183896 0.124052 -0.158909 
1.9082e-18 1.35694e-17 1 

-0.19455 0.177818 0.0707747 
-0.134749 0.0374203 -0.0691004 
-1.07959e-17 -1.10512e-17 1 

-0.291596 -0.0475285 0.308085 
0.070567 0.0656661 0.133658 
1.056e-17 -4.73479e-18 1 

-0.307469 -0.130847 -0.368215 
0.257865 0.189841 0.742461 
-1.05842e-17 1.54514e-18 1 

-0.365764 -0.384176 -1.5792 
0.335233 0.286435 -0.310254 
-3.03895e-18 -4.27352e-18 1 

-1.14667 0.422 1.96192 
-0.305519 0.479757 2.55952 
1.2717e-17 -4.35513e-18 1 

-0.366338 0.109682 -0.864 
-0.0561165 0.147533 -5.67821 
-5.22022e-19 -7.31907e-19 1 

-0.278219 -0.291022 2.43295 
0.0378843 0.19086 1.15713 
-4.20907e-18 -5.6351e-18 1 

-0.778794 0.276228 2.92574 
-0.111588 0.413643 0.0473448 
2.62905e-19 1.65869e-17 1 

-0.4652 -0.220342 0.514633 
-0.219175 0.331106 2.11351 
-1.33614e-18 1.09419e-17 1 

-1.03547 -0.347855 -1.6396 
-0.419921 0.471084 -3.26551 
5.03698e-18 5.46422e-18 1 

-0.234934 0.0520689 1.06592 
0.0478405 0.225794 -0.378099 
-4.14047e-18 -2.92483e-19 1 

-0.196501 -1.34109 2.68804 
0.774631 1.17254 9.54578 
1.11009e-17 -1.26618e-18 1 

-2.71151 3.89117 7.08434 
-0.676651 1.52592 5.72045 
3.48546e-18 -7.68589e-18 1 

-1.13519 1.34702 -52.3062 
0.0976831 0.854295 -13.875 
2.42954e-18 -2.54581e-18 1 

-0.877398 -0.723753 0.365536 
0.429856 0.335602 -1.33243 
4.73224e-18 -4.50689e-18 1 

-0.358617 -1.51493 -1.46636 
0.690257 0.837099 2.19767 
1.62104e-17 7.12448e-18 1 

-0.910933 -0.432084 -21.3988 
-0.0450777 0.352822 13.9492 
4.32663e-18 -7.48003e-18 1 

-1.16954 -1.16594 -1.16677 
0.304411 0.407175 -1.40316 
3.08343e-18 -1.14628e-17 1 

-1.77986 -1.00051 0.213799 
0.434872 0.476112 -0.274809 
-8.18504e-18 1.78673e-17 1 

-0.0326183 -0.116437 -0.0324334 
-0.0681511 0.0086472 -0.0274672 
5.38631e-19 4.5245e-18 1 

-0.517267 -0.249706 1.21439 
1.23189 0.633827 -0.452609 
2.95253e-19 3.80089e-18 1 

-0.529423 -0.154495 2.5434 
0.18958 0.194501 -1.1171 
-4.63854e-19 -6.21129e-18 1 

-0.288055 -0.155571 0.173609 
0.043574 -0.00447602 -0.665677 
-1.17768e-18 1.23522e-17 1 

-0.23353 -0.186813 0.364157 
0.0230279 0.0863661 -0.565194 
2.78961e-18 -5.54508e-18 1 

0.458788 1.3233 4.03791 
-0.597269 -0.0867421 -1.16633 
1.09706e-17 -3.97685e-18 1 

-0.473407 -0.380951 -0.0153267 
0.18123 0.352653 -1.68665 
6.08893e-18 -4.44393e-18 1 

-1.84009 -1.21583 -31.7687 
-0.244614 0.352668 0.877976 
4.13089e-18 -8.24593e-18 1 

0.56925 -1.20762 0.0944156 
1.08449 1.17032 0.0146744 
-8.86262e-18 4.47795e-18 1 

-0.281038 0.13629 4.83371 
-0.281189 0.332308 -2.45449 
3.68827e-18 -7.76477e-19 1 

-3.08463 -0.590201 3.17556 
-0.800962 0.386369 -0.958199 
2.77257e-18 -5.72485e-18 1 

-0.453362 0.0741065 -0.0484582 
0.111214 0.14833 -0.35681 
-1.26423e-17 7.61852e-18 1 

0.145061 -0.157465 1.26252 
-0.445291 -0.232553 1.26239 
-1.03692e-17 -1.58332e-17 1 

-0.72888 -1.14083 3.52906 
1.15382 1.14991 0.825717 
7.23043e-18 3.97717e-18 1 

-0.400729 -0.0665864 0.0169467 
-0.0457451 0.140856 -1.01931 
6.90192e-18 4.44736e-18 1 

-0.71979 0.321032 1.98584 
-0.265418 0.0939467 -0.833118 
-7.31377e-18 -3.06752e-17 1 

-2.07179 0.619662 -4.36513 
-0.673204 0.624678 -2.05555 
4.36831e-18 1.14526e-17 1 

-0.4328 0.156691 -1.75787 
-0.26972 0.203089 -4.62535 
-5.19123e-18 9.41084e-18 1 

-0.702485 -0.824789 -0.78296 
0.59189 0.533605 -0.95091 
-5.08869e-18 -6.21738e-18 1 

-0.407217 -0.0266959 -1.00433 
0.1091 0.026635 -0.22814 
-1.18326e-18 6.52833e-19 1 

-0.995707 -0.731134 -0.824888 
-0.267272 0.244133 -1.55416 
-8.65461e-18 3.18184e-19 1 

1.44805 -1.05195 -0.0659124 
0.924861 1.33181 0.194294 
-1.47389e-18 8.63281e-18 1 

-0.448121 -0.168309 0.301189 
0.422042 0.251727 -0.52263 
1.52966e-18 -2.9557e-18 1 

-0.0876288 -0.742991 -0.20316 
0.604611 0.0996992 -0.163691 
3.73502e-18 -1.68249e-17 1 

-3.56818 0.973442 10.715 
1.38056 0.679362 0.377194 
-5.15726e-18 -2.17342e-18 1 

-0.165953 0.757706 -0.370389 
-0.514221 0.216361 -0.325478 
1.22596e-17 1.05878e-17 1 

-1.91792 -0.285181 -0.0656032 
0.000113428 0.770079 -0.561485 
7.757e-18 -5.92744e-18 1 

-1.65524 0.216305 2.38421 
0.518389 0.51317 1.51941 
1.93975e-17 -7.88114e-18 1 

-1.62565 -0.989743 -3.28136 
-0.0798345 0.475292 0.510505 
5.20215e-18 1.05911e-17 1 

-1.56467 0.266532 -8.28728 
-0.523922 0.83919 0.81748 
-6.02015e-18 2.30772e-18 1 

-0.473771 0.104207 -3.42426 
0.0302269 0.028538 -3.12133 
-7.38671e-18 -7.13535e-18 1 

-0.215063 -0.332667 -0.0508658 
0.155145 0.0247286 -0.449434 
-1.02097e-17 1.86815e-17 1 

-1.25263 1.48409 1.50196 
-0.631461 1.22777 1.45689 
-1.60141e-17 1.01395e-17 1 

-0.42379 -0.470412 -0.288345 
0.479009 0.269612 0.163446 
-1.20285e-17 2.26264e-17 1 

-1.34349 2.35943 2.60685 
0.178303 0.456379 -1.48646 
5.54115e-18 -3.77575e-18 1 

-0.097447 -0.348365 0.28598 
0.329594 0.0674681 0.517279 
-8.97234e-19 1.4191e-17 1 

-0.523715 -0.513789 -0.213789 
0.265134 0.17954 0.648379 
6.29641e-18 -1.16559e-17 1 

-0.40291 0.206181 -1.47616 
-0.0615076 0.508456 -0.829697 
-2.98972e-19 1.67424e-17 1 

0.0139695 -0.602224 -0.132215 
0.57193 0.285567 0.450267 
-1.58364e-17 1.40017e-18 1 

-1.08193 -0.702544 -3.95731 
0.384904 0.62018 -1.44512 
-6.15966e-18 -1.02661e-18 1 

-0.298386 0.0605862 -3.23897 
0.0838639 0.152658 0.568549 
5.24594e-18 -2.02343e-17 1 

-0.290987 -0.0503085 -0.530468 
0.198911 0.0967854 0.363112 
-3.17249e-18 1.57663e-18 1 

-0.677453 -0.631822 -0.650571 
0.356668 0.303843 -1.61334 
6.44017e-18 -3.55319e-18 1 

0.116959 -0.787673 0.0101624 
0.655224 0.35833 -0.367233 
-8.5738e-18 2.32295e-19 1 

-0.858454 -0.0738073 4.09099 
-0.055121 0.398542 -0.549767 
-5.7868e-18 -1.09407e-17 1 

-0.46233 -0.896683 -1.08793 
0.385521 0.412265 -1.74833 
-7.54316e-18 -1.13877e-17 1 

-0.115774 -0.263214 -0.578959 
0.153709 0.0745744 -0.340529 
-8.09401e-18 1.02894e-17 1 

-0.677168 0.346752 12.2367 
0.175447 0.311126 4.14021 
-6.85876e-18 3.8577e-18 1 

-1.97266 -0.77023 -1.06974 
-0.448545 0.483562 -3.31256 
-8.58646e-18 7.09629e-18 1 

-0.599292 -0.495074 -4.21908 
-0.361709 0.200302 0.535753 
3.7685e-18 6.678e-18 1 

-0.510875 3.47202 -0.486709 
0.0081697 -0.0081266 -0.154593 
-7.84832e-18 1.16672e-16 1 

-0.170541 -0.331162 1.3023 
0.329324 0.195115 3.48604 
-4.0193e-18 -5.12496e-18 1 

-0.972673 -0.208117 4.88095 
0.183084 0.411427 48.0097 
-9.95003e-19 -5.18369e-18 1 

-1.20838 2.34667 1.03449 
-0.14495 0.94007 -5.4446 
-2.27239e-19 6.42354e-18 1 

-0.530961 -0.0309433 -0.947289 
0.0117262 0.00164831 -1.43572 
3.76829e-18 -2.80689e-17 1 

-1.19071 0.145936 -3.31171 
0.00248295 0.368198 2.48447 
5.69835e-18 -8.30223e-18 1 

-0.378363 -0.38795 0.589974 
0.139356 0.360009 -0.45206 
-2.0136e-18 7.17344e-18 1 

-2.96269 2.97078 2.47336 
-0.446692 1.24695 7.23185 
-6.69547e-18 -2.49513e-18 1 

-0.296751 0.498608 0.599903 
-0.490319 0.255686 -0.396975 
9.91652e-18 2.36108e-18 1 

-0.392569 -0.547308 0.627725 
-0.0148004 0.50923 0.563176 
8.03605e-18 2.63964e-17 1 

-0.521582 -0.264309 -0.0257029 
0.0171674 -0.0398787 0.352227 
-9.39104e-18 6.71821e-18 1 

-2.1738 1.41771 -0.358625 
-1.4561 1.4967 1.51673 
-3.24336e-18 7.78407e-18 1 

-0.675867 -0.332578 0.448528 
0.317012 0.0271374 -0.185857 
4.54175e-18 4.08247e-18 1 

-5.67647 -0.233015 9.59194 
1.49994 0.566469 -10.2947 
5.51308e-17 -1.65812e-18 1 
