# vtk DataFile Version 3.0
Output file generated by Yade's KinematicLocalisationAnalyser
ASCII
DATASET UNSTRUCTURED_GRID

POINTS 13483 float
663.806 27.9006 -0.440583
869.903 44.7242 -0.456781
130.133 6.1175 -0.446057
915.166 5.12777 -0.21712
540.688 7.49712 -0.309985
340.14 34.2298 -0.460806
169.513 6.76691 0.414645
619.706 10.0097 0.137998
537.672 22.0828 0.147973
803.27 12.0009 -0.409618
227.567 8.73725 -0.100445
277.546 6.29492 -0.27844
718.151 28.6445 -0.162103
694.024 13.8913 0.0991545
148.626 16.7587 -0.435877
239.225 34.1188 -0.392256
235.274 12.8445 0.267527
311.889 9.39055 0.379679
367.256 32.4614 0.455266
568.836 8.50635 0.34792
444.589 35.7892 -0.0981073
644.813 42.693 0.00160183
910.758 32.7459 -0.459087
774.438 40.9372 0.435777
496.576 15.8951 0.291736
260.019 43.5758 0.123362
532.566 26.6427 -0.489254
638.544 19.0833 0.218325
48.7523 15.2324 -0.455862
799.215 29.8091 -0.316417
522.124 4.83658 0.320901
17.858 22.5508 -0.29912
883.854 42.6796 0.249875
536.148 2.47992 0.476326
84.7962 43.2068 0.100519
566.044 29.8511 0.325067
575.66 16.4496 -0.409183
371.782 22.1254 -0.173532
579.238 25.171 -0.326971
379.263 32.5523 -0.394306
260.538 14.4585 0.30189
470.164 35.173 -0.0618241
748.129 6.8092 0.127883
208.734 6.14014 -0.379542
59.976 6.83274 -0.124553
74.0491 8.75719 -0.287661
766.458 8.44158 0.456672
25.3536 11.5829 -0.308133
667.75 43.9495 0.367886
750.607 22.4591 0.324663
186.687 31.915 -0.290856
862.992 34.062 -0.118716
38.1487 27.4148 0.113212
579.794 2.92948 0.324388
154.153 7.40252 -0.462319
647.478 32.8567 0.370084
547.223 25.7506 -0.12089
189.264 0.932588 0.258049
35.3778 2.3957 -0.303904
377.072 17.4071 0.252898
680.193 45.1283 0.133727
500.739 33.3927 -0.175431
432.179 1.03149 0.187332
779.141 7.54989 0.357753
28.5835 41.8674 -0.235787
277.376 29.832 0.289674
803.466 7.55325 0.206829
740.682 43.5395 -0.348355
452.054 8.46372 -0.478655
620.466 3.48598 -0.343766
838.68 28.5264 0.427044
141.902 7.56016 0.268842
540.716 24.823 -0.127956
517.546 14.6886 -0.12145
318.674 16.4637 -0.343407
22.3408 13.3602 0.248978
890.885 32.4172 -0.319309
359.919 38.5439 -0.275893
747.567 19.8763 0.298992
766.316 12.4557 0.266064
899.338 11.0354 -0.215944
504.18 33.9571 0.166724
100.061 37.1473 -0.266443
760.41 33.8152 -0.216194
714.415 37.342 0.0979031
919.778 39.3149 -0.105902
892.024 0.800987 0.503439
315.29 28.3696 0.43956
682.121 6.29203 -0.0957988
26.3392 5.17422 0.451347
144.008 37.1785 -0.148497
557.167 14.108 0.196576
880.197 24.2662 0.449804
212.114 28.1657 0.230319
48.3199 33.9902 0.265496
535 1.16133 0.111226
255.505 8.72621 -0.354239
841.989 38.9204 -0.238021
866.63 25.6778 0.231362
391.725 20.2567 -0.258775
178.275 26.3326 0.432211
599.372 37.571 -0.407434
412.327 14.8049 -0.500208
449.158 28.9714 -0.0996091
410.595 4.38744 0.410951
597.134 10.7657 -0.0914499
919.382 11.4794 -0.167079
87.118 38.2631 -0.388477
363.982 4.7349 -0.176287
612.741 9.40645 -0.325541
390.887 42.8363 0.440661
28.3267 23.7257 0.477541
33.0975 5.75674 0.316517
621.178 31.7692 0.397646
550.207 23.2765 0.13915
28.606 35.9828 0.407873
101.382 29.8402 0.210846
353.069 15.5977 -0.295914
658.859 18.544 0.11146
517.413 37.2517 0.303892
823.448 7.70473 -0.386968
813.823 6.06455 0.185915
420.88 36.628 -0.0944746
700.884 24.6631 -0.0909339
259.574 16.5589 0.492109
358.852 3.65405 0.465047
112.237 30.6836 0.311967
126.434 23.3736 0.256304
594.181 38.0572 0.0653678
332.865 18.6355 0.468305
793.621 33.4787 0.0985283
745.474 42.809 0.107372
523.888 20.1301 -0.384298
870.802 9.26362 0.321476
467.065 22.7977 0.217262
301.767 23.735 -0.30025
748.189 31.4908 0.282515
303.5 28.3819 0.385385
632.246 11.3624 -0.181891
361.528 35.4564 0.185501
551.049 11.3373 0.446933
399.692 30.5262 0.0818369
469.523 16.3277 -0.112891
346.493 41.0396 0.293963
208.028 29.1709 0.119015
874.085 42.5034 -0.150159
915.652 12.7724 -0.321113
6.47133 12.0591 -0.443734
473.814 21.9808 -0.412773
41.8769 21.8021 -0.0865843
410.294 30.6744 -0.466338
431.237 24.2268 -0.251958
81.4227 11.6636 -0.469441
56.6907 32.5964 -0.427189
246.5 13.2334 0.418523
681.424 38.7301 -0.402637
635.141 20.022 -0.466138
81.5364 20.6827 0.476925
777.473 44.4255 -0.405175
856.239 2.39908 -0.431198
733.073 40.6867 -0.593415
774.103 2.35408 -0.368511
603.765 26.0455 -0.387144
646.409 43.4359 0.435927
561.287 17.5561 -0.415389
912.746 2.80308 0.387473
244.127 24.4075 -0.121629
139.701 34.0582 -0.193985
269.989 6.50483 -0.372203
103.361 4.01198 0.252698
70.1639 9.82207 0.201514
301.378 35.2577 -0.301139
18.3728 24.1989 0.361065
610.095 18.8571 0.385966
667.458 38.9934 0.223592
506.405 20.8326 -0.360355
901.545 38.6871 0.373627
444.833 8.47973 -0.0921823
477.181 35.4528 0.3694
588.865 3.41347 -0.188557
25.0455 23.1512 -0.37387
635.069 4.26346 -0.369792
599.396 4.33472 -0.283838
225.651 11.2072 0.475003
465.001 15.9904 0.183937
340.479 6.28152 0.312709
424.536 18.7013 -0.323283
828.881 41.355 -0.108652
210.641 25.0703 0.406741
883.571 6.76838 0.321659
827.994 37.5732 -0.31577
419.653 10.0302 -0.184043
800.358 2.55794 0.343754
668.125 24.8189 -0.409318
831.937 17.8485 -0.394174
472.162 41.9577 -0.278567
544.862 12.0878 0.348142
510.122 43.4672 0.220839
488.209 8.61838 0.128598
736.131 38.7351 0.254805
733.085 33.6571 0.299703
210.179 38.1951 -0.338783
897.192 10.9024 -0.123358
648.192 43.8246 0.242718
12.4115 16.6142 0.166945
446.387 24.8557 0.333167
205.37 22.5736 -0.396539
101.806 38.0777 -0.198122
877.512 21.9446 0.407368
729.751 44.1809 0.239285
349.565 25.0376 0.355877
585.438 10.0214 0.320085
90.2551 43.288 0.161401
271.106 25.4532 -0.472526
613.145 23.2632 0.370116
534.007 18.0134 0.411812
287.693 0.889115 -0.341929
608.974 39.2614 -0.357655
587.328 40.3555 -0.44113
529.275 32.2106 0.386959
548.065 0.765935 -0.483457
785.903 18.0568 0.377579
196.982 11.805 0.154384
550.3 34.6218 -0.422342
622.386 38.7093 0.117775
79.5495 0.95069 0.272336
275.654 4.61674 0.157974
915.186 14.7611 0.142865
899.761 12.912 -0.407276
922.275 16.6406 -0.493274
332.482 8.47146 -0.224304
839.594 22.1657 -0.388747
446.668 40.6137 0.310285
492.544 0.814666 -0.398067
722.785 35.065 -0.408592
29.945 29.2736 -0.299093
361.986 40.3374 -0.455216
276.597 2.794 0.305826
887.453 40.3144 0.171849
797.806 46.0016 -0.223175
314.828 10.6929 0.167476
741.635 28.7246 -0.0965649
614.351 2.67213 0.259447
597.061 6.37248 0.413636
106.111 17.5694 -0.464498
332.309 1.03873 -0.221377
376.624 2.25477 -0.367313
15.2614 7.4702 0.35946
4.76131 30.447 -0.241306
178.091 18.5144 0.358163
74.9405 40.9089 0.20855
73.2481 28.1781 0.317499
464.986 14.2471 -0.45014
402.765 34.2104 -0.463753
860.963 35.0859 -0.109145
21.4173 3.93799 -0.284895
77.2373 6.78875 0.139562
692.803 37.1453 -0.153913
323.335 0.925651 0.322837
400.402 16.0186 -0.0912605
258.516 4.58651 -0.386041
725.805 20.8725 -0.19504
495.91 8.31232 0.393642
842.318 19.8205 0.370904
700.096 28.1786 -0.304804
746.556 18.0903 -0.100137
461.434 25.9023 0.487919
111.961 43.6497 -0.308537
598.072 41.4573 -0.0776601
829.014 13.1914 -0.217859
260.839 29.6342 -0.244316
34.6436 16.367 -0.180639
369.055 13.5698 0.480739
118.318 39.3189 -0.465757
293.609 41.4016 -0.183582
467.175 1.06575 0.175301
887.983 28.6808 -0.426359
766.444 0.788368 -0.477608
364.606 3.04165 0.46331
329.275 26.0159 0.140682
509.027 40.3345 0.206886
89.3207 7.86355 -0.44338
217.401 43.99 -0.377719
869.589 27.6018 -0.354283
544.917 37.8557 0.073097
219.71 40.4477 0.252803
176.661 41.4969 0.0257217
922.619 34.9087 -0.400571
917.679 12.181 -0.613704
671.106 3.61114 -0.50799
209.13 24.0136 -0.0933078
605.943 27.2314 0.106855
608.024 26.9068 0.252553
449.583 5.52921 -0.139174
529.678 0.938813 -0.277226
859.03 37.7181 0.459941
93.7469 29.8691 0.219652
731.929 17.9911 0.433779
301.306 15.3102 -0.328305
10.8298 2.33334 -0.333758
138.155 35.8584 -0.192876
73.5612 22.6429 -0.452707
785.865 35.6514 0.313689
892.067 47.6174 -0.0629826
204.218 27.5943 -0.173677
910.674 11.9904 0.446591
49.6516 35.9595 -0.248472
100.107 27.9546 0.149533
704.556 12.9328 0.357687
454.219 17.7855 -0.514147
572.241 16.3971 0.115087
261.452 27.6901 -0.183349
689.818 4.53463 -0.400779
922.416 10.7503 0.326116
32.9433 30.6179 -0.268228
296.609 7.69366 0.190017
244.004 14.8897 0.251635
1.11032 34.9882 0.145054
247.47 14.3141 -0.360215
232.651 10.8685 -0.145706
235.691 25.8847 0.28431
146.432 27.3924 -0.128225
604.166 14.8228 -0.314547
184.01 13.9347 0.337986
881.346 40.4801 -0.216386
191.529 3.77889 -0.471078
52.2938 36.9313 -0.357241
835.3 48.115 -0.426486
308.85 31.0977 0.383008
756.315 23.4201 -0.424324
897.223 27.3889 0.495725
330.473 9.07352 -0.113038
825.405 29.2345 0.332257
361.284 2.62837 -0.353593
457.512 23.3554 0.363964
752.919 15.2117 -0.431009
116.233 11.5713 0.424634
531.423 4.00005 -0.451191
846.294 17.4848 -0.18553
97.2247 7.56254 0.17883
309.385 14.4753 0.188215
465.753 11.5057 -0.204958
911.025 2.55216 0.442729
437.48 1.87476 -0.468821
194.603 38.026 0.277778
832.025 10.2345 -0.331359
141.514 35.2284 -0.184427
289.087 30.9426 -0.390626
440.389 21.3624 0.214015
634.91 13.0567 -0.327602
425.906 9.73779 -0.436825
502.465 26.9792 -0.42674
870.617 45.7803 0.412862
52.3269 10.7069 -0.0970384
328.892 37.6998 -0.259699
417.495 25.8958 -0.380529
450.457 20.5688 0.245588
575.125 44.269 0.356485
851.295 35.8468 -0.197854
740.054 34.2358 -0.351218
247.986 33.5139 0.387584
15.5037 30.4595 -0.154054
733.215 35.6689 -0.122129
561.318 41.4401 -0.47205
252.234 38.2023 -0.100319
763.83 30.3207 -0.10619
166.686 9.12207 0.189454
403.511 21.0913 0.264682
510.844 41.3998 0.100036
455.299 19.0675 0.207227
866.853 47.112 0.292588
468.644 3.32844 0.414397
55.0667 24.7284 -0.292455
517.845 30.7824 0.333099
478.794 40.4239 0.352878
885.337 33.5191 0.228269
822.252 28.4427 -0.238325
597.46 18.0408 -0.142335
875.382 35.3657 0.416049
322.399 2.01037 -0.444818
416.7 28.2859 -0.454905
31.9983 37.6759 0.252289
828.782 29.8674 0.13569
676.688 19.334 -0.463199
509.845 0.780593 -0.479204
139.214 4.46278 0.280981
470.139 39.2762 -0.101962
13.4279 0.915351 0.327087
910.264 5.31521 0.195755
[...]
POINT_DATA 13483
TENSORS Strain_matrix float
-0.0621049 -0.069399 2.72065 
0.0623834 -0.0248518 0.418924 
-4.34293e-18 5.51319e-18 1 

-0.262726 -0.0938764 1.22043 
0.0722685 0.157601 -5.52939 
3.09649e-18 8.90084e-18 1 

-0.0381678 -0.020431 0.34438 
0.00123294 -0.0899761 1.85055 
-4.3963e-18 -3.17514e-18 1 

-0.71049 0.00286908 -0.11065 
-0.000964807 0.192708 -0.308557 
-5.1056e-18 3.57392e-18 1 

-0.0768464 -0.0199634 0.0440616 
0.0114616 -0.0693414 -0.00189676 
2.62444e-18 1.01467e-17 1 

-0.0372244 -0.032778 0.707377 
0.0153103 -0.0419666 -0.363523 
3.87132e-18 4.15315e-18 1 

-0.0278744 -0.0147585 0.0179028 
0.0196901 -0.0788204 -0.178835 
3.78025e-18 -2.86315e-18 1 

-0.0607348 0.0384091 -0.0864647 
-0.00509252 -0.0631574 -0.0434878 
4.78582e-18 -1.80619e-18 1 

-0.0286618 0.0292304 -0.155452 
0.108153 -0.0292378 -0.219821 
4.99365e-19 -9.23825e-18 1 

-0.146636 -0.00109876 -0.0251951 
-0.00907569 -0.0455271 -0.112828 
-1.19827e-18 2.54633e-18 1 

-0.0221502 0.0201741 -0.0665764 
-0.025451 -0.06636 -0.156968 
2.112e-18 1.7391e-17 1 

-0.043727 -0.0217398 0.152577 
-0.0287116 -0.0836757 0.431703 
9.30085e-18 -9.94501e-19 1 

-0.108319 0.207671 0.564943 
-0.016271 -0.0104691 0.27458 
-2.75184e-18 -1.93396e-18 1 

-0.0858151 -0.0152397 -0.241275 
-0.00544059 -0.0272377 0.238304 
-6.01889e-18 -3.98172e-18 1 

-0.0693092 -0.0116154 0.183566 
0.00733342 -0.0551564 -0.401389 
1.84194e-18 3.84216e-18 1 

-0.052029 -0.00960608 -0.00434736 
-0.0261049 -0.0346459 0.662894 
-4.76327e-18 -1.29907e-18 1 

-0.0288624 0.0173568 -0.0311027 
-0.00649269 -0.134037 -0.06726 
-4.09953e-18 -7.71676e-18 1 

-0.0770729 0.00130272 0.0982474 
0.0259657 -0.0879769 -0.0897881 
-7.4691e-18 2.04561e-18 1 

-0.076162 -0.0703444 0.515283 
0.0840737 -0.04341 -0.947634 
-1.39445e-18 -1.23299e-18 1 

-0.0605422 0.0404589 0.179263 
-0.0588531 -0.0960676 0.0188819 
4.7562e-18 -5.23893e-18 1 

-0.105139 -0.0291925 -0.00806886 
0.0498755 -0.00350357 0.0224961 
5.57179e-19 3.48237e-19 1 

-0.132083 0.027346 -0.0428955 
-0.00714558 0.0628 -0.0919567 
7.51006e-18 1.00447e-17 1 

-0.180215 0.0632193 -0.266921 
-0.0453786 0.104358 2.03217 
-1.05567e-18 6.24087e-18 1 

-0.112942 0.0588754 0.61704 
-0.0699937 -0.0141536 0.59124 
-3.99295e-18 2.92154e-18 1 

-0.057426 -0.0382994 -0.110703 
0.0771875 -0.0316971 0.106784 
-1.12777e-17 9.18957e-18 1 

0.00307357 -0.0187344 -0.173045 
-0.0115998 -0.046539 -0.181374 
-6.8923e-18 -8.67095e-18 1 

-0.0498834 -0.00150523 -0.832345 
0.00288679 -0.047819 -3.5156 
-6.54614e-18 5.815e-18 1 

-0.142858 -0.0356266 0.0490471 
0.0220685 0.0352854 -0.33999 
-6.17094e-19 -5.98497e-18 1 

-0.059645 0.0552054 0.138915 
0.0185507 -0.0711583 0.418399 
9.57756e-18 4.83477e-18 1 

-0.212887 -0.0619104 0.0334332 
-0.0361729 0.0772493 -0.292024 
-4.02897e-19 -1.7581e-18 1 

-0.0525767 -0.0243902 -0.293128 
-0.014273 -0.160037 0.410216 
-4.92671e-18 -3.102e-18 1 

-0.0245173 0.0763677 0.387036 
0.0509079 -0.122407 0.0278309 
1.58015e-18 -4.40802e-19 1 

-0.12628 -0.23043 -0.978397 
0.307025 0.146528 -0.540706 
1.28714e-17 1.40127e-18 1 

-0.0655772 0.0284636 -0.892145 
-0.0171561 0.0239963 -1.74239 
5.35264e-18 1.79084e-17 1 

-0.0412489 0.0422749 0.0927574 
-0.0368162 -0.0315463 -0.0495808 
-7.30656e-18 7.51532e-18 1 

-0.0450896 0.031561 -0.341022 
-0.0576625 0.00837218 -0.5174 
1.16719e-18 1.01156e-18 1 

-0.0571488 0.00948024 -0.490372 
-0.000791125 -0.0564686 0.0914903 
-7.1946e-18 1.27531e-18 1 

0.00567555 0.00224303 0.0716794 
0.00178296 -0.14904 0.0998332 
-3.77393e-18 -5.90919e-18 1 

-0.0731512 -0.0290587 -0.193692 
0.155052 -0.0600246 0.0508108 
-7.53911e-18 8.73396e-19 1 

-0.0220007 0.000703643 0.00924088 
-0.0169919 -0.0642927 0.00854948 
-3.71686e-20 -4.46023e-19 1 

-0.0525068 0.0755766 0.208213 
-0.0320219 -0.113808 -0.219467 
-6.24196e-18 8.35463e-19 1 

-0.0243757 -0.0242634 -0.119569 
0.00577325 -0.00141157 0.216426 
7.5636e-18 1.10239e-17 1 

-0.201472 0.00940942 0.0670672 
-0.0876176 -0.0303677 -0.0295987 
8.959e-18 -6.91523e-18 1 

-0.0246682 -0.0194447 -0.0870269 
0.0109296 -0.0951915 0.279054 
-6.74289e-20 -8.56347e-18 1 

-0.0332608 0.0142848 -0.0200528 
-0.0125171 -0.116159 0.146873 
1.95298e-18 1.33333e-18 1 

-0.0489438 0.00911367 0.0303316 
0.02014 -0.0781188 0.0357644 
1.24365e-18 1.48972e-18 1 

-0.120926 0.0246553 0.594576 
-0.0364804 -0.0565594 0.572944 
4.60335e-18 -4.17422e-18 1 

-0.0327198 -0.0211465 0.0240629 
0.00413992 -0.13644 0.00981271 
4.01273e-18 1.12678e-17 1 

-0.124751 -0.0368952 -0.2528 
0.0630208 -0.000642624 -0.18468 
3.76484e-18 2.47068e-18 1 

-0.152546 -0.0346637 0.229275 
-0.0947918 0.0641005 -0.307448 
7.81274e-18 5.01415e-18 1 

-0.00483639 -0.0862837 0.28739 
-0.0572312 -0.0566686 0.0192433 
-1.20464e-19 -3.19229e-18 1 

-0.10412 0.149261 0.370168 
0.0726722 -0.020719 -0.0656972 
7.16616e-18 3.57481e-18 1 

-0.0802324 -0.0195256 -0.0902501 
-0.00310022 -0.0118719 0.100209 
-1.45114e-17 -5.26038e-18 1 

-0.0814154 0.0181692 0.0667343 
-0.000301266 -0.0634364 -0.0869356 
1.38182e-17 1.23282e-17 1 

-0.0493244 -0.00325779 0.332662 
-0.00643064 -0.112439 -0.310626 
1.71515e-18 -3.51606e-18 1 

-0.0491798 -0.0563297 -0.745555 
0.0828464 -0.0104534 -1.11614 
6.30318e-18 -4.75895e-18 1 

-0.0407633 -0.0919839 0.138178 
0.147607 -0.0302524 0.155085 
6.97313e-18 1.40754e-17 1 

-0.0454686 -0.0471957 0.262852 
-0.00954865 -0.136399 -0.00458111 
-4.42097e-18 -1.79546e-17 1 

-0.0264714 0.00946515 -0.00900558 
-0.0252599 -0.130776 -0.16622 
-8.54132e-19 2.19634e-18 1 

-0.0438137 -0.00437521 -0.0740986 
-0.0512932 -0.0607355 0.0202683 
6.93505e-18 7.03471e-19 1 

-0.0690497 0.104267 0.386371 
-0.00770287 -0.0164996 0.2243 
1.15318e-18 1.19952e-17 1 

-0.0967023 -0.110973 0.400535 
-0.00286785 0.0179712 -0.105072 
-3.25927e-19 -3.32911e-18 1 

-0.0582869 -0.0372649 -0.16758 
-0.000909233 -0.0451121 -0.0412124 
8.63803e-18 6.91619e-18 1 

-0.102592 -0.0140239 -0.241556 
0.0376917 -0.05294 0.127827 
2.4247e-18 3.2235e-18 1 

-0.0276457 0.0395173 0.0799789 
0.00618111 -0.0476411 -0.0954837 
-6.75524e-18 4.5929e-18 1 

-0.0530914 0.0208436 0.127537 
-0.0627884 -0.098484 0.33073 
-1.12756e-18 -1.12756e-17 1 

-0.129839 0.0715176 -0.0728235 
-0.00941026 -0.0813993 -0.206543 
-2.60182e-18 7.59731e-18 1 

-0.0854177 0.0262382 0.096778 
-0.0457012 0.0303661 -0.0957924 
6.91728e-18 -6.43276e-18 1 

-0.0708795 0.000468619 -0.160964 
-0.0544281 -0.0961004 1.11693 
1.84248e-18 3.66653e-18 1 

-0.111578 -0.0087566 0.0693538 
-0.023578 -0.0948974 0.0947369 
5.74424e-18 -1.08127e-18 1 

-0.23448 0.000431943 0.362275 
-0.0248111 0.107186 0.562293 
-2.42562e-18 1.00436e-18 1 

-0.023516 0.0101338 -0.0370299 
-0.00550041 -0.0754957 0.0880448 
-4.12991e-18 1.11307e-17 1 

-0.0339125 -0.019798 -0.0412846 
-0.0245018 -0.0693528 0.13674 
-3.52616e-18 4.64105e-18 1 

-0.0537089 0.0056747 0.0759751 
-0.0119029 -0.0764815 -0.157916 
-3.65644e-18 1.42296e-17 1 

-0.048959 -0.0133157 -0.348639 
0.00316069 -0.0658047 -0.443796 
4.68364e-18 -1.19917e-17 1 

-0.0170635 -0.0187066 -0.129452 
-0.0261253 -0.119549 0.0523262 
1.929e-18 6.13942e-18 1 

-0.124103 -0.141215 0.0666167 
0.0638762 0.0983987 1.79088 
5.82934e-18 -8.50769e-18 1 

-0.0513755 -0.0479431 -0.0595936 
0.0243766 -0.0827056 0.737801 
-5.58798e-18 -5.58798e-18 1 

-0.091557 -0.0198981 0.18236 
-0.0609281 -0.0816756 -0.312265 
-1.79642e-18 -7.02699e-18 1 

-0.0914423 0.064345 -0.138808 
-0.0373097 -0.0370051 -0.26441 
1.09285e-17 7.17845e-19 1 

-0.208883 0.0356989 0.0315828 
-0.0590862 -0.0473293 0.13801 
2.27192e-17 -3.66031e-18 1 

0.0128016 -0.0140954 0.106357 
0.0221359 0.0214001 -0.0352275 
6.76146e-18 7.32492e-18 1 

-0.015007 0.0365919 -0.58428 
-0.0201355 -0.0559777 -0.227727 
2.00758e-18 3.81149e-18 1 

-0.0401867 -0.0655671 -0.306405 
0.0799843 -0.0221547 -0.373887 
-3.83075e-18 -1.95487e-18 1 

-0.139038 -0.105992 -0.784144 
0.160753 0.0334692 1.02928 
4.40496e-18 3.53315e-18 1 

-0.488947 0.104279 -0.00242434 
-0.100475 0.252032 -0.428391 
3.34649e-18 5.90558e-18 1 

-0.227029 2.2004 -2.45679 
0.0259786 0.198674 0.239777 
-4.13003e-18 3.86755e-17 1 

-0.0563404 0.080062 0.273279 
-0.0140201 -0.0946741 -0.474471 
2.73025e-19 8.19074e-18 1 

-0.0765866 -0.0392756 0.0135486 
-0.00257459 -0.0646577 -0.116504 
-2.89163e-19 5.24624e-18 1 

-0.0632381 0.00323533 -0.173357 
0.0197802 -0.0725609 -0.59356 
-7.75909e-18 -8.34215e-18 1 

-0.0512917 -0.0482676 -0.11933 
0.048926 -0.0610433 -0.0212187 
-7.99346e-18 6.08987e-18 1 

-0.037591 0.0269859 -0.0137124 
-0.0011459 -0.0727788 0.244445 
1.973e-17 -6.32848e-18 1 

-0.134089 0.172466 1.22065 
-0.112136 0.060468 -0.365644 
-6.35451e-18 -1.78475e-18 1 

-0.111453 -0.0567483 -0.0425187 
-0.0170829 -0.0359758 -0.00903803 
3.83832e-18 -7.19684e-19 1 

-0.0551506 0.0170336 -0.12422 
0.103156 0.044363 -0.372592 
-8.85898e-18 -5.9157e-18 1 

-0.0682709 -0.0138622 0.0612846 
-0.00923311 0.218621 -0.445102 
3.66335e-18 -2.01231e-18 1 

-0.0642229 0.0160588 -0.00188027 
0.000279477 -0.0527041 0.100144 
-1.42021e-17 -2.28046e-18 1 

-0.00410559 0.108679 -0.409547 
-0.0749485 -0.0195891 0.509298 
4.47122e-18 -7.15394e-18 1 

-0.114975 -0.0179729 -0.261966 
-0.0202522 0.0243286 0.117489 
-8.11236e-18 -1.28801e-17 1 

0.00430364 0.0193283 0.105335 
-0.0544376 -0.0899838 0.108931 
-1.84047e-18 6.27434e-18 1 

-0.0528215 -0.0260828 0.394214 
0.0186816 -0.0235299 -0.25498 
-5.55854e-18 -4.5173e-20 1 

-0.0763952 -0.0251151 0.0645115 
-0.00472164 -0.00734511 -0.00422059 
2.82478e-18 7.71442e-19 1 

-0.0431831 -0.0147063 3.69198 
0.00945958 -0.066755 6.13957 
-3.58838e-18 -5.75559e-19 1 

-0.0634213 -0.0150076 -0.0745683 
-0.0334509 -0.0225823 -0.130341 
4.91013e-18 -8.7663e-18 1 

-0.0426807 -0.0182539 0.0378255 
0.0128205 -0.100061 0.358042 
-5.90319e-18 3.1193e-19 1 

-0.0752039 -0.00380544 0.2083 
0.0301482 -0.0588154 0.0325739 
5.47104e-19 -4.79367e-18 1 

-0.271318 0.0739337 0.332248 
-0.160446 -0.0341032 -0.022741 
-3.27704e-18 -7.32514e-18 1 

-0.0246173 0.00546309 0.31868 
-0.0128565 -0.0298762 -1.3821 
6.46246e-19 -1.72952e-17 1 

-0.063308 -0.00585792 0.00282243 
0.012061 -0.0900872 0.0462786 
-3.52372e-19 8.67088e-18 1 

-0.078065 0.0407039 0.323479 
0.00342986 -0.085259 -0.346202 
1.75635e-17 6.14444e-18 1 

-0.0579448 -2.26554e-05 1.85612 
0.00061571 -0.0197537 0.732204 
-5.71762e-18 -3.23126e-18 1 

-0.00634991 0.0990722 -1.13577 
0.0387185 -0.129963 1.46379 
-5.27542e-18 5.98374e-18 1 

-0.0259847 0.014862 0.0300177 
-0.0237509 -0.105671 0.0193602 
-8.68626e-18 2.13347e-18 1 

-0.0425404 -0.0903546 0.977236 
0.0904948 0.00738569 -0.648583 
-5.5295e-19 9.98877e-19 1 

-0.10474 0.0610199 -0.0343019 
-0.0275743 0.038222 -0.301636 
1.13536e-17 4.04858e-18 1 

-0.046595 -0.031578 0.0118308 
0.0129909 -0.0103645 -0.431944 
-6.77023e-18 6.67841e-18 1 

-0.146379 -0.0610136 0.235571 
-0.0453959 0.0601137 0.14296 
-8.74633e-18 3.58824e-18 1 

-0.0402947 0.0161025 -0.00364618 
0.0330094 -0.0664146 -0.0619413 
-1.1298e-18 -1.20512e-17 1 

-0.0833289 -0.093923 0.0562849 
0.146161 -0.00875245 0.118882 
-1.34568e-17 -2.44141e-18 1 

-0.0631431 0.0129443 0.223844 
-0.00728893 -0.0132786 -0.0709522 
1.9284e-18 1.50766e-18 1 

-0.135433 0.0666212 -0.0288728 
-0.0752249 -0.104848 -0.193704 
-1.57394e-17 1.88351e-17 1 

-0.124527 0.0801345 0.11163 
-0.0122557 -0.0383248 -0.0251252 
1.20087e-18 1.08624e-17 1 

-0.0504984 0.043542 0.322905 
-0.0340784 -0.0121801 -0.107526 
-1.48918e-17 1.67744e-18 1 

-0.0683548 -0.0080161 -0.0248143 
-0.0119639 -0.0144738 -0.0398364 
-2.78451e-17 6.89742e-18 1 

-0.0356633 0.00137599 1.65447 
-0.00246665 -0.0693564 -0.810041 
-1.46937e-18 4.71931e-18 1 

-0.0508918 0.00837222 -0.366488 
-0.0184127 -0.127168 0.0814614 
-1.69311e-18 5.48178e-18 1 

-0.103186 -0.0131617 0.196733 
-0.00743286 0.0123473 0.0753177 
-1.50187e-17 -8.62676e-18 1 

-0.0406037 0.0702708 -0.0165829 
0.00022971 -0.0935609 -0.206053 
4.73746e-18 2.78595e-18 1 

-0.024251 -0.0182078 0.0702429 
-0.0190451 -0.0413678 -0.227875 
6.25155e-18 -5.14046e-18 1 

-0.0319801 0.0314212 0.171626 
-0.0315071 -0.0811898 -0.0755455 
1.22546e-17 -4.30888e-18 1 

-0.0650162 0.0119536 -0.508869 
-0.0112693 0.0262289 0.285186 
-9.63627e-18 -2.97492e-18 1 

-0.146181 0.0169103 0.0437994 
0.0211262 0.0490308 0.019768 
9.57267e-18 7.12297e-18 1 

-0.0316251 0.0208768 -0.137322 
0.00443208 -0.0332697 0.830952 
1.3128e-17 -6.39649e-18 1 

-0.234273 0.103716 0.220609 
0.0969218 -0.0513357 -0.150734 
3.60981e-18 1.03137e-17 1 

-0.058716 -0.0501845 0.0410371 
-0.0328747 -0.0165313 -0.14453 
-7.58145e-18 -1.0608e-17 1 

-0.0258775 -0.0262596 -0.218456 
-0.0303742 -0.00975614 0.120624 
2.22469e-18 -8.06659e-18 1 

-0.122002 -0.0398575 0.748271 
0.158114 0.166587 -1.16048 
-5.19107e-19 1.31366e-18 1 

-0.0622082 -0.017526 -0.055207 
0.0691395 -0.0266793 -0.478868 
-9.85937e-18 3.5039e-18 1 

-0.065812 0.00458221 -0.0283565 
0.0104273 -0.0582729 0.128719 
-1.17028e-19 8.03343e-18 1 

-0.0547663 -0.109392 0.216238 
-0.211773 0.0275372 -0.495459 
-1.5846e-18 4.16464e-18 1 

-0.0944615 -0.0202991 0.180871 
0.0297278 -0.037218 -0.0859381 
-1.05343e-17 2.56426e-18 1 

-0.0348439 -0.0697721 -0.0770275 
0.0758811 -0.031712 0.0738057 
-2.4998e-18 1.94984e-18 1 

-0.0368376 -0.0445277 -0.288968 
0.0847006 -0.0520625 -0.0241153 
-2.67857e-19 -2.78879e-18 1 

-0.0392822 -0.0293831 -0.4345 
0.041785 -0.0440996 -0.0493844 
-2.04429e-18 -1.18317e-18 1 

-0.00691094 -0.0288242 0.0631059 
0.0438878 -0.0430236 0.0795827 
-1.60159e-17 -2.72863e-18 1 

-0.139288 -0.216316 0.41443 
0.0153098 0.15204 -0.602816 
1.69456e-18 -3.74858e-18 1 

-0.254949 0.140913 0.766268 
-0.0950729 -0.0421535 0.100334 
-1.59e-17 -1.3125e-18 1 

-0.0331201 0.00039715 0.0837821 
-0.0142215 -0.116807 -0.0150874 
-1.11062e-17 3.60445e-19 1 

-0.0428749 0.00344804 -0.520105 
0.0228578 -0.0481801 -0.577365 
5.07899e-18 8.12429e-18 1 

0.0113743 0.0512259 -0.049098 
0.0176362 -0.104684 0.117431 
9.72942e-18 1.01052e-17 1 

-0.0359032 -0.0432971 4.2402 
0.0292424 -0.051714 6.75564 
-3.26209e-18 -6.48947e-18 1 

-0.104034 0.0624665 -0.109449 
0.124262 -0.0396249 -0.228424 
6.00557e-18 3.3168e-18 1 

-0.0485107 -0.0289793 0.332185 
-0.0208779 -0.0813824 0.206214 
1.54049e-17 -1.9525e-17 1 

-0.0543879 0.0141207 0.798944 
0.0331152 -0.0358898 -0.525731 
1.09458e-19 3.99521e-18 1 

-0.0376428 -0.0252028 0.111787 
0.00870311 -0.0815081 0.243515 
-3.30949e-19 1.52525e-18 1 

-0.110197 -0.0129589 -0.3746 
-0.033054 -0.0104029 0.410735 
1.19967e-18 4.83724e-18 1 

-0.0872648 -0.0660701 1.34966 
0.0144955 0.0275924 -1.77712 
-2.02417e-19 1.68411e-18 1 

-0.0333779 -0.004434 0.347569 
-0.0193946 -0.0330334 0.5181 
1.69098e-18 1.80598e-18 1 

-0.149083 0.0401153 -1.27072 
0.0386765 0.0526166 -2.3185 
2.06478e-19 -1.84356e-18 1 

-0.17734 0.0674123 0.00602656 
0.00569264 -0.103547 0.187803 
-1.5418e-18 -1.85923e-18 1 

-0.112264 -0.0496125 25.5899 
0.0012424 0.0521248 -10.2744 
-4.87804e-19 -1.21467e-18 1 

-0.08019 -0.0138972 -0.0283761 
-0.0523868 -0.0803162 -0.0916153 
5.42418e-18 -7.10121e-18 1 

-0.0606601 0.00330366 -0.0629804 
0.0655676 -0.0380195 0.437733 
2.56357e-18 7.14596e-18 1 

-0.097884 -0.0952409 -0.954563 
0.0121959 0.13058 3.84975 
6.8189e-18 4.61833e-18 1 

-0.110801 0.0532999 -0.438475 
0.0528274 -0.0340858 -0.486114 
-7.29788e-18 1.65893e-18 1 

-0.367421 0.22426 -0.152414 
-0.090238 -0.0747294 0.0982188 
-6.20607e-18 -3.73569e-18 1 

-0.025868 0.0224072 0.0480038 
-0.0270865 -0.0601641 0.0887487 
6.10121e-19 4.88097e-18 1 

-0.0810751 -0.0555465 0.166648 
-0.0150962 -0.0375945 0.0591159 
-3.98343e-18 -4.09109e-18 1 

-0.0169016 -0.0463819 0.0609544 
-0.000182584 -0.11766 0.0800364 
9.74672e-18 2.05503e-19 1 

-0.0429314 0.0094855 0.100823 
-0.0130524 -0.11965 -0.345607 
9.31506e-18 -7.34709e-19 1 

-0.0285532 -0.0093106 -0.012873 
-0.00884417 -0.0781162 0.0715638 
-9.45025e-18 -2.42314e-19 1 

-0.0118526 0.0470011 0.241083 
0.0503547 -0.05386 -0.175266 
-2.86066e-18 8.38537e-18 1 

0.0167619 0.0773266 0.323443 
0.0641387 -0.117043 0.146828 
1.5418e-17 2.81902e-18 1 

-0.0677712 -0.0181599 0.604773 
0.00367513 -0.0172616 -0.331174 
4.46276e-18 -9.67715e-18 1 

-0.0870364 0.0476995 -0.0303986 
-0.0447223 -0.0395288 -0.198758 
-1.91561e-19 -4.08961e-18 1 

-0.0886743 0.00840976 0.0986566 
-0.0351287 -0.0618797 0.179959 
-4.04129e-18 -8.40589e-18 1 

-0.218994 0.0958997 1.47182 
0.0113311 0.120059 0.798358 
-5.80451e-18 8.93979e-18 1 

-0.065864 0.00354678 0.0500951 
-0.0286681 -0.0508402 -0.162062 
-2.81534e-18 -4.36837e-18 1 

-0.0263339 0.0686983 -0.127454 
-0.0387066 -0.103426 0.619754 
4.40155e-18 -1.13523e-17 1 

-0.0748731 0.0544592 -0.00288562 
-0.0324268 -0.095683 -0.0344255 
-2.63958e-18 5.27916e-19 1 

-0.00902649 0.140664 0.391643 
-0.119798 -0.0554204 -0.411835 
-3.61408e-18 -7.65897e-19 1 

-0.0789458 -0.0151913 0.102533 
-0.0336058 -0.150483 0.0660729 
6.02345e-18 1.3403e-18 1 

-0.0432912 -0.00937372 -0.0318444 
-0.0326725 -0.0662745 0.0135584 
-2.12543e-18 -9.90406e-18 1 

-0.0508472 0.00981549 -0.605686 
0.0185092 -0.0790507 0.333887 
5.23223e-18 -1.55394e-17 1 

-0.148475 -0.0202341 -0.0784835 
0.0631826 0.0279774 -0.285702 
7.80523e-18 1.94179e-17 1 

-0.059898 0.0148424 0.0387328 
-0.0753738 -0.061886 0.137578 
9.82374e-19 3.9295e-19 1 

-0.0795867 -0.0407449 0.295022 
-0.0499407 -0.060456 0.336417 
-1.47255e-18 -7.92781e-18 1 

-0.26142 -0.263106 0.191061 
0.292849 0.130203 0.0696327 
-1.49354e-18 1.38686e-17 1 

-0.0496618 -0.0413997 -0.100817 
-0.00913187 -0.0610947 0.46124 
-7.37906e-18 6.83543e-18 1 

-0.185212 0.0644929 -0.0179561 
-0.0221728 -0.00756769 0.199399 
-2.49961e-19 -1.47346e-18 1 

-0.141641 -0.0914095 0.878039 
0.146931 0.0389034 -0.586472 
1.71244e-17 -7.6315e-18 1 

-0.0613577 -0.0697395 -0.116859 
0.0236776 -0.0710281 -0.0370194 
-1.29718e-17 1.05387e-18 1 

-0.2044 -0.119682 -0.216667 
0.0879662 0.0344412 -0.00151766 
-2.69881e-18 -1.77153e-18 1 

-0.0741247 0.010163 0.308934 
-0.0875737 0.033031 0.432723 
-2.53419e-18 -3.24445e-19 1 

-0.150032 0.133322 -0.228634 
-0.0927131 0.0229277 0.589283 
-4.99329e-18 1.56054e-17 1 

-0.0510221 0.00776529 -0.0467362 
-0.0328197 -0.0804966 0.416162 
1.80908e-18 -1.7483e-17 1 

-0.0450745 0.0140466 -0.271754 
0.0135393 -0.121241 -0.202662 
8.98565e-18 -6.61964e-18 1 

-0.0676964 -0.00558661 0.0523434 
-0.0324358 -0.0699061 -0.174909 
8.94669e-18 -2.10756e-17 1 

-0.0583771 -0.0218559 -0.0348995 
-0.0437737 -0.0714129 0.238061 
5.70631e-18 1.14364e-18 1 

-0.112491 -0.0207937 0.308549 
-0.0357259 0.0121995 0.00490825 
-6.87941e-18 6.13432e-18 1 

-0.101106 0.0596369 0.60797 
-0.0386704 -0.00163728 0.890322 
2.7596e-18 -4.90596e-18 1 

-0.0309233 0.00379468 -0.0466116 
-0.0513058 -0.0619636 0.00794378 
8.42488e-18 -9.15747e-20 1 

-0.186723 -0.052135 -0.0336341 
0.0267307 -0.0254587 0.202935 
4.26348e-19 7.23342e-18 1 

-0.170972 -0.0286034 0.181774 
0.0734226 0.0743115 0.0432818 
-3.10176e-18 2.01691e-18 1 

-0.0902411 0.0194693 -0.104093 
0.0501961 -0.00352831 -0.126952 
5.73448e-18 5.60282e-18 1 

-0.0254025 0.0309855 -0.135935 
-0.0301366 -0.0612522 -0.164748 
7.07412e-19 -1.65181e-18 1 

-0.0522059 -0.0103846 -0.593681 
0.0359643 -0.0379171 -0.422985 
-2.90123e-18 6.2314e-18 1 

-0.0364278 -0.016494 -0.0459605 
0.0538331 -0.0268936 0.0852929 
2.93727e-18 -5.14022e-18 1 

-0.193171 0.117792 -0.00559554 
0.0840372 0.0463153 0.502387 
-3.74686e-18 -8.21892e-18 1 

-0.0829274 -0.0727072 -0.112373 
0.112922 0.0455663 -0.062811 
2.77852e-18 1.64975e-18 1 

-0.040037 0.00552762 -0.229073 
-0.0436631 -0.0526896 -0.312625 
-3.84169e-18 -2.89689e-18 1 

-0.0964284 -0.00956084 -0.0428635 
0.0124826 -0.0595403 -0.478902 
1.02004e-17 5.18802e-18 1 

-0.0265823 0.0525157 0.0769208 
0.00593546 -0.094176 -0.208954 
1.20159e-17 -8.06994e-18 1 

-0.0369174 -0.00450711 0.714142 
-0.0163492 -0.0464916 -0.288349 
-8.39762e-18 -7.85425e-18 1 

-0.0733082 0.0830959 0.232588 
-0.00911133 -0.0173327 -0.053268 
-5.04226e-18 3.649e-18 1 

-0.0314905 -0.0110388 -0.0181653 
0.000531225 -0.0704436 0.069113 