# vtk DataFile Version 3.0
Output file generated by Yade's KinematicLocalisationAnalyser
ASCII
DATASET UNSTRUCTURED_GRID

POINTS 13483 float
465.75 46.1463 -0.447944
568.213 91.5886 0.445608
107.193 6.16817 -0.437574
589.552 7.73367 -0.313718
407.02 8.31273 0.529005
277.988 51.5776 -0.462914
140.929 7.22013 0.474184
447.435 15.6991 0.21104
402.915 27.8071 -0.140473
541.033 18.1713 -0.687216
187.844 11.1679 -0.12085
227.752 7.92771 -0.481014
490.874 61.1468 -0.137062
486.706 25.6324 -0.108933
124.102 17.989 -0.456295
197.574 40.048 -0.394497
193.763 13.5514 -0.307961
252.557 12.3666 0.50289
297.07 42.3081 0.481462
426.189 8.75098 -0.440546
350.248 52.8316 -0.101905
453.85 54.0963 0.337409
590.294 61.4175 -0.491476
525.293 62.2008 -0.491061
377.015 22.7768 0.299108
216.027 50.0644 0.167322
395.613 38.6324 -0.500501
459.925 21.7985 0.281243
39.9022 17.9942 -0.455881
535.152 52.6415 -0.351591
393.873 7.83812 0.560238
15.8142 23.3696 0.314755
582.484 92.6707 0.249667
403.85 2.20244 0.66557
68.7071 48.1406 -0.105871
411.971 42.6703 0.345559
420.671 24.3479 -0.443493
296.587 23.6616 0.199108
419.78 39.2326 -0.374689
301.996 46.4767 -0.393904
214.127 15.4566 0.36933
356.02 51.855 0.0715824
511.834 12.2532 -0.253403
173.745 6.15076 -0.478912
49.5284 7.27723 -0.0849996
60.1585 10.555 -0.242639
516.968 10.7005 0.682994
21.519 12.7183 -0.347939
455.089 71.681 0.390438
506.456 52.5347 0.334679
154.044 34.7969 -0.299907
564.569 74.7301 -0.13132
30.9479 31.0862 0.12258
434.285 4.39985 0.616161
127.836 8.47453 -0.681408
459.603 44.5171 0.376071
401.084 33.6641 0.149633
157.938 0.956847 0.28474
29.6232 2.34296 -0.374426
300.918 19.3569 -0.308595
463.567 85.7224 0.132889
379.983 53.5567 -0.186699
336.767 1.01738 0.269088
525.143 13.3233 0.720476
20.964 46.836 -0.243446
229.874 36.3341 0.32926
539.577 10.8687 -0.380996
510.02 92.5863 -0.351745
351.831 10.9097 -0.644739
447.35 9.94463 -0.373856
552.222 43.7592 0.387
117.894 7.84989 0.270647
397.975 41.747 -0.143303
391.833 18.7488 0.0992516
259.293 18.996 -0.364219
18.7995 14.3147 0.284549
575.154 69.6758 -0.300834
296.406 47.2332 -0.30115
504.399 46.9184 0.351147
520.765 22.5715 0.27267
583.81 21.8242 -0.272456
381.635 57.5324 -0.169464
82.6171 44.7491 -0.256838
513.911 69.7836 -0.21885
490.51 72.2811 0.102144
595.411 67.8605 -0.113646
578.097 0.667601 0.684763
256.73 37.1525 0.432995
492.475 6.16017 -0.109829
22.8856 6.49228 0.665803
120.855 43.9049 -0.152052
417.419 17.8773 0.228141
573.535 57.3664 0.492438
175.95 33.6735 -0.234157
38.948 41.8741 0.262918
402.687 1.13891 0.161269
211.338 8.61912 -0.440704
550.453 82.0692 -0.245511
566.961 54.189 0.223716
310.483 29.4774 -0.281326
145.651 29.7862 0.450799
428.509 67.1634 0.393452
323.761 22.9857 -0.563862
346.886 43.2324 0.0919438
322.355 11.307 0.48402
434.984 24.7611 -0.089091
594.682 11.7295 -0.365982
71.0402 43.2815 0.389536
288.09 6.04591 -0.202818
442.757 16.7088 -0.484448
320.962 64.3884 -0.113413
21.8427 26.6481 0.459733
28.1744 6.22279 0.306292
439.108 58.6677 0.413051
402.571 35.2547 0.173676
17.6986 42.5063 0.424742
85.0636 35.4093 0.217369
281.952 19.6229 0.356955
468.565 24.874 -0.151291
388.523 62.6294 -0.319098
553.254 6.84098 -0.489885
544.924 6.16758 0.27091
331.166 51.6265 0.113434
485.209 46.5662 -0.109694
211.959 19.398 0.655564
284.737 5.98908 0.613322
92.3455 33.1713 0.311073
105.101 26.0978 0.256425
424.935 62.9744 -0.0656595
267.579 22.9426 0.44996
533.639 70.6454 -0.114186
517.298 89.378 -0.103604
394.073 31.8717 -0.37414
578.26 39.0565 0.317372
357.654 32.8875 0.235833
247.639 28.5905 -0.320401
509.501 68.5553 0.300018
248.68 37.287 0.376247
455.99 13.9443 0.273538
297.191 45.4276 0.198093
414.948 13.4621 0.545421
315.419 41.8824 0.0917874
360.324 24.294 0.11164
286.151 54.2072 -0.421661
172.23 33.4602 0.113326
572.401 90.0323 -0.141926
592.959 14.0805 -0.388998
5.73167 12.8826 -0.43064
362.409 29.1834 -0.38972
35.0806 25.8035 -0.0963744
324.621 42.4051 -0.474751
338.917 32.1368 -0.258122
66.2586 12.7601 -0.475433
45.2664 40.1527 -0.430176
203.213 13.5444 0.523992
462.221 78.0288 -0.38835
456.581 23.289 -0.563901
67.9967 22.4896 0.48
525.311 66.5539 0.430942
570.99 21.4586 -0.53964
504.675 85.2252 -0.520351
524.627 2.16835 -0.549371
436.283 44.5875 -0.406449
453.821 55.7873 0.504591
414.21 24.1835 -0.479765
586.803 6.345 0.349509
202.563 26.7428 -0.121841
119.212 38.3126 -0.20722
221.16 9.07772 -0.676126
83.8683 4.88429 0.278709
56.8782 12.6256 0.29129
252.994 44.2273 -0.310769
15.3011 25.011 -0.373538
443.691 37.4522 0.468058
459.856 72.2079 0.199951
384.815 28.0314 -0.37975
580.331 72.0359 0.356696
345.402 9.94094 -0.176214
362.329 46.6788 0.413418
436.72 11.1952 -0.251747
19.0449 25.8135 -0.420857
456.801 5.99723 0.572015
438.892 18.1761 0.468109
186.815 14.136 0.512626
358.559 21.3531 0.233571
272.845 6.58892 0.60156
331.686 23.0618 -0.373014
553.159 70.9647 -0.114204
175.809 29.3185 0.450883
574.136 12.0208 0.406297
556.496 69.897 -0.316892
328.774 13.5832 -0.33385
536.159 3.4693 0.535417
468.225 41.5241 -0.377
553.286 23.8199 -0.510622
363.388 54.4612 0.270449
409.829 13.6275 0.616216
381.467 68.4316 0.235081
372.457 11.5378 -0.239502
508.101 86.6338 0.268207
500.615 73.9591 -0.283014
174.997 45.3011 -0.377374
581.758 21.4359 -0.204422
455.361 55.2334 -0.265559
10.1428 19.0903 0.173254
345.799 33.1032 0.387505
170.789 25.8868 -0.413975
84.0304 45.995 0.252624
574.533 50.8767 0.50142
500.103 86.1208 0.256447
281.305 32.6596 0.347318
429.57 21.1448 0.444037
73.3842 49.1463 -0.171651
223.724 29.7141 -0.473142
443.271 42.707 0.35723
401.074 23.2604 0.433777
234.726 0.908497 -0.482349
432.505 73.5957 -0.395009
418.762 61.23 -0.609215
393.578 57.1389 0.390891
412.862 2.26309 -0.657314
529.42 28.5344 0.559843
164.423 12.9735 -0.267296
401.398 63.6312 -0.423628
443.297 72.9864 0.162433
64.6292 1.26581 0.398665
225.799 6.25055 -0.266306
592.667 18.074 -0.2752
583.256 23.8063 -0.545688
597.53 26.0026 -0.496908
266.009 9.00051 -0.273748
554.474 33.3086 -0.582287
350.734 58.3439 0.331067
375.467 0.829241 0.643854
496.099 73.4212 -0.413578
22.9493 32.4491 -0.341427
296.174 50.5161 -0.52604
226.739 4.51076 0.406279
584.211 89.4144 0.170206
534.817 84.7674 0.153241
254.617 14.0002 0.293288
504.071 59.9053 0.0882888
442.211 9.94053 0.242055
435.912 20.029 -0.502221
86.945 18.9842 -0.488959
266.797 0.974975 -0.243948
298.204 2.19338 -0.407581
13.0764 7.38779 0.483273
4.66712 34.4358 0.243816
147.895 19.4187 0.34131
60.0127 46.8517 -0.246255
59.2413 32.9186 0.296463
358.248 19.6601 -0.425526
316.336 45.3005 -0.467955
563.786 76.865 -0.109221
18.7402 4.24301 -0.283778
62.2957 7.96101 0.185971
468.524 72.0417 -0.137109
258.94 0.874667 0.481831
313.085 23.2359 -0.102763
213.681 4.63474 -0.406461
496.017 48.7146 0.193831
377.271 8.49747 0.54937
555.035 29.9874 0.44736
480.897 50.9826 0.325977
508.983 41.3246 0.103622
354.496 36.6611 0.480576
94.5512 48.8166 -0.31973
424.568 68.4731 -0.100494
555.099 12.392 -0.396653
218.013 37.7777 -0.238039
29.3024 19.7591 -0.161292
293.247 15.0241 0.517878
98.476 42.855 -0.467798
246.191 50.9899 -0.223136
362.608 4.61251 -0.268047
576.359 61.3458 -0.41015
519.839 3.37309 -0.670077
288.273 4.21386 0.51295
267.951 36.6816 -0.141468
381.058 65.1497 0.224971
72.9662 8.41959 0.633093
180.375 51.8048 -0.383167
568.768 54.255 -0.357485
412.137 76.3958 -0.0660838
182.505 47.3281 0.292831
146.578 48.0509 0.115126
595.519 56.3122 -0.399604
594.692 13.5939 -0.553067
485.004 4.93001 -0.550198
174.594 27.205 -0.0949462
432.927 49.7211 -0.110153
437.46 49.1279 0.263917
349.95 7.54409 -0.136335
397.998 0.836055 0.430157
558.021 82.5626 0.459163
78.3466 35.2456 0.226179
502.455 38.5292 0.447877
244.12 20.8441 -0.411802
8.78437 2.40097 -0.317482
117.233 39.0029 0.18428
61.1929 26.5808 -0.454534
531.246 61.3825 0.340044
589.752 91.5684 -0.164411
169.827 30.8962 -0.182091
592.331 19.9698 0.376682
39.0518 43.8223 -0.244038
83.7729 33.925 -0.165003
495.071 27.0752 -0.447771
350.32 22.8042 -0.622622
419.435 25.7377 0.169139
217.719 35.6563 -0.187345
486.467 12.936 -0.64176
596.399 11.5528 0.577196
25.4652 33.9271 -0.275689
240.886 8.51939 -0.219933
202.025 16.2551 0.2976
1.09167 38.7042 0.152578
204.166 14.911 0.428059
191.525 11.6246 0.194554
195.116 29.4462 0.308873
123.415 30.7339 -0.122163
439.429 30.8114 -0.353195
153.084 14.8802 0.350348
580.222 90.0337 0.221877
159.73 3.89656 -0.513987
40.8044 45.0827 -0.366339
544.671 75.4801 0.437781
252.473 38.2045 0.399099
510.065 50.7919 -0.502966
581.733 55.524 0.509973
265.405 11.0149 0.262414
546.206 45.0832 0.35585
286.46 2.6794 0.678852
350.579 32.2711 0.377046
514.735 34.4804 -0.563346
95.7188 11.9369 0.569236
399.993 3.69984 -0.508872
558.803 30.5296 -0.24964
78.9478 7.92693 -0.315454
249.95 17.3408 0.193137
359.019 14.8553 0.353151
588.953 2.73398 -0.622098
341.401 1.68989 -0.657294
160.857 41.8302 0.305845
558.132 10.5828 -0.521096
120.534 40.0176 -0.181177
238.086 38.6707 -0.384781
342.897 24.3247 0.239994
458.305 15.9276 -0.322521
331.747 10.4914 -0.515093
382.287 36.5924 -0.535786
568.557 93.0971 0.387908
43.2615 12.8818 0.1239
273.308 59.93 -0.356581
330.269 36.9933 -0.41699
346.332 24.6068 -0.261281
409.478 58.4382 0.472733
560.388 76.235 -0.198707
504.608 71.0432 -0.371449
204.529 38.0006 0.389258
13.0242 37.0394 -0.16694
502.775 73.9871 -0.117839
412.874 65.6496 -0.470528
211.349 42.4173 -0.100717
514.908 56.9602 -0.119448
138.364 9.9057 -0.323755
318.599 30.4514 0.318275
382.582 66.5247 0.115677
351.459 25.3111 0.21205
564.657 93.1116 -0.29081
362.377 7.59417 0.694399
44.1466 30.7646 -0.293965
387.039 48.3263 0.343179
365.005 49.31 0.373016
573.418 70.9581 0.229967
545.49 48.6098 0.27561
435.454 35.6005 -0.137628
567.962 80.9241 -0.422996
258.945 2.12182 -0.548013
330.955 39.466 -0.462388
21.4033 41.7264 0.298523
551.056 46.9919 -0.139998
475.577 33.3481 -0.506875
385.409 0.779414 0.574923
115.035 4.77069 -0.363348
360.135 55.8667 -0.0981507
11.1785 0.889685 0.369685
585.294 9.65467 0.16598
318.463 49.357 0.422391
489.592 8.43355 -0.316363
[...]
POINT_DATA 13483
TENSORS Strain_matrix float
-1.42514 0.0485288 3.05018 
0.559487 0.587735 -2.03598 
3.54628e-18 1.02478e-18 1 

-0.219902 -0.278748 -3.01662 
0.202589 0.260063 5.83511 
2.08227e-18 -3.2035e-18 1 

-0.156616 -0.0935258 0.182776 
0.0746985 0.0229041 0.995046 
-6.22312e-18 6.07256e-18 1 

-0.737143 0.472976 -0.811185 
-0.430476 0.349982 0.237864 
8.19544e-18 7.23127e-19 1 

-0.644033 -0.251907 0.677536 
0.0461303 0.0537762 -0.680409 
-4.83833e-18 -1.90987e-18 1 

-1.63879 0.437482 -4.98129 
0.0974983 0.610517 7.33765 
1.06064e-17 -8.9778e-18 1 

-0.195882 -0.0465747 0.336634 
0.0272848 -0.0445654 -0.0918888 
-1.47677e-18 -1.03717e-17 1 

-0.23644 0.336736 -0.0803305 
-0.489358 -0.0539979 0.126228 
-1.95874e-18 -1.6574e-18 1 

-1.7291 -1.05474 1.83979 
-0.175304 0.793769 0.0786997 
3.32968e-18 1.19091e-17 1 

-0.958717 -0.178549 -2.45033 
-0.213571 0.299811 -8.20301 
1.62279e-18 1.30989e-17 1 

-0.557371 0.221327 0.202395 
-0.363271 0.2871 0.216321 
1.18765e-17 -5.17921e-18 1 

-0.496946 -0.285904 -0.243615 
-0.0634677 0.0808817 0.576285 
5.20318e-18 -1.25714e-17 1 

-0.578603 -0.143762 2.16539 
0.765625 0.149752 -1.16294 
-1.34955e-17 -4.65363e-18 1 

-0.254179 -0.0806058 -0.621096 
0.205308 0.185203 -0.532224 
4.21702e-18 5.27128e-19 1 

-0.271286 0.130045 0.347649 
0.0274126 0.106504 -0.234255 
-3.94174e-18 -7.69385e-18 1 

-0.441647 0.369819 2.4566 
0.0815225 0.388844 0.732642 
-1.60038e-18 4.0737e-18 1 

-0.297684 0.0580131 0.131604 
-0.0544902 0.00493909 -0.117627 
1.73531e-17 6.43275e-18 1 

-0.369286 -0.0682155 -0.0367116 
0.246425 -0.069072 -0.157125 
-2.37414e-17 1.18707e-17 1 

-0.778258 1.65156 -0.0595953 
0.230416 0.524714 1.21162 
-9.60586e-18 1.03817e-17 1 

-0.769308 0.134454 -0.373383 
-0.185012 0.187069 0.00869877 
1.67655e-18 3.80867e-17 1 

-0.353718 1.32598 -0.685244 
0.39221 -0.0331547 0.703373 
-3.60194e-18 -3.80322e-18 1 

0.0525599 -0.265157 -0.154414 
-0.340518 -0.19027 0.852905 
-1.42927e-17 -5.81916e-18 1 

-0.859679 0.111892 -0.281205 
-0.398593 0.40591 3.40779 
-6.88333e-18 1.59306e-18 1 

-1.39239 0.0449489 25.1825 
0.580719 0.416782 -11.1828 
4.30941e-18 4.41272e-18 1 

-1.47262 -0.501234 0.992067 
-0.377061 0.396941 0.0256644 
4.39982e-18 1.28078e-17 1 

-0.0371793 -0.681367 -0.0365041 
0.526621 0.232873 -0.193274 
1.01748e-18 6.62171e-19 1 

-1.44832 -1.75713 2.04787 
0.181123 0.385024 2.25863 
3.26306e-18 -4.11368e-18 1 

-0.846314 -0.21757 -2.12986 
0.44063 0.0196444 -1.24818 
6.26785e-18 5.29677e-18 1 

-0.178613 0.104534 -4.27181 
-0.0489586 -0.0159499 1.80976 
-2.99267e-18 1.54034e-18 1 

-1.66759 0.00841566 0.183458 
0.055621 0.416146 0.784323 
-7.5384e-18 5.46827e-19 1 

-0.582358 0.388313 -0.129581 
-0.225614 0.0339584 0.317333 
-1.99838e-17 2.25623e-18 1 

-0.358188 0.169786 -1.1841 
0.217518 0.0404322 0.526649 
8.6207e-18 4.59146e-18 1 

-0.856497 0.821164 -26.3692 
0.444453 0.350955 0.900078 
-8.9774e-18 7.83482e-18 1 

-0.471596 0.0664113 1.95279 
-0.00800999 0.149041 -1.64281 
-4.69268e-20 2.43081e-17 1 

-0.141857 0.0393155 0.12916 
-0.0426629 0.0414106 -0.184478 
0 3.75782e-18 1 

-1.07408 0.0178487 -0.408265 
-0.649592 0.569004 -0.575297 
-9.71981e-18 -2.90244e-18 1 

-0.965508 -0.423102 -2.63904 
0.361315 0.511803 1.06009 
2.09298e-18 -2.42189e-19 1 

-0.013026 0.0436939 0.358602 
-0.1545 -0.120726 0.152376 
2.11771e-17 -1.23029e-17 1 

-0.383747 -0.121628 -1.61052 
0.363011 0.198492 0.830321 
-6.38051e-18 5.32447e-18 1 

-3.07674 1.27108 6.36236 
0.142147 0.354659 8.37476 
-5.50297e-18 3.40865e-18 1 

-0.362993 -0.451518 0.399908 
0.356335 0.140707 0.00861379 
-1.29456e-17 -8.71429e-18 1 

-2.81648 1.8687 4.6101 
-0.746349 0.895826 1.05102 
8.52158e-18 -5.8835e-19 1 

-1.08983 -0.11802 -0.213781 
-0.68209 0.426923 -0.261312 
6.67006e-18 4.58567e-18 1 

-0.318073 -0.0466392 0.947678 
0.0978374 -0.0676496 -3.34187 
-9.57704e-18 4.7427e-18 1 

-0.212542 0.196535 -0.23459 
-0.214865 0.00564404 0.0452275 
8.09374e-18 -8.61223e-18 1 

-0.35736 0.190324 -0.152913 
-0.149632 0.110853 0.237082 
3.50557e-18 8.24283e-18 1 

-2.74746 0.258977 -3.11582 
-0.0348222 0.613334 -2.53121 
1.00306e-17 1.41262e-17 1 

-0.0658189 -0.0395393 -0.234739 
0.139201 -0.141005 -0.0386836 
-1.37816e-17 -6.17664e-18 1 

-0.248189 -0.855818 23.0601 
0.997033 1.22938 1.99114 
-1.43726e-17 -3.64106e-18 1 

-0.589476 0.739642 0.904056 
-0.133354 0.214345 -1.22396 
-8.21581e-18 6.91857e-19 1 

-0.0834283 -0.148935 -0.294228 
0.0717257 -0.00132554 -0.962252 
-8.73547e-18 -1.73451e-18 1 

-4.37899 -1.08738 -2.33684 
0.382673 0.86213 -2.59588 
3.72933e-18 -5.78046e-18 1 

-0.104999 -0.206514 -0.57407 
0.0929606 0.0388377 0.220631 
-2.39374e-18 -8.16869e-18 1 

-0.985414 -0.752955 0.735375 
0.0417278 0.298894 0.994866 
-9.73582e-18 3.542e-18 1 

-0.236831 0.0395251 3.78373 
-0.00360311 0.0564049 4.58123 
1.66023e-18 -8.86783e-18 1 

-0.624072 -0.276578 -2.26343 
0.318296 0.311384 0.329416 
-1.01516e-17 3.60965e-18 1 

-1.70885 -2.30172 -0.828271 
0.176733 0.766541 -1.51631 
-2.85763e-17 9.41849e-19 1 

-0.132349 -0.0553632 0.260821 
0.00892546 -0.0483388 0.0715921 
1.60879e-18 -5.16558e-18 1 

-0.144871 0.115815 -0.290973 
-0.118049 -0.0901799 -0.534536 
-3.09852e-19 2.51755e-18 1 

-0.528151 0.186735 0.86747 
0.122551 0.227908 0.363106 
1.0636e-17 2.94984e-18 1 

-1.07262 2.86547 7.41587 
-0.0183252 0.870469 2.23809 
5.31701e-19 2.57531e-18 1 

-1.41225 0.292445 1.74315 
-0.00163549 0.530167 -0.30481 
-3.08463e-18 5.76339e-18 1 

-0.184114 -0.0337524 -0.45515 
-0.0361048 -0.102424 -0.495633 
-9.90189e-19 -1.62989e-17 1 

-0.960718 0.152751 24.5967 
-0.0447138 0.338642 -11.2087 
-4.00179e-18 7.82205e-18 1 

-0.392671 0.589264 0.294757 
-0.5664 0.357759 -1.02698 
3.70659e-18 1.79012e-18 1 

-0.567775 -0.201982 0.979253 
0.488699 0.373576 -0.0739655 
-1.5859e-17 -1.72381e-18 1 

-0.977232 0.204284 0.283747 
-0.504432 0.239842 0.0672084 
-5.28355e-18 4.59439e-18 1 

0.0686027 -0.3626 -1.30185 
0.481667 -0.179708 2.89793 
-2.33907e-17 2.89636e-17 1 

-0.504034 -0.0240069 3.11072 
-0.0618848 0.076049 6.3322 
4.62862e-18 -2.65266e-18 1 

-0.3722 0.682184 0.370008 
-0.884237 0.850177 0.766586 
2.03547e-18 9.7627e-18 1 

-1.08163 1.22469 -0.586082 
-0.199548 0.50789 0.60908 
-1.1724e-17 -2.00166e-18 1 

-0.162873 0.0539393 -0.164727 
-0.055861 -0.0251079 0.057681 
1.66931e-17 1.08177e-17 1 

-1.07165 -1.22998 0.650971 
0.018155 0.241946 2.17047 
4.36283e-18 -4.27302e-18 1 

-0.519751 0.00681746 -0.0485418 
-0.342737 0.216538 0.295388 
3.93546e-18 -1.02759e-17 1 

-0.369158 0.221085 -0.679435 
0.0414912 0.129374 -0.370121 
3.00431e-18 -4.87297e-18 1 

-0.127474 -0.0740273 0.24239 
0.0883425 -0.0464139 0.432544 
4.11707e-18 6.66133e-18 1 

-1.5738 -1.02342 -7.36638 
0.104226 0.356631 0.810308 
1.11655e-18 -1.72956e-18 1 

-0.0866071 0.33951 1.64024 
0.778936 -0.225807 -0.694974 
-1.21111e-17 -1.51982e-17 1 

-0.833007 -0.236903 3.08117 
0.359534 0.542735 1.72368 
-3.70967e-18 6.79014e-18 1 

-1.07069 1.26993 1.84868 
-0.521318 0.488575 -0.0821002 
4.97283e-18 1.10923e-17 1 

-0.851675 -0.255008 0.127543 
0.141758 0.218284 0.1873 
8.18881e-18 -3.49949e-18 1 

-0.671873 -1.19643 0.833828 
0.445409 0.510596 -0.340142 
6.47129e-18 -3.32231e-18 1 

-0.217117 -0.163421 0.5758 
0.201747 0.125357 0.187634 
-7.80377e-18 1.62493e-17 1 

-0.586486 0.196785 -1.40067 
-1.137 0.665083 1.00353 
-1.0278e-18 7.9829e-20 1 

-0.210412 -0.325937 -1.20009 
0.434345 0.140138 1.29744 
-1.02792e-17 -2.60976e-18 1 

-1.07365 -0.703756 -1.06745 
-0.133243 0.490575 0.776858 
-4.17067e-18 -1.03988e-17 1 

-2.66855 -1.04956 2.80891 
-0.0876509 0.39522 0.635315 
-2.22746e-17 2.63888e-17 1 

-0.343222 0.265396 -0.425856 
0.540968 0.194934 -1.55723 
5.67886e-18 -7.73292e-18 1 

-3.14145 -3.462 -4.36123 
0.946249 1.89031 0.872725 
6.80811e-19 -8.30739e-18 1 

-0.272841 0.0251993 -0.381011 
0.0431871 -0.0564583 3.73908 
-8.15523e-18 1.94967e-17 1 

0.0457533 -0.686454 -0.202468 
0.645852 0.123963 0.59647 
-5.86434e-18 5.17442e-19 1 

-1.131 -2.49988 -1.81031 
0.108414 0.413562 -0.590358 
7.04553e-18 1.05913e-18 1 

-1.23601 -0.24138 -0.209426 
0.223088 0.499795 -3.9619 
-9.28662e-18 6.30703e-18 1 

-0.13794 -0.0785728 -0.43402 
0.316135 0.100556 -0.159676 
-7.31347e-18 1.98073e-18 1 

-0.105207 -0.00123982 0.69713 
0.124637 0.181146 -2.91703 
7.61924e-18 -1.84897e-18 1 

-0.325401 0.395737 -0.134293 
0.0029141 0.200874 -0.125994 
-8.20486e-18 3.72902e-17 1 

-0.212228 -0.119463 1.55246 
0.049792 0.0620952 -0.773191 
-7.64351e-18 -9.15828e-18 1 

-0.553629 -3.0598 0.156554 
0.539202 1.42188 -0.949874 
5.75292e-18 1.17346e-17 1 

-1.43364 0.281243 -0.946733 
0.223786 0.614767 0.133276 
-8.49596e-19 -1.74917e-19 1 

-0.230413 0.19466 0.463258 
0.144865 0.190923 1.11991 
1.62001e-18 -5.11502e-18 1 

-0.313401 -0.0637749 3.6984 
-0.0455375 0.157543 -0.0772304 
-3.30805e-18 -1.61886e-18 1 

0.0384192 -1.17312 -1.29081 
0.570124 0.616439 0.100368 
6.74627e-18 1.01416e-17 1 

-0.634881 -0.0276428 14.5662 
-0.0785545 0.218967 5.99005 
4.26029e-18 1.19768e-17 1 

-0.991088 -0.280496 -1.43331 
-0.0301757 0.469933 -1.31093 
-5.56023e-18 -3.66321e-18 1 

-0.552821 -0.140244 0.79511 
-0.631333 -0.0433756 -4.27191 
1.09562e-17 -1.43935e-18 1 

-0.178226 0.0483355 -0.046676 
-0.00771525 -0.0941007 -0.159716 
-2.12896e-17 -1.21614e-17 1 

-1.26443 0.459108 -0.0945911 
-0.451341 0.390113 0.0139395 
8.60026e-18 1.25759e-17 1 

-0.076995 -0.215501 0.978885 
0.029326 -0.0352035 -1.43773 
7.19325e-18 -1.77325e-18 1 

-0.203983 0.329789 -0.149571 
-0.251509 -0.0359978 0.115166 
7.75799e-18 -4.71398e-18 1 

-1.3148 1.05152 -4.70998 
-1.04602 0.806202 -3.08026 
1.96682e-18 1.80233e-17 1 

0.0782847 0.393164 -0.265143 
-0.847736 0.27728 0.352011 
6.8502e-18 -1.81329e-18 1 

-0.0796433 -0.000477623 -0.349148 
-0.0496229 -0.0801927 0.160884 
-3.52853e-18 -1.35032e-17 1 

-0.176264 0.23899 0.00860605 
-0.248254 -0.0235519 0.0726559 
-2.10275e-18 3.60472e-18 1 

-0.840471 0.472461 1.08256 
0.082736 0.230586 1.21665 
7.74648e-18 -1.41851e-18 1 

-1.04844 -0.441357 -0.903192 
0.502413 0.503079 -1.23894 
-6.96975e-18 -1.21178e-18 1 

-0.197071 -0.30776 6.34686 
-0.418564 0.0891503 -0.0828878 
5.26991e-18 -3.32124e-18 1 

-0.40845 0.00670679 -0.328977 
-0.415806 0.271674 -0.347303 
1.03978e-17 2.69944e-18 1 

-0.405101 -0.347217 0.893388 
0.199919 0.250999 -0.166547 
-1.06925e-17 5.89931e-18 1 

-1.96873 -0.723133 3.55098 
0.887983 0.579184 -0.605675 
1.31373e-17 0 1 

-0.221062 0.294417 1.33711 
0.268006 -0.144956 -1.60454 
2.90817e-18 -2.5283e-18 1 

-0.324377 0.115182 -0.186522 
-0.0694854 -0.233241 -0.467352 
-2.9043e-17 -2.76028e-17 1 

-0.757343 0.198756 -0.639972 
-0.0804197 0.140958 -0.157876 
-6.27481e-19 1.28634e-17 1 

-0.281837 -0.125138 -0.317309 
0.339045 0.235364 0.138282 
6.89177e-18 -3.97296e-18 1 

-0.746619 -1.46794 1.48852 
0.704819 1.02993 -1.18573 
-2.1338e-18 -7.41748e-18 1 

-0.400474 0.143947 -1.12106 
0.102434 0.113319 4.95246 
-3.70452e-18 4.53633e-18 1 

-0.625404 0.0592072 1.0012 
-0.0941725 0.127935 -1.8182 
1.89507e-17 8.10034e-18 1 

-0.260422 -0.0579003 1.95012 
-0.00420644 0.154378 1.4384 
-1.62508e-19 8.12541e-19 1 

-0.164848 0.066829 0.299963 
0.014335 0.154527 -0.957274 
-6.82163e-18 -4.54775e-18 1 

0.0177441 -0.63896 -0.412275 
0.868316 0.275709 0.182268 
-1.99138e-20 5.08655e-18 1 

-0.360622 -0.227343 0.566107 
0.00568022 0.265789 0.169561 
-1.25697e-17 1.28554e-18 1 

-3.77301 -0.528464 -1.61021 
0.0432094 0.841479 -1.55664 
2.41836e-18 7.55736e-19 1 

0.66427 0.620787 -0.967773 
-0.768477 0.340609 0.370131 
3.51076e-18 5.49218e-18 1 

-1.39955 0.389681 -1.35995 
-0.560653 0.915651 3.03412 
-7.25696e-18 9.40974e-18 1 

-0.465974 -0.504701 -1.66268 
0.310704 0.230478 -1.39829 
8.68837e-18 -1.47163e-17 1 

-0.131512 -0.0500415 -3.49509 
0.00712184 0.253329 -0.187216 
4.0446e-18 6.16024e-18 1 

-0.256764 0.14521 0.286067 
-0.246139 0.16019 0.576079 
3.40482e-18 4.86402e-18 1 

-1.74238 0.0409304 -0.132023 
-0.235154 0.755869 -0.665638 
-9.15489e-18 -2.85565e-18 1 

-0.709235 -0.115926 0.96281 
0.101153 0.491245 -0.280937 
-7.78026e-18 1.83065e-18 1 

-0.186271 0.129203 -0.828865 
0.0106152 -0.053589 -0.234527 
-5.87184e-18 1.16226e-17 1 

-1.26248 1.04951 -6.35037 
0.698511 -0.454837 0.701683 
6.6181e-18 -7.30273e-19 1 

-0.475537 -0.28332 -3.27186 
-0.240825 0.134298 -0.835661 
-5.92195e-18 -7.86004e-18 1 

-0.269699 0.0348086 0.0908642 
-0.480612 -0.0325042 0.166926 
-1.27914e-17 1.83758e-17 1 

-0.303581 -0.495183 -1.35913 
0.522662 0.266313 -0.180829 
-2.05391e-17 1.62897e-17 1 

-0.0643545 0.524099 3.40832 
-0.649864 0.508335 -2.16518 
-5.07129e-18 1.32819e-17 1 

-0.164228 -0.361262 1.01896 
0.204261 0.182282 -0.892689 
8.11279e-18 -4.19956e-18 1 

-0.144923 -0.583248 0.682091 
0.166372 0.220981 -0.318863 
2.00786e-18 -4.70412e-18 1 

-0.758665 0.269898 0.163773 
-0.344044 0.172424 -0.424486 
-7.78323e-18 -1.14033e-17 1 

-0.159667 0.125308 0.12861 
-0.129786 -0.0530246 0.187049 
1.30643e-18 -1.8809e-18 1 

-0.0564164 0.109221 2.1354 
-0.110981 -0.0188553 -2.44122 
5.80918e-18 -2.37157e-18 1 

-0.0967259 -0.0704552 0.200351 
0.0309114 -0.0423203 0.225823 
-3.2339e-19 8.27171e-18 1 

-0.609982 -0.486842 3.51573 
0.279268 0.235366 -0.135122 
6.70734e-18 3.35367e-18 1 

-0.977762 0.511585 2.2178 
-0.232619 0.519839 1.48638 
7.6519e-18 -1.48249e-18 1 

-0.311077 0.173078 -0.265087 
-0.197033 0.0244051 0.277355 
-2.46578e-18 1.34238e-17 1 

-0.192173 -0.252636 -1.18397 
0.106121 0.167373 0.125339 
4.84799e-19 -2.86329e-18 1 

-0.28503 0.00458995 -1.83903 
-0.010866 0.0962043 1.52987 
4.70631e-19 3.0591e-18 1 

-0.543867 -0.530046 -4.65247 
-0.333541 0.374411 1.00345 
-7.07601e-18 6.62486e-18 1 

-1.05668 -0.357644 -6.26672 
-0.350003 0.458573 -9.76 
-5.90258e-18 1.01573e-18 1 

-0.220126 0.0484702 0.546318 
-0.0134031 0.151203 -2.62573 
-9.93102e-18 -1.16731e-17 1 

-0.144599 -1.35797 2.79005 
0.782864 1.18939 7.98013 
-4.7173e-19 5.28214e-18 1 

-1.48322 3.56024 8.85666 
-0.253475 1.0972 3.40289 
4.84648e-18 -8.1509e-18 1 

-1.04731 1.19484 -43.9335 
0.0931163 0.783772 -8.2076 
1.59923e-18 -2.9851e-18 1 

-0.712998 -0.740069 0.593806 
0.45587 0.381467 -0.685561 
-3.53322e-17 -3.08267e-17 1 

-0.513939 -1.24309 -1.4218 
0.744008 0.773118 2.65645 
3.43914e-19 6.87828e-19 1 

-0.590322 0.0527926 24.9982 
-0.407425 0.465103 24.1113 
-3.54178e-18 6.46396e-18 1 

-1.21347 -1.31472 -7.41543 
0.193749 0.302893 0.117276 
-6.07676e-18 -4.63256e-19 1 

-1.39672 -0.641584 0.353043 
0.329711 0.365536 -0.237382 
3.06532e-18 -3.83166e-19 1 

-0.0250367 0.0507199 0.000655036 
-0.0157514 -0.0811267 0.110425 
5.40914e-18 3.97592e-18 1 

0.154401 -0.315821 1.97504 
0.574865 0.0226433 -0.3543 
3.75116e-18 -4.77472e-18 1 

-0.418571 -0.0924362 -9.90997 
0.132648 0.105233 12.0426 
-8.29291e-18 1.43942e-17 1 

-0.270224 -0.14868 0.15564 
0.0368592 -0.00920437 -0.644878 
-1.10387e-17 -2.15708e-18 1 

-0.28497 -0.219118 0.215848 
0.0352293 0.10236 -0.605904 
5.74099e-18 1.40747e-18 1 

0.236282 1.05186 4.03561 
-0.196028 -0.290426 -1.53964 
7.72123e-18 9.13264e-19 1 

-0.458251 -0.436975 1.44119 
0.171024 0.349956 -1.18318 
-1.50557e-17 2.16679e-19 1 

-2.067 -0.927034 -3.02948 
-0.482525 0.37164 3.489 
-5.30432e-18 1.14161e-17 1 

0.511688 -1.30538 -0.177396 
0.955987 1.25551 0.085203 
1.4679e-18 1.10092e-17 1 

-0.282006 0.270779 0.0480236 
-0.248756 0.104637 -0.312988 
4.41415e-19 -1.00008e-17 1 

-3.02268 -0.668507 3.21663 
-0.784106 0.363981 -0.95085 
7.41097e-18 1.73448e-18 1 

-0.450976 0.174815 0.138353 
0.116366 0.150234 -0.19637 
-1.12492e-17 -6.44988e-18 1 

0.138104 -0.138303 -1.20377 
-0.45441 -0.258348 3.73521 
-1.02614e-17 1.15441e-17 1 

-0.739469 -1.00848 3.79753 
1.22052 1.13658 -0.458506 
1.69277e-17 7.82747e-18 1 

-0.49454 -0.184052 0.64371 
0.0477055 0.146045 -1.30448 
-5.76089e-18 2.51709e-18 1 

-0.637253 0.358107 1.28152 
-0.334353 0.095756 -1.05762 
4.20107e-18 -9.23313e-19 1 

-2.06873 0.514155 -4.40296 
-0.663077 0.61551 -2.14251 
6.47098e-18 -6.57424e-19 1 

-0.261852 0.144296 -0.271846 
-0.180622 0.010722 -0.804882 
1.04056e-17 1.39889e-17 1 

-0.780702 -0.426253 -0.975707 
0.541315 0.416764 -0.863563 
-1.04202e-18 -2.01458e-17 1 

-0.365307 -0.040472 -1.04414 
0.10603 0.0316117 -0.09467 
-1.5261e-17 2.49159e-18 1 

-0.505614 0.351998 -0.0742991 
-0.344831 0.334196 -1.58727 
-1.28085e-17 -8.68412e-18 1 

1.41849 -1.02181 -0.295799 
0.936805 1.3318 -0.0497137 
-1.24722e-18 -7.49109e-18 1 

-0.186802 -0.0918418 -1.59953 
0.287868 0.113247 0.808338 
-1.94276e-18 -5.50814e-18 1 

-0.205293 -0.573627 -0.288735 
0.428485 0.055596 -0.137356 
-2.7774e-19 -5.69366e-18 1 

-3.28953 0.571931 9.34872 
1.28611 0.688685 1.32875 
-9.43436e-19 1.15309e-18 1 

-0.369652 0.313293 1.82972 
-0.218536 0.0906077 1.34851 
1.09676e-17 -4.57886e-18 1 

-1.95254 -0.222519 -0.0904772 
-0.00116895 0.774476 -0.552549 
-8.2721e-18 -6.95907e-18 1 

-1.60923 0.434259 4.19973 
0.48041 0.52079 1.18196 
4.4307e-18 -4.32521e-18 1 

-1.44413 -0.864869 -2.72379 
-0.0971067 0.450904 0.697797 
5.19808e-18 -1.47259e-17 1 

-1.60382 0.627556 -8.0624 
-0.485157 0.87103 0.275014 
-1.90088e-18 2.03127e-18 1 

-0.387335 0.0506974 -0.47625 
0.0565202 -0.0135168 -1.58313 
1.18826e-17 -8.08678e-18 1 

-0.26482 -0.261148 -0.0881668 
0.0401973 0.0446656 -0.0675523 
-1.85112e-18 -2.02923e-17 1 

-0.860765 0.119141 0.145869 
-0.59162 0.237898 0.327073 
1.1711e-17 -1.62344e-17 1 

-0.596764 -0.36856 -0.951674 
0.412974 0.302986 0.0608402 
-1.85232e-18 1.76144e-17 1 

-0.903498 2.3923 -1.88447 
0.161499 0.35167 -0.466792 
7.96843e-18 3.55962e-18 1 

-0.164441 -0.184522 0.396279 
0.182047 0.0232258 0.641029 
8.12628e-18 -2.21346e-18 1 

-0.579454 -0.351602 -0.244301 
0.188964 0.177932 0.676296 
7.70643e-18 -8.27307e-18 1 

-0.406529 -0.0251991 -1.60351 
0.0109709 0.509054 -0.919376 
-9.05101e-18 -5.11948e-18 1 

-0.232752 -0.44839 -0.639899 
0.223229 0.159821 0.365729 
5.68691e-18 -6.53685e-18 1 

-0.878074 -0.779596 -0.528724 
0.489032 0.565328 -1.04632 
-8.63518e-18 -4.02487e-19 1 

-0.126553 0.0314203 -1.41426 
0.0404644 -0.0224847 1.11129 
1.46284e-17 4.24452e-19 1 

-0.254967 -0.0157875 -0.689182 
0.1249 0.0817585 0.350782 
6.23359e-18 1.03081e-17 1 

-0.480983 -1.02504 -4.62558 
0.25737 0.259406 -2.1325 
-4.49328e-18 8.63436e-18 1 

0.0694219 -0.773022 -0.000896209 
0.638109 0.366827 -0.212372 
-5.84402e-19 8.86679e-19 1 

-0.554007 0.250729 0.204048 
0.0274563 0.134385 -0.0205965 
-4.41246e-18 -7.4167e-18 1 

-0.408196 -0.939172 -1.25374 
0.408765 0.414951 -1.58667 
-9.27791e-19 -2.02925e-17 1 

-0.108192 -0.127911 -0.54848 
0.1284 0.0215871 -0.274888 
-1.13446e-17 1.70849e-17 1 

-0.260698 0.112979 2.56728 
-0.00760996 0.155326 -3.30454 
6.95463e-19 -2.26801e-18 1 

-1.47865 -0.33832 0.347295 
-0.364627 0.369358 -2.85761 
3.79587e-18 3.4853e-18 1 

-0.613315 -0.322558 -2.97054 
-0.356519 0.260329 1.51628 
3.79366e-19 -4.71956e-18 1 

-0.393614 3.34418 2.41286 
-0.0226644 0.0657707 -0.217116 
-6.20107e-18 8.51073e-17 1 

-0.153333 -0.399287 0.860905 
0.293869 0.219077 2.32803 
-5.8395e-18 5.12929e-18 1 

-0.735195 -0.352653 35.1613 
0.243344 0.477475 45.7792 
5.94094e-18 -3.4789e-18 1 

-1.23706 1.94589 8.65612 
-0.415412 0.946285 0.97198 
-1.03934e-17 4.82403e-18 1 

-0.526383 -0.0902165 -1.94942 
0.0250745 -0.0113951 -2.92542 
-6.74359e-18 1.98806e-18 1 

-0.877705 -0.341305 -2.87645 
-0.0927232 0.405823 1.21968 
-2.8439e-18 5.2784e-18 1 

-0.121138 0.182838 0.117919 
0.00762869 -0.0453074 0.294817 
-6.3938e-18 1.4219e-17 1 

-3.45036 3.24848 -10.5533 
-0.435133 0.964975 4.93323 
-2.6024e-18 4.65626e-19 1 

-0.341636 0.358143 0.477904 
-0.403473 0.198159 -0.526228 
0 5.03061e-18 1 

-0.275545 -0.0353863 0.87552 
-0.025439 0.209904 0.587276 
2.6619e-18 -1.8343e-17 1 

-0.416729 -0.168506 -0.322576 
0.087092 0.0858154 0.725362 
5.14561e-18 0 1 

-1.55631 1.25143 -0.322053 
-0.961196 1.13348 1.56883 
-8.18922e-18 5.56867e-18 1 

-0.68289 -0.164917 0.760711 
0.232147 0.0118696 0.295698 
-8.67868e-20 1.38859e-18 1 

-4.08226 -0.464852 0.292902 