# vtk DataFile Version 3.0
Output file generated by Yade's KinematicLocalisationAnalyser
ASCII
DATASET UNSTRUCTURED_GRID

POINTS 13483 float
637.3 30.8441 -0.412695
807.41 64.2982 -0.461037
124.886 6.07171 -0.465436
834.718 7.05857 -0.402141
521.055 7.73655 -0.270545
328.847 35.1256 -0.459474
162.904 6.82209 0.429885
595.972 10.1856 0.168852
518.2 22.5713 -0.149226
756.879 13.3936 -0.381707
219.22 8.81766 -0.0995583
267.849 6.34948 -0.283734
685.379 32.9375 -0.152331
664.573 15.1348 -0.115677
142.61 16.8571 -0.447042
230.117 34.5895 -0.392243
226.785 12.9322 0.279329
301.237 9.54229 0.388237
354.345 32.5155 0.454714
547.342 8.49456 0.353444
428.299 37.0415 -0.105467
619.308 42.7951 -0.333474
834.733 43.2359 -0.480302
735.044 40.8427 -0.284649
478.458 15.8723 0.293979
250.737 44.172 0.12392
513.044 27.1677 -0.492355
613.465 20.6328 0.239241
46.6269 15.2037 -0.455997
751.969 37.4277 -0.358772
503.357 4.92197 0.323129
17.3477 23.0924 0.288103
821.61 67.9481 0.167393
516.858 2.48714 0.479124
81.3429 44.2383 -0.100327
544.447 30.2585 0.328223
553.822 16.6764 -0.413519
358.496 22.2007 -0.171373
557.677 25.6446 -0.310433
366.122 33.6494 -0.388901
251.317 14.4523 0.337328
452.564 36.5435 -0.0645104
711.088 6.96509 0.177985
200.893 6.19523 -0.377297
57.8269 6.90945 -0.125897
71.3777 8.88576 -0.287375
726.523 9.02639 0.634582
24.4403 11.7396 -0.297215
639.567 48.5253 0.36741
712 26.4605 0.361633
179.858 32.2909 -0.282522
799.057 49.3893 -0.124145
36.5743 28.1457 0.121159
557.992 3.00976 0.317614
147.995 7.4635 -0.483459
622.585 33.799 0.365432
527.715 27.3758 0.116126
182.151 0.950522 0.265812
34.0494 2.35677 -0.336104
363.887 17.6904 0.260534
652.032 50.0215 0.134484
481.633 35.6366 -0.176366
417.291 1.03379 0.19455
737.429 9.39333 0.355766
27.6059 43.0675 -0.235723
267.702 30.2785 0.286027
756.587 9.02825 0.302253
707.199 50.1621 0.352649
436.391 8.64887 -0.493076
596.739 3.6349 -0.353757
782.013 33.3996 0.377935
136.213 7.64775 0.273226
521.208 26.1592 -0.132485
498.849 14.9686 -0.110091
307.624 16.6313 -0.337227
21.5522 13.5447 0.263158
819.315 50.0818 -0.315031
347.555 39.8988 -0.284331
710.059 22.9962 0.330629
725.288 14.812 0.31777
822.701 13.7308 -0.338024
485.116 35.6041 0.167868
96.1661 38.2063 -0.266122
720.236 38.4895 -0.227211
682.161 42.0706 0.0946443
841.467 51.6467 -0.118875
817.549 0.787865 0.506573
304.264 28.7402 0.439549
653.464 6.46339 -0.119702
25.3191 5.19033 0.47061
138.509 38.166 -0.144167
536.418 14.5738 0.218532
815.762 42.0712 0.479235
204.137 28.543 0.241112
46.9708 35.3202 0.273331
515.766 1.15774 0.127676
246.394 8.78037 -0.373198
783.664 57.7468 -0.269511
802.248 41.3781 0.231555
378.021 20.5826 -0.26262
171.476 26.7572 0.435513
576.342 39.8197 -0.442572
397.886 15.0367 -0.490274
433.595 29.4373 -0.0993142
396.178 4.37326 0.408006
574.641 10.6791 -0.118707
840.395 11.827 -0.260113
83.5443 39.2022 -0.382793
351.373 4.76952 -0.189257
589.282 9.62657 -0.353205
377.021 43.4254 0.453052
26.9174 24.6605 0.457026
31.8083 5.76491 0.325827
597.086 33.9057 0.421756
530.006 24.7334 -0.140636
27.4073 36.9351 0.413415
97.2793 30.8411 0.207909
341.224 15.8596 -0.29838
631.779 19.087 0.117368
498.189 38.0844 0.306032
774.2 7.59109 -0.445411
765.698 6.03058 0.200858
406.093 36.9678 -0.0979484
670.15 26.8979 0.108335
249.753 17.053 0.509787
346.371 3.6388 0.480463
107.674 31.253 0.321757
121.742 24.1703 0.264434
571.522 39.7067 -0.0822884
321.497 18.8348 0.481886
748.872 47.1822 0.0944626
711.528 50.4531 0.108968
504.33 20.597 -0.372195
811.974 25.1792 0.345555
450.393 24.0172 0.221842
291.481 23.8662 -0.305447
711.542 38.5914 0.28653
292.779 29.0092 0.404886
607.58 12.4245 -0.187805
349.268 36.9266 0.203583
530.82 11.3549 0.474375
385.514 31.0293 -0.0858867
452.784 16.6808 -0.104136
334.266 42.0996 -0.342585
200.217 29.6798 0.112763
812.058 63.5676 -0.145239
837.313 14.6452 -0.321492
6.22684 12.2319 -0.435538
457.068 22.2159 -0.436001
40.2383 22.522 -0.0912975
396.292 31.3674 -0.457723
415.975 24.3213 -0.270658
78.3055 11.7664 -0.499332
54.4074 32.9025 -0.447626
237.686 13.4772 0.421855
653.007 42.4564 -0.374114
610.214 21.1847 -0.484787
78.3769 20.992 0.488387
734.091 45.251 0.413322
799.214 11.6934 -0.492984
699.876 46.1626 -0.565515
734.198 2.34669 -0.468468
581.347 27.4593 -0.469666
620.303 43.8736 0.543505
539.964 18.281 -0.413411
832.353 4.69472 -0.198243
235.351 24.6528 -0.125374
134.264 34.9935 -0.195357
260.499 6.54531 -0.368988
99.2947 4.18019 0.269569
67.5703 10.0362 0.220023
290.751 36.1424 -0.303846
17.743 24.9316 0.350731
587.65 19.7257 0.411912
639.659 43.5418 0.204363
488.074 21.2331 -0.351312
826.936 52.8859 0.360085
429.395 8.61657 -0.123208
459.347 36.7317 0.403401
566.676 3.48976 -0.17991
24.0363 23.6749 -0.38187
610.04 4.56999 0.488958
576.812 4.30107 -0.294474
217.358 11.3203 0.485374
448.632 15.9911 0.204682
328.767 6.34456 0.325584
409.75 18.8656 -0.320619
776.48 51.0505 0.116191
202.856 25.3873 0.424277
809.039 6.74741 0.346673
778.638 48.1818 -0.3151
404.973 10.1619 -0.173737
754.878 2.35499 0.541473
640.567 26.3883 -0.43801
778.05 19.102 -0.338955
454.72 43.373 -0.272753
524.884 12.4188 0.361484
491.677 45.0758 0.223226
470.881 8.89416 -0.14395
703.21 44.5684 0.256395
697.544 40.0639 0.283303
202.491 38.7876 -0.330164
820.57 13.0441 -0.120986
621.761 44.1786 -0.28098
12.1315 16.9227 0.185394
430.732 25.439 0.345276
197.706 22.9591 -0.394487
97.8772 39.164 -0.201386
812.772 38.3108 0.406976
696.477 49.8375 0.243977
337.496 25.4286 0.34179
563.43 10.2644 0.31624
86.5681 44.5387 -0.163709
261.584 25.7397 -0.473258
589.275 24.6785 0.377041
514.539 18.4744 0.412773
277.668 0.88956 -0.34314
585.791 41.5842 -0.381932
564.704 41.027 -0.482696
509.862 32.6568 0.394559
528.218 0.795204 -0.506225
743.223 20.5351 0.404638
189.519 11.9721 0.154135
530.545 37.029 -0.414146
598.456 41.4829 -0.109274
76.7967 0.949849 0.272742
265.991 4.66263 0.159176
836.555 16.6349 -0.20715
822.378 15.7218 -0.48567
842.036 20.9675 -0.455082
321.025 8.57374 -0.229253
782.624 26.6585 -0.430317
430.097 42.0214 0.34404
475.011 0.80018 -0.399428
689.295 39.6689 -0.426088
28.5373 30.0976 -0.307472
349.52 41.7481 -0.46784
266.929 2.83679 0.319004
824.989 65.2791 0.177247
749.195 59.2904 0.133788
303.955 10.8904 0.215533
704.45 30.9982 -0.0769925
591.164 2.59556 0.273123
574.536 6.37232 0.424033
101.985 18.2916 -0.502907
320.914 1.03778 -0.224942
363.282 2.28601 -0.353796
14.709 7.4449 0.356187
4.46295 31.1416 -0.245741
171.082 18.7356 0.36438
71.9476 41.452 -0.219233
70.0693 28.579 0.315516
448.362 14.3091 -0.432668
388.455 34.7696 -0.464631
797.495 51.0728 -0.106662
20.5514 4.02548 -0.269641
74.4697 6.88923 0.139225
661.706 39.483 -0.138789
311.944 0.948533 0.304942
386.571 16.2037 -0.0880877
249.266 4.63482 -0.380794
691.814 23.8557 -0.186647
478.303 8.27392 0.414212
785.433 24.1961 0.384154
668.946 30.0134 -0.283871
709.465 18.8229 -0.0855331
445.794 26.4775 0.48818
107.916 44.655 -0.31053
574.891 43.6458 -0.081789
778.862 12.4308 -0.313458
251.791 30.3362 -0.242614
33.7444 17.1448 -0.163711
356.068 13.7539 0.489047
113.664 40.3081 -0.4634
283.24 42.5462 -0.192156
450.857 1.09223 -0.22631
819.91 44.9996 -0.417611
727.72 0.730611 -0.534817
351.946 3.16146 0.527255
317.99 26.3814 -0.149152
490.428 42.0032 0.216587
85.9784 7.96309 0.440151
209.119 44.7376 -0.378304
803.257 42.9 -0.36086
524.824 39.7959 0.0796426
211.632 40.9463 0.271345
170.118 42.2743 0.169936
841.308 40.8689 -0.442863
839.009 13.2369 -0.452159
644.015 3.51675 -0.482827
201.35 24.3768 -0.0975117
583.036 29.1255 -0.100985
585.121 28.6568 0.257891
434.009 5.69032 -0.134796
510.582 0.930846 -0.280539
797.773 54.5262 0.466134
89.6566 30.7466 0.215773
698.117 19.0277 0.416279
290.648 15.4449 -0.339206
10.27 2.33118 -0.346014
132.755 36.7421 -0.18792
70.4379 23.0213 -0.448376
743.718 41.0846 0.291696
830.187 72.9205 0.162077
196.481 28.0498 -0.183489
832.568 14.3652 0.531888
48.1166 37.3281 -0.256708
96.0586 29.0432 0.149667
673.65 13.2082 -0.401119
438.577 18.2037 -0.501817
550.406 16.6224 0.107732
252.277 28.3574 -0.179588
660.638 4.15152 -0.530301
842.184 11.7013 0.503525
31.5748 31.5003 -0.263693
286.323 7.67763 0.188153
235.238 15.1416 0.260297
1.07804 35.7734 0.150333
238.676 14.5663 -0.354232
224.213 10.9427 -0.142771
227 26.1935 0.283633
141.094 27.8028 -0.116295
580.99 15.1092 -0.334619
176.875 14.1573 0.34317
819.629 65.0362 0.222441
184.258 3.86093 -0.49309
50.6599 38.4249 -0.374089
773.299 60.3537 -0.425895
298.063 31.7118 0.39663
715.714 26.7287 -0.446665
825.579 38.0422 0.471079
319.048 9.18734 -0.107465
772.684 34.7492 0.368134
348.735 2.59489 -0.376893
442.171 23.9228 0.362955
714.13 16.2332 -0.406816
111.686 11.8139 0.461093
512.303 3.90999 -0.481244
788.63 22.8954 -0.188002
93.4418 7.71297 -0.202483
298.786 14.7228 0.175787
449.517 11.4389 -0.232759
831.956 2.81181 -0.467053
422.342 1.9548 -0.523303
187.164 39.2742 0.308264
781.232 10.3917 -0.551108
136.075 36.1541 -0.194053
278.935 31.3541 -0.39802
424.772 21.7723 0.208873
610.139 14.2852 -0.302591
410.995 9.81964 -0.476071
483.601 28.3002 -0.435881
807.668 65.5564 0.392078
50.3661 10.7725 -0.10139
317.218 38.6642 -0.267576
402.882 26.0088 -0.407886
434.713 21.2308 0.247152
552.822 44.6716 0.356387
791.708 51.5783 -0.195258
705.037 39.3196 -0.354563
238.882 33.9599 0.388334
14.6073 31.5847 -0.14935
700.085 40.9899 -0.116149
540.419 44.2912 -0.487898
243.099 38.6689 -0.110589
723.053 33.3538 -0.106526
160.163 9.22603 0.201161
389.512 22.0217 0.296647
492.29 42.9666 0.110773
439.667 19.5145 0.194651
803.695 64.8799 -0.291024
452.399 3.3941 0.443173
52.531 25.3028 -0.319454
498.361 31.7174 0.326516
461.149 41.4512 -0.371439
817.441 50.6465 -0.24182
769.456 34.8415 0.228862
575.45 18.8102 -0.1358
811.208 55.11 -0.423902
311.22 2.18015 -0.443135
402.876 29.0206 -0.46134
30.679 38.6738 0.309395
775.448 35.9648 0.155997
648.677 19.8776 -0.482533
491.452 0.76541 -0.481761
133.564 4.52395 0.276001
452.482 40.8166 -0.101104
12.8003 0.915503 0.344073
830.394 8.38532 0.10509
[...]
POINT_DATA 13483
TENSORS Strain_matrix float
-0.442131 0.0733495 -0.825035 
0.142125 0.283897 2.18481 
-2.50886e-18 -2.2644e-18 1 

-0.19578 -0.499989 0.434849 
0.323477 0.511739 -9.55263 
-7.36489e-18 8.01901e-18 1 

-0.0786705 -0.01638 -0.503983 
0.00318338 -0.0492972 1.38741 
-2.13994e-18 6.04593e-19 1 

-0.871124 0.301946 -1.25299 
-0.182591 0.339366 0.156028 
5.47823e-19 -1.10173e-17 1 

-0.144602 -0.0145472 -0.000628765 
-0.0125199 -0.00602737 -0.278108 
7.24672e-18 -1.23348e-18 1 

-0.0681026 -0.066461 1.80554 
0.0308398 -0.0141566 0.233378 
-5.99014e-18 3.8513e-18 1 

-0.06712 -0.012036 0.0906642 
0.0139633 -0.0672254 -0.193774 
-6.06267e-18 -1.33508e-17 1 

-0.0994478 0.022856 -0.113554 
0.0422252 -0.0778437 -0.0204278 
7.10656e-19 -4.75251e-18 1 

-0.0721572 0.0217773 0.810548 
0.11382 -0.0286096 -1.07107 
-8.344e-18 1.28555e-17 1 

-0.209899 0.100625 -0.0687757 
0.0425452 -0.117387 0.293665 
-1.71724e-17 5.20376e-18 1 

-0.05017 0.0233931 -0.152783 
-0.0119729 -0.0657183 0.0151469 
-1.04561e-17 7.97439e-18 1 

-0.079898 -0.0215536 0.0813869 
-0.0285527 -0.0713277 0.296805 
9.09195e-18 4.38999e-18 1 

-0.346523 -0.0586964 0.568728 
-0.00110164 0.166971 0.60876 
2.019e-18 6.30938e-18 1 

-0.271939 0.133305 0.112508 
-0.0241416 0.0337144 0.0152548 
1.2843e-17 2.85349e-17 1 

-0.0889199 0.00568818 -0.487608 
-0.022585 -0.0465318 0.216302 
-7.21694e-19 4.389e-18 1 

-0.0886685 0.0102829 -0.41647 
-0.051086 0.00425553 0.966449 
-4.7949e-20 4.77359e-18 1 

-0.0515422 0.00504572 -0.0418303 
0.00379965 -0.130785 -0.0765443 
-1.92297e-18 -1.53837e-18 1 

-0.123566 -0.00946128 -0.0489423 
0.0149323 -0.0735903 0.0152342 
-1.31414e-18 -7.32165e-18 1 

-0.139799 -0.194536 -0.212951 
0.0694493 0.16712 0.848598 
1.17037e-17 6.62395e-18 1 

-0.0863255 0.0258057 0.338634 
-0.0878002 -0.106676 0.388094 
-6.24811e-18 -1.29657e-17 1 

-0.197556 -0.337251 -0.0840132 
-0.0791552 0.0415713 0.0798657 
-3.4791e-18 4.03233e-18 1 

-0.333275 0.262991 -0.480268 
-0.101743 0.131349 -0.0934977 
-5.34398e-18 6.34744e-18 1 

-0.505353 0.172768 2.32008 
-0.23484 0.2524 2.94855 
-1.55197e-18 1.56155e-18 1 

-0.0403296 -0.135972 0.861239 
0.325408 -0.164389 -0.28031 
2.00503e-17 -1.7922e-18 1 

-0.129837 -0.110698 0.0618809 
0.0328922 -0.0230086 0.106967 
6.30634e-19 1.18349e-17 1 

-0.0355871 -0.0146946 -0.152329 
-0.000331233 -0.0303695 0.0564567 
4.41953e-18 4.9856e-18 1 

-0.054238 -0.0126843 4.77141 
0.00240771 -0.0135528 -0.144607 
-4.6656e-18 4.18423e-18 1 

-0.165269 0.024303 0.0129644 
0.0451174 -0.0188304 -0.607699 
4.86495e-18 -4.94671e-18 1 

-0.0862807 0.003853 1.03081 
0.0020121 -0.0673053 0.186611 
-7.46464e-18 -4.10914e-18 1 

-0.541738 -0.741138 0.390763 
0.287272 0.265639 -0.522287 
-4.61361e-18 -1.3872e-18 1 

-0.0769 -0.0185737 -0.282343 
0.00569205 -0.153353 0.383184 
-7.81883e-18 -2.20767e-18 1 

-0.0814407 0.158458 -0.0479364 
0.00233534 -0.0542133 -0.0997025 
7.3734e-19 -1.09679e-17 1 

-0.306473 -0.518781 -3.19341 
0.793484 0.450274 1.3814 
2.13757e-18 3.93625e-18 1 

-0.127377 0.00771385 -0.579308 
0.00328425 0.0411396 -0.884089 
2.09445e-18 2.18932e-17 1 

-0.0109472 -0.00878456 0.106073 
-0.0503096 -0.0475392 0.00131972 
4.54932e-18 -9.72716e-18 1 

-0.137483 0.1638 -0.506517 
-0.288162 0.147114 -0.0590578 
-1.07216e-17 -9.29935e-19 1 

-0.0822517 0.00777863 -0.884448 
0.00958987 -0.0222807 -1.09093 
2.54574e-18 6.23448e-19 1 

0.0306241 -0.0494571 0.0054672 
0.0173369 -0.176972 0.0295621 
1.15481e-17 -7.95419e-18 1 

-0.0984102 -0.0312405 0.246541 
0.150698 -0.0388038 -0.0465424 
3.55944e-18 1.02713e-18 1 

-0.0423775 -0.133814 -0.318572 
0.0355872 -0.00787029 -0.168483 
-6.35488e-20 2.61458e-18 1 

-0.0809862 -0.00951496 -0.105973 
-0.0975423 -0.0857977 -0.0464083 
6.96466e-18 -3.01562e-18 1 

-0.0588128 -0.204036 -0.140303 
-0.0604907 -0.122508 0.379075 
1.48857e-18 1.67011e-18 1 

-0.310684 0.00597631 0.007809 
-0.116585 -0.0177665 0.0322813 
5.67361e-18 -8.65225e-18 1 

-0.0412507 -0.0104858 -0.0127832 
0.0145698 -0.0882168 0.394228 
-5.38513e-18 4.1552e-18 1 

-0.0647844 0.022081 -0.00821503 
-0.0211627 -0.103403 0.153104 
-1.00061e-17 7.46664e-18 1 

-0.083256 -0.00675568 0.0744108 
0.0101511 -0.0580346 0.0083468 
-1.40505e-19 7.30624e-18 1 

-0.436281 -0.2693 2.213 
0.0600774 0.0635013 0.0342341 
-3.04442e-19 1.40805e-18 1 

-0.0529096 -0.0104828 0.0180301 
0.00606246 -0.123609 0.0150044 
-2.64589e-18 -1.49767e-18 1 

-0.11771 -0.141251 -0.15605 
0.178129 0.0185958 -0.215017 
4.65475e-18 -8.74185e-18 1 

-0.287777 -0.0564398 -0.673122 
-0.0110928 0.0835843 -1.88196 
1.21449e-17 -2.48738e-19 1 

-0.0463587 -0.123373 0.307578 
0.0175514 -0.0196934 -0.165779 
-1.281e-18 -3.08674e-18 1 

-0.532427 0.187039 0.675192 
0.430376 0.293799 1.78414 
-7.91472e-18 -1.82039e-18 1 

-0.0972663 -0.0124582 -0.06917 
-0.00714555 -0.0110413 -0.0452535 
1.40692e-17 8.41722e-19 1 

-0.120391 0.03625 0.0963234 
-0.01669 -0.0418806 -0.0182558 
-9.30698e-18 -1.11643e-18 1 

-0.0876351 -0.0150501 -0.231312 
-0.0242302 -0.0937984 -0.710912 
2.2462e-18 -1.17925e-17 1 

-0.0270395 -0.0938519 -1.7987 
0.0807526 -0.0763013 -2.18733 
1.01088e-17 3.68724e-18 1 

-0.104223 -0.0195012 -0.655775 
0.244315 0.0785946 0.0434234 
-7.61861e-19 -1.09926e-17 1 

-0.0778006 -0.0189875 0.157516 
-0.00243858 -0.0872617 -0.0466762 
1.19565e-17 -7.59644e-19 1 

-0.0500132 0.0138095 -0.149768 
-0.0354459 -0.132149 -0.203965 
-1.69431e-17 -7.6195e-18 1 

-0.0849449 0.00229281 -0.0628449 
-0.0481904 -0.0557246 0.0357546 
-3.00765e-18 -4.68779e-18 1 

-0.177729 -1.20781 0.235371 
-0.0256448 0.500388 -0.265426 
4.17138e-18 3.36402e-19 1 

-0.232938 -0.229502 -2.10417 
-0.0129199 0.219994 0.683339 
-6.88622e-18 7.7352e-18 1 

-0.0876533 -0.0947316 -0.27055 
-0.00587831 -0.0449253 -0.0685503 
7.47138e-18 -1.05297e-17 1 

-0.209813 0.00246147 -0.0487729 
0.0412168 0.0128382 0.426318 
1.08058e-17 4.14224e-18 1 

-0.0910378 0.0852368 -0.0449477 
-0.0221318 0.00480499 -0.0825355 
-3.18433e-18 1.60601e-17 1 

-0.0560907 0.040717 0.118346 
-0.0855181 -0.0990905 0.343014 
4.12793e-18 6.53882e-18 1 

-0.31173 0.126956 -0.417669 
0.0594062 -0.121207 -0.461854 
7.36387e-18 -2.91686e-18 1 

-0.132963 -0.229654 0.254 
0.26528 0.109779 0.884402 
-1.22066e-17 -1.42972e-17 1 

-0.110523 0.00283961 -0.759048 
-0.0481924 -0.0785738 0.654525 
-1.03399e-18 -5.20331e-18 1 

-0.155802 0.0295741 -0.0690369 
-0.0970922 -0.0910354 -0.129303 
-3.13281e-18 4.90353e-18 1 

-0.945275 0.792014 -1.35419 
-0.0301034 0.382033 0.822868 
-2.18102e-17 8.24298e-18 1 

-0.0506473 0.00342411 -0.0574129 
6.60432e-05 -0.0691945 0.0407965 
-5.30058e-18 8.46357e-18 1 

-0.0419206 0.0257398 0.0465649 
0.0429538 0.0130683 -0.284289 
1.66887e-18 -8.95845e-18 1 

-0.121702 -0.0564778 0.220684 
-0.0227615 -0.0115863 0.0421533 
-3.22589e-18 9.5308e-18 1 

-0.0718025 -0.016086 -0.554339 
-0.00100339 -0.0600176 -0.574384 
-1.36579e-18 -4.10977e-18 1 

-0.0519284 -0.00932685 0.138156 
-0.0207604 -0.103349 0.124589 
8.46318e-18 4.78073e-18 1 

-0.919239 -0.714529 -5.99549 
0.292354 0.46933 0.577628 
-3.12084e-18 1.48995e-17 1 

-0.0444022 -0.13272 -0.158309 
0.0651571 -0.0865351 0.400179 
4.17942e-18 -3.98751e-18 1 

-0.462845 -0.156775 -0.0109349 
0.151893 0.278985 -0.358158 
-1.28796e-17 8.07765e-18 1 

-0.319206 -0.187761 0.5062 
-0.0516964 0.0695771 -1.16098 
1.38971e-17 -1.04042e-17 1 

-0.441414 -0.280016 0.0468024 
0.00673534 0.0447658 0.0580323 
-2.29612e-17 -5.98825e-19 1 

-0.0432764 -0.0393371 0.85331 
-0.0250889 0.0196464 0.181735 
2.13685e-18 -4.07019e-19 1 

-0.0204831 0.0164888 -0.662111 
-0.0202536 -0.0583842 0.123913 
-2.73473e-18 -5.08093e-19 1 

-0.35733 -0.146545 -2.13365 
0.160145 0.304824 -0.0281179 
2.67199e-18 3.72459e-18 1 

-0.141084 -0.201327 -0.848474 
0.13038 0.0133718 1.04942 
5.89176e-18 1.31583e-17 1 

-1.40261 -0.493121 -0.369592 
-0.221302 0.57245 0.78564 
-5.33615e-19 -4.7136e-18 1 

-0.597406 1.16265 -1.89909 
0.0294191 0.142207 0.140176 
1.05977e-18 -4.32391e-17 1 

-0.0740064 0.105479 0.224726 
-0.0625048 -0.0997364 -0.353969 
2.21796e-18 -1.38623e-18 1 

-0.155522 0.0163702 -0.134381 
0.0362365 -0.0560926 -0.0177857 
1.75682e-18 -4.3198e-18 1 

-0.110791 0.0208414 -0.129693 
0.0176061 -0.0628381 -0.0548827 
1.13355e-17 -1.21763e-17 1 

-0.0733265 -0.0711856 -0.0444966 
0.0531989 -0.0580449 0.0902578 
-2.35501e-18 6.36179e-18 1 

-0.0626128 -0.0966032 -0.097879 
0.0891754 -0.0691959 0.274805 
-9.38841e-18 1.23998e-18 1 

-0.554884 -0.529775 3.89223 
-0.140163 0.186809 1.76879 
-1.58189e-18 -5.02166e-18 1 

-0.151761 -0.053299 0.0498498 
-0.0427625 0.00117172 0.014996 
1.92168e-18 -4.39241e-19 1 

-0.0837515 0.286324 1.31047 
0.0888485 0.00519045 -0.630379 
-2.46693e-18 -5.05721e-18 1 

-0.120647 -0.0287852 0.155815 
-0.00874164 0.0507334 -0.0388412 
3.42936e-18 -3.59241e-18 1 

-0.0950376 0.0289202 -0.0280967 
-0.0134185 -0.0362773 0.0821926 
4.45602e-18 1.39115e-18 1 

-1.19859 -0.932696 -1.10077 
-0.199859 0.450809 -0.414873 
-3.95301e-18 9.31781e-18 1 

-0.0245878 -0.379947 -0.339658 
0.0228936 0.0379088 0.233359 
-9.33971e-19 -1.46767e-18 1 

-0.0328406 -0.0243915 -0.0266881 
-0.0138059 -0.0699289 0.0499383 
-1.02946e-17 1.27653e-17 1 

-0.0504009 -0.0169721 0.305601 
0.00947827 -0.0236288 -0.396356 
7.22503e-19 -2.95744e-18 1 

-0.11919 -0.0844348 0.043023 
0.0503213 0.0412352 1.38369 
2.0621e-18 -6.82648e-18 1 

-0.0814475 -0.0300251 0.445034 
0.0206347 -0.0808769 1.72643 
-1.58793e-18 5.7835e-18 1 

-0.0743671 0.00352782 0.119272 
-0.0163446 -0.0393845 -0.161928 
-1.0997e-17 2.42539e-17 1 

-0.0668907 -0.0256509 -0.522744 
0.00759018 -0.0883438 -2.08736 
-1.12268e-18 5.97426e-18 1 

-0.13874 0.0957436 0.0704642 
-0.114408 -0.0571964 -0.0595768 
2.03303e-17 -1.37721e-18 1 

-0.752993 -0.304963 -0.37996 
-0.362604 0.237303 0.300356 
-6.98255e-18 -8.24169e-18 1 

-0.0615915 0.0212883 0.00402927 
-0.0175969 -0.0222422 0.296568 
-2.35824e-18 -6.54042e-18 1 

-0.105045 0.0311226 0.0987457 
0.0372341 -0.109942 -0.0295863 
1.68482e-18 3.34486e-19 1 

-0.130605 0.0330078 0.0771808 
0.0115571 -0.0737101 -0.492162 
6.5103e-18 1.60089e-18 1 

-0.0959164 -0.022768 -0.428047 
-0.0371788 0.0110007 3.35237 
-3.98715e-18 7.88591e-18 1 

-0.0611998 0.0425008 -0.239575 
0.00318259 -0.0653617 0.00860306 
4.39388e-18 4.12519e-18 1 

-0.0643536 0.0275445 -0.0289262 
-0.0198856 -0.104805 0.0113185 
4.18613e-18 1.39538e-19 1 

-0.120514 -0.105008 1.21797 
0.171592 0.134077 -0.850559 
-7.40725e-18 -5.12136e-18 1 

-0.168174 0.0532327 -0.268072 
-0.0132355 0.0378989 -0.270062 
1.25856e-17 1.03666e-17 1 

-0.0779305 -0.0182916 0.213442 
0.0105051 0.00139057 -0.337629 
3.84505e-18 7.51331e-19 1 

-0.0484235 0.083134 0.162026 
0.0452752 0.0414812 -0.0597042 
1.76834e-17 -6.40704e-18 1 

-0.0507803 -0.00601944 -0.00751332 
0.0842332 -0.0634814 -0.0541249 
4.79887e-18 1.20587e-17 1 

-0.334562 -0.105192 0.38734 
0.183266 0.146472 -0.427852 
-7.97011e-19 3.37197e-19 1 

-0.0912134 0.0999469 0.345699 
-0.0510168 -0.010731 0.137833 
3.61178e-18 4.35782e-18 1 

-0.378097 -0.0537161 -0.101968 
-0.128038 -0.101604 -0.171284 
-2.35393e-18 4.94326e-18 1 

-0.382235 0.17813 -0.28512 
0.194268 -0.00542642 -0.00519673 
-3.06867e-18 5.42918e-18 1 

-0.0629593 0.00583245 0.0597101 
-0.0254275 -0.0209453 -0.00398727 
-4.72477e-18 -3.95981e-18 1 

-0.0707987 -0.105213 -0.12139 
0.136582 -0.010941 0.16112 
-5.97359e-19 -1.28005e-18 1 

-0.0718931 0.010371 1.61643 
-0.00936131 -0.042022 -0.521648 
-6.27967e-19 -1.41939e-18 1 

-0.0787107 0.0317932 -0.303046 
-0.0237658 -0.147253 0.123651 
1.36407e-18 -7.93639e-18 1 

-0.126515 -0.0770885 0.33144 
0.0294889 0.00364039 0.284324 
3.51413e-18 1.4449e-18 1 

-0.101418 0.0500063 0.0111937 
-0.0625818 0.0367753 0.12819 
1.30218e-17 1.4903e-18 1 

-0.0450531 -0.145796 -0.0132295 
0.118157 -0.0132429 -0.0711721 
2.93481e-18 -5.12428e-18 1 

-0.0677179 0.022306 0.229837 
-0.0114206 -0.0629212 2.31675 
4.26539e-18 4.5829e-18 1 

-0.611317 -0.250071 -1.12941 
-0.227251 0.553398 -0.4894 
-1.59449e-18 2.10183e-18 1 

-0.165687 -0.131561 0.176808 
0.158992 0.131553 0.11573 
-3.11073e-18 9.36923e-18 1 

-0.0407985 0.00188378 -0.697328 
0.033709 -0.00407041 -0.0664362 
4.2081e-18 2.5787e-18 1 

-0.321821 -0.0326896 -0.40308 
0.210063 0.0989979 -0.797259 
1.13581e-17 -3.48435e-18 1 

-0.194469 -0.0908965 -0.269716 
-0.0584647 0.146478 0.264177 
-7.37117e-18 0 1 

-0.0952232 -0.01264 0.181215 
-0.0251708 0.0392348 -0.0409548 
-4.10337e-18 -8.66837e-18 1 

-0.55788 0.510289 0.875167 
0.065388 0.391459 -1.27238 
3.14849e-18 -1.10554e-18 1 

-0.096767 -0.0631179 0.545482 
0.122042 0.00673829 -0.554624 
4.09958e-18 1.35305e-17 1 

-0.0777221 -0.0102487 0.0267114 
0.0596379 -0.0503572 0.111471 
7.10158e-19 -3.72978e-18 1 

-0.100769 -0.158522 -0.12203 
-0.149732 0.00489982 -0.550837 
5.74096e-18 -2.91754e-18 1 

-0.130849 -0.0600393 -0.0217908 
0.0636252 -0.0424771 -0.075522 
3.29325e-18 -1.2277e-17 1 

-0.041554 -0.120442 -0.0336441 
0.117935 -0.0291214 0.0529225 
6.65377e-18 1.51936e-17 1 

-0.0663122 -0.0512468 -0.139238 
0.270429 -0.0706315 0.242406 
1.08805e-17 2.63199e-18 1 

-0.0553585 -0.0402463 -0.0521105 
0.0582958 0.0233809 -0.0873604 
1.58342e-17 -2.12698e-18 1 

-0.026846 -0.058006 0.120358 
0.0467008 -0.0316253 0.16995 
7.81285e-18 1.29922e-17 1 

-0.0239802 -0.830873 0.607154 
0.348497 0.340696 -0.358632 
2.84564e-18 7.13283e-18 1 

-0.562856 0.0995624 0.372278 
-0.225862 0.136931 -0.0432108 
2.62337e-18 -8.72579e-18 1 

-0.071107 0.0229065 0.102535 
-0.0559318 -0.103603 -0.164664 
2.49081e-18 -1.01239e-17 1 

-0.0782459 0.0173179 -0.335806 
0.0317482 -0.0750099 0.0445655 
5.39887e-18 5.98374e-18 1 

-0.0728317 0.0245937 0.144588 
-0.0526754 -0.0469548 0.197598 
9.40028e-18 2.08102e-18 1 

-0.0519181 -0.0830009 6.03606 
0.0229412 -0.0191264 2.60055 
9.81337e-19 7.93741e-18 1 

-0.172888 -0.0538687 -0.250653 
0.230273 0.0953095 -1.18876 
3.34443e-18 7.55842e-18 1 

-0.0849052 -0.0476443 -2.74495 
0.014525 -0.0481379 -1.32587 
-1.89706e-18 2.85767e-18 1 

-0.109447 0.0577373 -1.95117 
0.0385463 -0.00138596 -0.0845856 
2.25745e-18 8.09709e-19 1 

-0.0609744 -0.00711413 0.193543 
0.0125942 -0.0686744 0.471011 
4.72997e-18 -2.46013e-18 1 

-0.205565 0.179131 -0.125783 
-0.0890653 0.106784 2.24977 
3.29462e-18 4.10191e-18 1 

-0.0853518 -0.0603424 -0.254334 
0.0456413 0.0323358 1.63228 
4.63243e-18 1.01288e-18 1 

-0.058779 -0.0140143 -1.76918 
-0.00419381 -0.00896806 1.16301 
5.89773e-18 3.81433e-19 1 

0.403284 -1.53177 8.81302 
0.729807 1.03437 0.374263 
3.00014e-18 8.63173e-18 1 

-1.01879 0.154269 -0.308263 
1.16668 0.495442 0.455899 
1.00362e-17 -2.06299e-17 1 

-0.28584 -0.0500587 18.0611 
0.0660639 0.144001 16.8214 
-2.65417e-18 1.27977e-18 1 

-0.337401 -0.339231 0.456789 
0.158244 0.0893863 -1.23503 
4.47613e-18 1.48233e-17 1 

-0.171074 -0.0583944 6.7532 
0.0943533 0.0415626 1.09362 
4.07175e-18 1.56559e-17 1 

-0.133368 -0.749273 -88.4745 
0.0489985 0.14675 -59.8365 
2.97563e-18 -2.28619e-18 1 

-0.157274 -0.0515702 -0.334396 
0.115622 -0.00835577 -0.405545 
3.42983e-19 7.9724e-18 1 

-1.09225 0.03121 0.352523 
0.0847324 0.278256 0.0326305 
1.06045e-17 1.75773e-17 1 

-0.0407845 0.00770749 0.0601526 
-0.0427494 -0.0434467 0.0527446 
-8.9013e-18 4.90101e-18 1 

-0.0851568 -0.0484025 0.217747 
0.0172182 -0.0293458 0.123611 
8.68594e-18 4.02519e-18 1 

-0.0309898 -0.0513438 -0.0503193 
-0.00968373 -0.115915 0.113351 
-2.23441e-18 -1.50458e-17 1 

-0.0896808 0.0185193 -0.139077 
-0.00779075 -0.0807892 -0.0119534 
3.76692e-18 -2.80781e-18 1 

-0.0827388 -0.0231631 -0.1425 
0.00591972 -0.0671364 0.066017 
3.56845e-18 1.08932e-18 1 

-0.0509022 0.0685209 -0.0503265 
0.0163856 -0.00928695 -0.366843 
5.96443e-18 -1.03588e-17 1 

-0.141875 0.0382153 0.242962 
-0.0229551 0.0313562 -0.273712 
-7.29646e-18 -2.50512e-17 1 

-0.232652 -0.0358944 2.61695 
-0.0169458 0.157515 0.18507 
-7.0112e-18 2.46935e-18 1 

-0.16051 0.0221343 -0.268814 
0.059232 0.0345777 0.170357 
1.11771e-17 4.45521e-18 1 

-0.0683748 -0.050702 0.39272 
-0.0205273 -0.0451596 0.880923 
-9.76257e-18 5.23629e-18 1 

-1.85716 0.344843 11.5048 
-0.88769 0.535805 -1.50452 
2.48939e-19 -1.06042e-17 1 

-0.117097 -0.02024 0.0564679 
0.012297 -0.0393079 -0.106211 
1.55267e-17 6.84064e-18 1 

0.0153159 0.0638979 -0.497006 
-0.06622 -0.0375056 1.04629 
3.27074e-18 -1.17411e-18 1 

-0.149499 0.0646028 -0.0743296 
-0.0188306 -0.062215 -0.0423827 
1.19092e-17 -3.83059e-18 1 

-0.0848912 0.0429621 0.275692 
-0.0619289 0.0191185 0.0635926 
7.97804e-18 7.5455e-18 1 

-0.28745 0.102811 -0.126042 
-0.170299 0.0127196 -0.082969 
-3.63896e-18 6.33448e-18 1 

-0.0604577 0.000647933 -0.0369888 
-0.03975 -0.0694157 0.110029 
-5.4044e-18 -5.30402e-18 1 

-0.0803652 0.0107529 -0.562982 
0.0128033 -0.0686778 0.0955744 
4.53105e-18 2.92977e-18 1 

-0.197266 0.0425018 -0.0232467 
-0.0138368 -0.0574719 -0.479123 
2.15532e-18 5.68222e-18 1 

-0.108188 -0.00130677 0.11203 
-0.0572745 -0.0480684 0.12853 
1.31799e-19 -2.10879e-18 1 

-0.0888885 -0.0329225 0.344846 
-0.0625613 -0.0479861 0.416178 
-1.18222e-18 2.56711e-18 1 

0.494839 -1.11503 0.365342 
0.929189 0.794822 -0.203974 
-1.39417e-17 6.57811e-18 1 

-0.0858422 -0.0349255 0.300174 
-0.00471787 -0.045801 -0.187636 
3.55453e-18 -6.52987e-18 1 

-0.261742 -0.0590729 0.293017 
0.0237039 -0.0232092 0.178328 
-2.99877e-17 1.35799e-17 1 

-1.17873 0.392117 6.50801 
0.886761 0.411951 1.38814 
6.92585e-18 -1.04541e-18 1 

-0.086577 -0.0851039 -0.0847437 
0.0492504 -0.0596007 -0.00700561 
-2.5189e-18 8.98596e-19 1 

-0.640432 -0.507148 -1.39433 
0.240793 0.451499 0.345478 
8.23419e-18 -4.22503e-18 1 

-0.296599 -0.0538464 0.144373 
0.0878675 0.191086 0.742002 
6.89073e-18 3.42787e-18 1 

-0.875573 -0.285864 -0.195352 
-0.222932 0.382765 1.21252 
1.01525e-18 7.78359e-18 1 

-0.0901738 0.0538448 0.0827039 
-0.0960796 -0.0700098 0.351955 
-1.71743e-17 -7.4967e-18 1 

-0.0849176 0.0149301 -0.0877137 
-0.0774722 -0.122975 -0.192437 
6.7981e-18 1.54184e-18 1 

-0.0878507 0.0747741 -0.0570005 
-0.0981989 -0.0886416 -0.151467 
-4.84049e-18 -7.43361e-18 1 

-0.141767 0.0137212 0.0466051 
-0.0722654 -0.0413913 0.197981 
-1.35829e-18 -7.79989e-18 1 

-0.0887736 -0.143357 0.258116 
0.087709 0.00867889 0.0850081 
-4.78286e-18 -7.87422e-18 1 

-0.0303745 0.615017 -1.98606 
-0.0693311 0.0951738 0.692745 
-5.24741e-18 4.19142e-18 1 

-0.0554192 0.0297258 0.0523653 
-0.0434573 -0.0495856 -0.0226247 
-9.96911e-18 1.11922e-18 1 

-0.258834 -0.290132 -0.410245 
0.325163 0.0590494 -0.00931631 
2.03923e-17 -1.83931e-18 1 

-0.630034 -0.0511362 -2.71201 
0.161213 0.255222 -0.59449 
6.25537e-19 -5.2426e-18 1 

-0.152505 0.0661127 -0.174445 
0.0418587 0.0474956 -0.0479854 
4.4394e-18 -1.28465e-17 1 

-0.00674332 0.0261607 0.0593698 
-0.0296183 -0.061829 -0.257118 
2.93064e-18 3.36099e-18 1 

-0.080358 -0.017646 -0.505875 
0.0553192 -0.0165842 -0.0966111 
-1.27016e-19 4.19154e-18 1 

-0.0560303 -0.0367818 -0.165336 
0.0724662 -0.0285658 0.184173 
2.68257e-18 -8.94189e-18 1 

-0.492696 -0.0890519 2.89147 
0.160168 0.336402 0.664638 
-4.40154e-18 9.49729e-18 1 

-0.109969 -0.191021 -0.385384 
0.17906 0.0828937 -0.0929802 
1.33716e-17 -3.11324e-18 1 

-0.132607 0.108548 -0.274577 
-0.0316819 0.0847968 -0.151829 
6.55442e-18 -4.94791e-18 1 

-0.118922 -0.00738929 0.186694 
0.0252795 -0.034463 -0.622586 
-8.51863e-20 1.95929e-18 1 

-0.0446154 0.10373 -0.0219392 
0.0124584 -0.113466 0.141635 
1.09644e-18 1.23502e-17 1 

-0.0778774 -0.00600441 -0.19224 
0.00470838 -0.018754 0.542584 
-6.38201e-18 -2.67315e-18 1 

-0.246149 0.160862 0.60753 
0.0238319 0.0912786 -0.917479 
4.18329e-18 -2.54635e-18 1 

-0.0364362 -0.0194159 -0.0235004 
0.0167281 -0.0549274 0.106301 
-8.47699e-18 -5.11432e-18 1 

-0.0735407 0.00622416 0.0195174 
-0.00553288 -0.17552 0.0831106 
3.28713e-18 5.17265e-17 1 

-0.101852 -0.125895 0.911328 
0.143132 -0.0132455 -0.295571 
8.46809e-18 -4.10541e-18 1 

-0.127102 -0.0348896 -0.910549 
0.0126081 0.112142 -15.4669 
2.13191e-18 3.33741e-18 1 

-0.0483403 -0.00398721 -0.122509 