# vtk DataFile Version 3.0
Output file generated by Yade's KinematicLocalisationAnalyser
ASCII
DATASET UNSTRUCTURED_GRID

POINTS 13483 float
569.442 35.3723 -0.451536
687.337 79.7461 0.443808
118.907 6.09047 -0.441927
712.236 7.18036 -0.4406
484.498 8.76681 0.321576
311.249 37.4948 -0.451553
155.239 7.0288 0.464094
540.255 11.2178 0.266933
483.795 25.8362 -0.159328
655.173 18.753 -0.617336
208.414 8.67001 -0.10418
254.436 6.44293 -0.284612
599.634 51.1651 -0.136011
593.023 19.6927 -0.115797
136.074 17.1363 -0.461825
218.794 36.2935 -0.401014
215.495 13.116 0.276031
286.3 9.6402 0.413879
336.815 34.0413 0.448643
506.484 8.58608 0.375307
406.099 40.4999 0.0955656
556.382 43.4849 0.293294
713.598 54.0714 -0.517074
638.076 54.2838 -0.428494
449.435 17.1463 0.301215
238.657 46.0352 0.149158
478.594 31.4804 -0.469492
553.736 20.3546 0.260242
44.6618 15.2675 -0.491345
649.507 47.6536 -0.343537
468.669 6.20199 0.358167
16.6532 23.4448 0.293371
701.552 81.4455 0.161384
480.995 2.21633 0.644412
77.6204 45.7658 -0.102983
502.178 35.8427 0.336148
509.53 18.5734 -0.455573
340.026 22.329 0.172427
511.881 32.6519 -0.356649
346.104 37.6165 -0.410604
239.109 14.3341 0.322708
426.265 40.6621 0.0637086
621.497 11.0376 -0.244285
190.701 6.295 -0.373173
55.5368 7.06985 -0.101673
68.5957 9.00221 -0.299925
629.502 10.0256 0.615084
23.1308 11.8512 -0.301812
558.059 60.6625 0.380941
617.882 45.8784 0.319794
171.306 32.8173 -0.28926
685.015 63.8876 0.127151
34.7187 28.6891 0.123741
515.306 3.00122 0.295207
140.962 7.45894 -0.515404
558.597 36.9955 0.424658
490.03 31.1493 0.124636
173.717 0.970163 0.27632
32.5623 2.34418 -0.353877
345.45 18.1808 0.26415
570.6 71.3529 0.133378
452.817 39.4485 -0.17245
394.422 1.02491 0.204306
638.708 13.1656 0.69767
26.8189 44.0488 -0.237641
254.492 31.3419 0.302585
653.4 11.3463 -0.325932
617.189 76.6016 -0.349715
412.437 8.55259 -0.535173
539.694 4.6132 -0.430185
671.284 40.1961 0.379895
129.879 7.84718 0.260237
484.815 31.2712 -0.141892
466.898 17.3864 -0.0985018
292.311 17.0896 -0.346456
20.371 13.7037 0.285836
698.374 61.9271 -0.310345
330.39 40.3926 -0.280989
615.978 40.1619 0.37682
631.207 20.0411 0.302685
703.899 17.6929 -0.216074
454.434 40.9233 -0.160407
91.9349 39.2657 -0.273234
625.755 61.9294 -0.227012
596.291 59.7481 0.102642
718.633 60.6832 -0.109134
699.129 0.762757 0.570956
288.575 29.3598 0.417504
588.658 6.29355 -0.134442
24.2276 5.3717 0.564325
132.934 41.2393 0.135811
498.755 16.782 0.194435
697.054 51.0678 0.448741
194.117 30.185 0.22641
45.1929 35.8807 0.267228
479.839 1.16742 0.124668
234.195 8.68379 -0.447417
666.504 75.1757 0.250692
686.744 49.7588 0.241182
358.22 22.4549 -0.274652
162.792 27.3824 0.450054
529.113 51.9317 0.411921
376.606 15.8274 -0.51688
408.553 33.4448 0.0974445
374.375 4.73796 0.37254
524.748 16.1301 -0.143235
717.784 11.523 -0.385241
79.6741 40.6941 0.398957
332.937 5.01827 -0.220697
535.425 12.1512 -0.315985
358.113 47.2193 -0.455357
25.2975 24.9251 0.477296
30.3334 5.81337 0.318092
542.312 47.6713 0.395754
491.458 29.4098 0.157025
25.5429 37.8781 0.423616
93.1009 31.5411 0.222773
323.131 16.7666 0.29933
569.287 22.998 -0.133676
467.538 42.5672 0.309074
667.276 7.16264 -0.467475
658.829 6.42668 0.268125
385.015 37.8103 -0.103516
591.615 36.3078 0.111724
237.517 17.1956 0.560173
328.373 3.91312 0.455795
103.352 32.0989 0.325526
116.377 25.0231 0.257381
523.802 49.358 -0.0677602
305.648 18.9304 0.480899
648.099 62.6371 -0.0981085
622.052 76.3171 0.102978
470.886 24.1405 -0.391471
697.744 33.0488 0.319212
423.815 26.8019 0.231027
277.448 24.2872 -0.31008
619.831 59.8394 0.305561
277.924 30.7987 0.377046
549.858 12.2204 0.23276
331.907 37.264 0.201448
493.186 13.0595 0.605382
364.311 32.3624 -0.086659
425.784 19.3098 0.107107
317.631 43.853 -0.450622
190.195 31.0992 0.114777
691.568 78.3862 -0.144442
716.024 13.5767 -0.354877
6.05175 12.6661 -0.422239
429.904 24.7655 -0.427856
38.4338 23.0344 -0.0924471
375.082 32.3041 -0.463374
394.472 25.9149 -0.279471
75.2115 11.5858 -0.531568
52.7932 33.7122 -0.441608
225.836 13.7073 0.456311
568.48 63.6053 -0.433306
550.764 21.188 -0.462625
75.5156 20.7955 0.510675
638.838 58.5154 0.483
688.579 16.8558 -0.608061
611.386 70.1942 -0.597103
638.223 2.21267 -0.565296
531.378 35.4063 -0.4092
556.978 45.0366 0.561003
498.835 22.0271 -0.508283
709.672 5.58646 0.466772
223.927 25.1207 -0.122709
128.906 37.8098 -0.207793
247.381 6.83673 -0.416021
94.6544 4.82111 0.269499
64.9278 10.2906 0.221848
277.218 37.2607 -0.297471
17.0686 25.257 0.342764
536.022 27.7359 0.437104
562.855 61.1925 0.198858
456.348 23.6061 -0.339053
703.704 64.2473 0.362935
405.727 8.79574 -0.138681
433.853 39.6944 0.389971
522.508 4.29104 -0.203936
22.5358 23.8663 -0.390786
551.827 4.60555 0.54464
528.287 9.16459 0.48353
206.694 11.2221 0.502912
422.947 17.0123 -0.177638
312.435 6.3248 0.374338
387.708 19.3324 -0.371399
670.037 64.2623 -0.100203
193.541 26.3482 0.448974
693.698 8.84104 0.434907
673.502 63.675 -0.319056
383.018 10.6719 0.178587
650.016 3.66004 0.525787
572.384 31.3659 -0.460055
667.89 23.2627 -0.367784
429.893 46.6128 -0.318842
487.777 13.6727 0.494092
461.981 49.9322 0.233187
441.839 10.1446 -0.174898
614.983 69.9596 0.257701
609.039 62.4494 -0.293876
192.587 40.4774 -0.342812
701.714 17.7693 -0.174798
558.249 44.1374 -0.26821
11.8948 18.2075 0.184453
408.381 26.1174 0.349826
188.758 23.3974 -0.394807
93.645 40.2047 -0.199314
696.202 46.4387 0.458869
606.65 72.6652 0.24055
319.641 26.6597 0.343001
518.234 13.5328 0.351324
82.7895 46.1112 -0.170304
248.209 26.4058 -0.470169
537.492 31.5004 0.475434
480.235 20.3435 0.456247
263.852 0.895593 -0.353252
534.957 60.0109 -0.385397
516.811 51.7652 -0.456074
479.255 40.8843 0.396432
490.487 1.80566 -0.658356
640.284 27.1802 0.496093
180.464 12.7798 -0.220362
492.232 48.1879 -0.425046
546.094 61.0874 0.153017
73.8038 0.948032 0.27384
252.673 4.75784 0.159541
715.46 16.9989 -0.218325
703.882 19.7074 -0.575283
719.267 22.4685 -0.541053
305.002 8.68346 -0.234408
670.784 31.3431 -0.491094
407.368 45.7135 0.31676
445.665 0.871152 0.521074
602.985 60.2578 -0.432569
26.6555 30.5568 -0.301176
332.139 42.7146 -0.615661
253.606 2.92107 0.355236
704.458 78.4347 -0.175378
650.427 76.436 0.0746956
288.754 11.1345 0.251232
614.051 51.1819 0.0809163
534.461 4.76055 0.289638
525.666 11.0813 -0.567296
97.4179 18.8849 -0.478468
304.835 1.05424 -0.232085
343.97 2.25708 -0.368813
13.9684 7.37022 0.458783
4.4476 32.005 -0.256636
162.755 19.1214 0.352893
68.5517 43.3365 -0.229974
66.0396 30.0989 0.2997
422.886 15.2443 -0.426012
367.396 36.1789 -0.462087
683.151 65.1643 0.120791
19.6146 4.02373 -0.273716
71.5273 6.9483 0.150244
574.786 56.7379 -0.136261
296.226 0.942472 0.374856
365.51 16.924 -0.0929731
236.763 4.688 -0.367006
606.348 39.7267 0.169612
448.241 9.00674 0.449418
672.848 28.1213 0.33524
589.776 40.8509 0.289377
619.52 33.5723 -0.081408
419.335 30.9365 0.481482
103.306 46.1708 -0.311739
525.974 54.2951 -0.0899313
669.515 12.806 -0.561609
239.948 31.903 -0.247406
32.3183 17.5768 -0.168395
337.633 14.2298 0.490238
108.789 41.6037 -0.460224
269.927 43.5163 -0.236298
426.459 2.21774 -0.255507
699.259 55.5893 -0.454992
632.918 2.69994 -0.651552
333.396 3.4838 0.577127
301.848 28.7636 -0.1427
460.726 46.8452 0.209686
82.681 7.89636 0.480015
198.864 46.5803 -0.388034
688.506 49.534 -0.387196
490.868 56.9785 0.0667027
201.231 42.432 0.282206
161.755 43.6886 -0.0945505
718.55 48.7935 -0.399339
717.79 13.378 -0.570863
580.981 4.95958 -0.538103
192.492 24.8204 -0.0863923
531.942 39.817 -0.115716
535.28 39.3154 0.293418
410.173 5.69301 -0.145663
474.935 0.951705 0.397497
676.649 72.062 0.477679
85.5493 31.9673 0.218353
612.312 32.5482 0.459002
276.054 15.7098 -0.326243
9.50639 2.38279 -0.33338
127.435 39.344 -0.191427
68.0546 23.8026 -0.459545
644.925 54.9698 0.32907
710.42 82.76 -0.163359
187.689 28.557 -0.177258
711.701 15.2779 0.469864
46.1947 37.9907 -0.264778
91.8926 29.948 0.148024
601.616 20.1725 -0.45294
414.879 19.6187 -0.537554
507.74 18.9934 0.121221
240.53 30.0167 0.184248
591.565 6.86533 -0.444727
719.455 11.4157 0.583102
29.6071 31.9201 -0.267501
271.933 7.74107 0.197089
223.773 15.6166 0.282884
1.07932 36.5616 0.151601
226.935 14.9148 0.379396
213.133 11.0188 -0.116393
215.434 26.8579 0.283668
133.955 28.1682 -0.128973
529.649 22.0759 -0.329577
168.242 14.3945 0.328574
699.335 78.6704 0.220834
175.659 3.93457 -0.498585
48.6381 39.3591 -0.378278
660.94 67.8407 0.452
283.643 32.6376 0.408436
621.471 44.3918 -0.465844
705.177 47.9298 0.548376
303.08 9.34366 -0.0993991
664.161 41.8439 0.409505
330.369 2.51712 -0.431764
416.521 27.323 -0.350706
624.12 28.6444 -0.552449
106.827 11.936 0.536676
477.005 3.87895 -0.508327
676.911 27.3703 -0.193583
89.7549 7.833 -0.345629
283.811 14.7841 0.197642
424.23 12.2477 -0.21537
710.52 2.84598 -0.539462
399.344 2.00809 -0.536357
177.574 40.5704 0.332086
672.191 10.9463 -0.54303
130.728 38.9647 -0.210052
264.828 31.9728 -0.404814
402.631 22.2826 0.209522
552.188 14.3683 -0.326877
388.435 9.70795 -0.527332
454.006 32.0224 -0.419423
687.653 81.2743 0.392207
48.3055 11.1012 -0.101177
301.444 42.727 -0.298379
381.476 26.7171 -0.427644
411.063 21.5 -0.242101
505.819 51.2632 0.404735
679.097 66.5816 0.18258
615.308 61.8039 -0.354671
227.104 35.3624 0.384368
14.0441 33.9142 0.1586
611.049 62.5583 0.119231
501.431 57.559 -0.462108
231.902 39.8696 -0.102307
626.391 50.8525 -0.103802
152.565 9.43542 0.213127
368.066 23.4516 0.310663
462.531 47.8115 0.111659
415.887 21.0062 0.20664
683.966 81.2629 -0.30353
427.417 4.49557 0.616285
50.393 25.8272 -0.288369
467.071 35.9373 0.331222
435.501 44.3727 -0.418669
696.412 61.7796 -0.225518
661.237 43.3353 0.232924
526.965 26.9458 -0.134042
688.842 69.8362 -0.418272
295.778 2.23131 -0.470672
381.537 29.6879 -0.461353
28.919 39.281 0.322875
666.794 42.2644 0.153003
580.239 25.199 -0.631867
458.681 0.743632 0.482631
127.077 4.7136 -0.338053
427.035 44.8779 0.0950412
11.9497 0.90833 0.355445
708.53 8.85704 0.163908
372.008 40.0711 0.3541
[...]
POINT_DATA 13483
TENSORS Strain_matrix float
-1.30373 -0.18508 1.3624 
0.58347 0.593314 -0.25744 
7.21021e-18 -3.21686e-19 1 

-0.224409 -0.053748 -1.72369 
0.186985 0.229253 6.74469 
2.45665e-18 -2.27752e-18 1 

-0.119465 -0.0990842 -0.133476 
0.0392147 -0.0311145 0.275449 
-1.5575e-17 5.38063e-18 1 

-0.890538 0.605279 -0.575736 
-0.311604 0.307064 -0.726443 
2.36478e-18 -1.01847e-17 1 

-0.539652 -0.202564 0.471483 
0.0846945 0.117681 -0.425189 
7.85084e-18 -1.59615e-17 1 

-0.0844079 -0.00902771 -2.01702 
-0.0809423 0.0164248 1.00132 
2.57829e-19 -3.70168e-18 1 

-0.147155 -0.0204687 -0.308571 
0.0152249 -0.0416004 -0.759282 
-6.73848e-20 1.98448e-17 1 

-0.261667 0.255047 0.281605 
-0.0910773 -0.0356642 0.377872 
1.16259e-17 2.7006e-18 1 

-0.769287 -0.180208 -0.24334 
0.0789661 0.541542 0.373833 
-9.39976e-18 -1.047e-18 1 

-0.56388 -0.17918 14.3752 
-0.343967 0.137569 -2.19066 
4.67166e-18 -9.9662e-18 1 

-0.0943619 0.0298928 -0.137023 
0.000189681 -0.0550935 -0.06244 
-3.4999e-18 -2.23557e-18 1 

-0.116626 -0.0455418 0.146635 
-0.0279295 -0.0599121 0.26058 
-4.21109e-18 2.34849e-18 1 

-0.362041 -0.303801 2.23236 
0.62536 0.323989 -0.635067 
5.09299e-18 -1.10468e-17 1 

-0.30832 -0.115276 -0.44956 
0.135889 0.151528 -0.409771 
-2.97552e-18 7.37593e-18 1 

-0.116551 -0.00172591 0.0746775 
-0.000532789 -0.035135 0.902524 
-2.65019e-18 1.62186e-18 1 

-0.163493 -0.0980609 -1.11948 
0.0250629 0.0865433 1.32902 
2.45894e-18 -9.85708e-18 1 

-0.0692062 -0.0480765 -0.0334036 
0.0240785 -0.114398 -0.0717028 
3.59266e-18 1.31731e-18 1 

-0.187882 -0.0351422 0.00332879 
0.0579703 -0.0794842 0.0469544 
9.08315e-20 6.58529e-19 1 

-0.203739 -0.0101036 0.805869 
0.0896713 0.153695 -0.280611 
-9.69149e-18 -9.59895e-19 1 

-0.15308 -0.0431684 0.340635 
-0.056547 -0.128656 0.345103 
-1.5138e-17 2.6081e-18 1 

-0.126493 -0.360799 -1.11613 
0.000799015 0.0946883 0.856362 
2.24028e-18 3.45489e-18 1 

0.0170412 0.154363 -0.412743 
-0.900465 0.116554 0.81044 
-3.32133e-19 -1.13237e-17 1 

-0.856398 0.133225 1.11662 
-0.454806 0.289327 5.96788 
4.46374e-18 1.32998e-18 1 

-0.440353 0.362532 6.45844 
0.274811 -0.0263824 1.25529 
-3.88999e-18 -1.42069e-17 1 

-0.116961 -0.409039 0.971524 
-0.00817963 0.0167148 -0.0517846 
-5.42322e-18 -2.43159e-18 1 

-0.112684 -0.121477 -0.117491 
0.17362 0.044525 0.134159 
1.19007e-18 -1.81114e-17 1 

-0.620271 0.0457563 -1.53186 
0.203808 0.116186 1.86736 
-8.69711e-18 -9.55334e-18 1 

-0.436022 0.0730276 0.162526 
0.631579 0.0538932 -0.439708 
-4.64846e-18 -9.10633e-18 1 

-0.13042 -0.0126418 1.38879 
0.0286578 -0.0539351 -0.371112 
1.31221e-18 -3.41613e-18 1 

-1.26302 0.337354 -1.21329 
0.258313 0.197753 -1.3836 
5.12458e-18 -1.25597e-17 1 

-0.338043 0.137924 0.00874947 
-0.208832 -0.0231303 -0.29067 
-5.4676e-18 -1.01218e-17 1 

-0.0801141 0.161132 0.010537 
-0.0934759 -0.0780812 -0.0663882 
9.36679e-18 6.98658e-18 1 

-0.278968 -0.514391 -0.703882 
0.702264 0.362746 1.24737 
-6.70725e-19 -4.56093e-18 1 

-0.311767 0.0440826 -0.060126 
0.0013863 0.111112 -1.097 
1.99862e-18 6.25656e-18 1 

-0.0568679 0.00280684 0.0137396 
-0.0399545 -0.0606074 0.0450668 
-6.96256e-18 1.03886e-17 1 

-0.64962 -0.105804 0.304218 
-0.490087 0.354881 -0.381354 
2.01833e-18 -4.03592e-18 1 

-0.41807 -0.171163 0.916172 
0.202461 0.343609 -5.64567 
2.41336e-18 -9.81134e-18 1 

0.0506278 -0.126338 0.21356 
-0.0177562 -0.108742 -0.00863489 
-1.881e-17 1.99384e-18 1 

-0.346403 0.0940783 -0.947667 
0.287741 0.138015 -0.481031 
1.12081e-18 2.77535e-18 1 

-0.336038 0.0316202 1.71103 
0.029914 0.181901 9.504 
1.16e-18 6.92074e-18 1 

-0.248308 -0.111135 -0.0221932 
-0.0371554 0.0387772 -0.478934 
-4.59221e-18 3.79691e-18 1 

-0.151933 0.00252477 0.372697 
-0.169389 -0.000885211 0.00931809 
2.14315e-18 5.66954e-18 1 

-0.700385 -0.324389 -0.928069 
-0.551239 0.0247055 0.451461 
-8.49173e-18 1.51409e-17 1 

-0.149628 0.0497247 -0.273074 
-0.044917 -0.0427591 -0.975056 
1.4058e-18 -1.7975e-17 1 

-0.0970028 0.0464321 -0.0368787 
-0.0289823 -0.0655311 0.141832 
4.02121e-18 5.69039e-20 1 

-0.119873 0.0128567 0.0757875 
-0.00832461 -0.0452838 0.029719 
1.23231e-18 -2.22257e-18 1 

-1.93109 -0.372257 -0.653545 
0.180889 0.61725 1.5989 
-4.04603e-18 -1.33537e-17 1 

-0.0681085 -0.0295605 0.0353985 
0.0123515 -0.134125 -0.00441282 
-1.0166e-17 1.77657e-18 1 

-0.751315 -0.0922008 30.6578 
0.912756 1.27269 1.82828 
-1.01323e-17 -3.98538e-18 1 

-0.482208 0.689809 2.17874 
-0.142205 0.236322 -0.851864 
1.09175e-18 9.09788e-19 1 

-0.0572607 -0.25636 0.228854 
0.10713 0.0201033 -0.887728 
-6.34881e-18 -3.34949e-19 1 

-2.33565 -0.693348 4.76007 
0.148611 0.390796 -0.926366 
-3.19896e-18 1.46073e-17 1 

-0.102644 -0.0291464 -0.115458 
-0.00228635 -0.0102124 -0.0489944 
-1.089e-17 -1.16851e-17 1 

-0.549058 0.0853037 -0.151888 
-0.162388 0.108995 -0.0533037 
-3.07284e-17 -1.50212e-17 1 

-0.139191 -0.0125665 0.428682 
-0.0524688 -0.0970308 0.405641 
9.29368e-18 4.80707e-19 1 

-0.0100457 -0.130871 0.0396452 
0.17962 -0.135518 -2.72975 
-4.95784e-18 -4.56053e-18 1 

-0.20475 0.294984 -0.339469 
0.199444 0.0458971 0.277132 
2.53339e-18 2.69172e-18 1 

-0.128989 0.171599 -0.297883 
0.00405583 -0.0356749 -0.0867822 
4.72981e-18 -1.02064e-17 1 

-0.0722485 -0.00897919 -0.180831 
-0.0414156 -0.122122 -0.309747 
5.80219e-18 -1.78478e-17 1 

-0.0958222 0.0875973 -0.0667972 
-0.132552 -0.0217061 0.164223 
5.04373e-18 -2.19425e-18 1 

-0.770484 1.72249 4.90457 
-0.0153323 0.879064 2.40375 
-1.53883e-18 2.19058e-17 1 

-0.628913 -0.123146 0.294262 
-0.0275751 0.368973 -0.77042 
-1.58641e-17 -4.97092e-18 1 

-0.126113 -0.0663842 -0.262407 
-0.0120133 -0.0551133 -0.11994 
4.79734e-18 1.41916e-17 1 

-0.83263 -0.088515 11.0081 
0.0190987 0.300039 -12.5868 
1.61363e-18 -7.07797e-18 1 

-0.226127 0.223982 -0.529377 
-0.141989 0.131983 -0.714354 
-6.29328e-18 7.06614e-18 1 

-0.105309 -0.0266963 -0.126487 
-0.00893256 0.0155401 0.697688 
2.21669e-18 1.53608e-17 1 

-0.922436 0.14184 0.36963 
-0.470529 0.265809 0.0878982 
4.14663e-18 -7.21152e-19 1 

0.0196722 -0.30273 0.500944 
0.421026 0.169646 0.0569928 
6.68008e-18 -3.7351e-18 1 

-0.17281 0.00052635 1.53626 
-0.061813 -0.0897103 -0.328659 
-7.31925e-18 -6.54641e-18 1 

-0.42979 -0.0749903 -1.53308 
-0.468925 -0.0651426 -0.175464 
8.02964e-18 9.85456e-18 1 

-1.27137 0.429034 -3.63916 
-0.165055 0.594314 1.65814 
1.11876e-17 -2.85893e-18 1 

-0.0984079 0.0315938 -0.142077 
-0.0185238 -0.035114 -0.0290075 
-1.59783e-17 5.17034e-18 1 

-0.370673 0.214792 0.113075 
0.0397488 0.146008 0.836512 
8.20909e-18 6.01713e-19 1 

-0.219425 0.0616515 -0.397763 
0.0564171 0.153768 -0.637504 
-7.72787e-18 9.54275e-18 1 

-0.121776 0.0234791 -1.0512 
0.0465092 -0.0135594 -0.100198 
-3.22575e-18 -3.64436e-18 1 

-0.0921871 -0.0250185 0.136458 
-0.00672413 -0.086458 0.170121 
5.54718e-18 1.68097e-18 1 

-0.998693 -1.35146 -6.78313 
0.226883 0.477765 0.302092 
5.54782e-18 -7.96e-18 1 

-0.0653966 -0.0922832 -0.0423691 
0.0840428 -0.0431349 0.181247 
-6.10027e-18 1.66282e-17 1 

-0.842785 -0.68422 1.24611 
0.465036 0.67567 2.36866 
-1.58416e-18 -1.89264e-19 1 

-0.960392 0.10964 1.67967 
-0.0501069 0.310571 -0.918607 
-3.34474e-18 -6.99154e-18 1 

-0.6423 0.168643 -0.120272 
-0.067217 0.199711 0.221419 
1.21494e-17 1.09913e-17 1 

-0.672644 -0.181838 -0.544639 
0.00571388 0.365679 -0.692864 
-1.67659e-18 1.81072e-18 1 

-0.0350393 0.0354531 -0.641688 
-0.0389175 -0.0611328 0.162279 
3.43112e-18 3.40613e-18 1 

-0.476147 1.11683 -5.42905 
-0.671793 0.595116 -0.0186869 
-1.00425e-18 8.23855e-18 1 

-0.117931 -0.451996 -0.970398 
0.392473 0.147949 0.956015 
-4.30381e-18 1.18144e-18 1 

-1.2017 -0.682375 -0.653126 
-0.158475 0.49047 0.845011 
-3.90595e-18 1.05786e-18 1 

-1.27404 0.456139 -1.58844 
0.070038 0.53589 -2.57608 
3.42858e-18 1.7435e-17 1 

-0.230308 0.219796 -0.239497 
-0.147092 0.0630962 -0.406715 
5.44843e-18 1.80113e-19 1 

-0.575559 -0.450625 -0.172787 
0.422087 0.322525 -0.408244 
-2.36546e-18 8.02822e-18 1 

-0.132524 0.0216697 -1.30221 
0.00423863 -0.0538841 -0.729561 
-1.44124e-19 7.36996e-20 1 

-0.110883 -0.203169 -0.0233995 
0.100508 -0.0534285 0.22412 
1.48091e-18 8.601e-18 1 

-0.84635 0.0942079 -1.02872 
-0.0555698 0.246975 -0.558911 
-1.16373e-17 4.364e-18 1 

-0.80628 -0.741656 1.84244 
0.120885 0.413966 -3.2648 
-7.18779e-18 5.1583e-18 1 

-0.226489 -0.0927269 0.619733 
0.0652146 0.0447179 -0.485966 
-3.68452e-18 4.48756e-19 1 

-0.136627 0.267831 0.373699 
0.149766 0.0111043 -0.289713 
-1.06534e-18 2.14746e-18 1 

-0.278218 0.405164 -0.144728 
-0.00518475 0.189552 -0.14379 
-5.4035e-18 -1.63679e-17 1 

-0.191131 0.0456253 -0.220447 
-0.0113223 -0.00236138 -0.379792 
-1.05098e-17 4.32071e-18 1 

-1.23982 -2.68628 -2.41388 
0.219507 0.799761 -0.884524 
-2.86147e-18 -2.8487e-18 1 

-1.12127 -0.671495 1.13156 
-0.183939 0.545528 0.231541 
8.37568e-18 2.672e-18 1 

-0.134443 0.0925565 0.919604 
-0.167069 -0.000756151 1.2474 
1.00372e-17 -1.76163e-18 1 

-0.078356 -0.0151044 0.59034 
0.0082574 0.0157489 -0.269682 
-3.26861e-18 -2.78606e-18 1 

-0.556754 0.372572 -1.84466 
0.825372 0.196932 0.324915 
2.23093e-17 2.49064e-18 1 

-0.159537 0.0177274 1.92008 
-0.0396057 -0.0432574 1.58916 
-9.01364e-19 4.51381e-18 1 

-0.426414 0.128103 -0.793166 
0.188617 0.434243 -0.256762 
-1.34785e-17 -6.92305e-18 1 

-0.180974 -0.00579715 -0.0426676 
-0.23448 -0.0835424 -0.2468 
2.78704e-18 6.24456e-18 1 

-0.603251 0.00198467 -1.90539 
0.192091 -0.0340108 0.894476 
-2.17199e-18 -2.97872e-18 1 

-1.23118 0.429351 -0.185451 
-0.387417 0.241394 -0.167561 
3.74749e-18 -3.51327e-18 1 

-0.109742 0.0322814 0.0251817 
-0.0493653 0.034389 -0.579576 
-3.27644e-18 -5.31603e-18 1 

-0.164963 0.085866 0.0981094 
0.0766563 -0.108756 -0.0648085 
7.15945e-18 -9.52054e-19 1 

-0.0798499 0.96202 -0.753156 
-0.626089 0.334042 -0.690343 
-8.28935e-18 8.0768e-18 1 

-0.190041 0.144995 -1.1262 
-0.182603 0.101313 6.24902 
-1.26606e-18 4.29002e-19 1 

-0.135916 -0.040232 0.117424 
0.0210961 -0.0186061 0.247174 
4.2972e-18 2.50217e-18 1 

-0.08817 0.0395796 -0.0195827 
-0.0305598 -0.0947558 -0.000871969 
-8.70495e-19 7.54429e-18 1 

-0.801012 0.108769 -2.03456 
-0.0145329 0.42604 3.18741 
-1.09498e-17 -1.1712e-17 1 

-0.349458 0.800411 -0.964099 
0.178772 0.0729673 -1.02812 
-3.82224e-19 -1.47581e-18 1 

-0.116478 0.0345523 0.548369 
-0.111104 0.0303943 -0.0726858 
1.56692e-19 -4.93581e-18 1 

-0.155229 -0.0691714 0.395779 
-0.0316506 0.0265791 -0.0501882 
-2.54395e-18 -8.91176e-18 1 

-0.181344 -0.127062 -0.0242728 
0.0356914 0.0713745 -0.21588 
1.09173e-17 6.141e-18 1 

0.0673698 -0.220476 -0.732043 
0.101483 -0.129332 1.12404 
-1.41703e-18 3.98869e-18 1 

-0.0746335 0.0457415 -0.0348653 
-0.0846598 -0.00957931 0.0875806 
1.00474e-18 -7.57743e-18 1 

-0.374427 0.13251 -0.0594532 
-0.0958275 -0.208946 -0.458593 
-6.19511e-18 -2.104e-18 1 

-0.713515 0.22705 -0.622313 
-0.0949986 0.148783 -0.176613 
-2.20483e-17 1.52988e-17 1 

-0.108418 0.0127114 0.120739 
-0.00512122 0.0329087 -0.0349454 
-7.9914e-18 2.96536e-18 1 

-0.353953 -0.133655 1.06557 
0.322509 0.287049 -0.500022 
1.06359e-17 -1.94708e-18 1 

-0.136604 0.0310683 -2.31981 
-0.00757183 0.050048 13.6537 
-3.2585e-18 -8.16876e-19 1 

-0.126456 0.0134072 -0.0622595 
-0.0544345 -0.107081 0.539638 
2.90927e-18 5.74395e-18 1 

-0.147941 -0.0641546 0.176542 
0.000547228 0.0365495 0.35033 
9.95038e-18 5.13081e-18 1 

-0.280741 0.117169 -0.244024 
0.0661011 0.159259 -0.200496 
8.00586e-19 4.49218e-18 1 

-0.0195331 -0.189706 -1.24365 
0.358907 -0.0275678 0.504255 
4.2665e-18 5.7505e-18 1 

-0.190634 0.0433217 -0.845268 
0.14141 0.0409602 0.933711 
2.72447e-18 -1.66582e-17 1 

-2.36807 0.562901 -0.715817 
0.115552 0.750287 -0.378025 
-4.74728e-18 1.22623e-18 1 

0.0224516 0.175886 -0.353844 
-0.263673 -0.0866904 -0.33238 
9.76888e-18 -2.26471e-18 1 

-0.234792 0.371512 0.842126 
-0.179268 0.127729 0.059987 
-8.21769e-19 3.93024e-18 1 

-0.375116 -0.323957 -0.612037 
0.333627 0.209074 -1.29876 
8.44918e-18 -5.94614e-18 1 

-0.238085 -0.262996 -3.15697 
-0.0275783 0.258487 0.731582 
1.13044e-17 3.49899e-18 1 

-0.128292 0.0111316 0.274129 
-0.0912183 0.0565923 0.237062 
2.01927e-18 6.1147e-18 1 

-1.40979 -0.130451 -1.47456 
-0.100747 0.329901 0.737683 
3.36582e-18 9.71207e-18 1 

-0.161874 -0.0774801 0.878317 
0.203213 0.118564 0.410723 
1.15093e-17 -3.71743e-18 1 

-0.168416 0.00376214 0.0283653 
-0.00107055 -0.108633 0.396164 
-5.61543e-18 9.80147e-19 1 

-0.0529959 -0.174033 -0.024331 
0.112829 0.0337621 -0.72096 
2.70482e-18 6.40014e-18 1 

-0.447902 0.0600116 -1.3344 
-0.0977036 0.164924 -0.851959 
1.20658e-18 9.58876e-18 1 

-0.114824 -0.127 -0.00919187 
-0.265527 -0.0169793 0.454498 
-6.36349e-18 5.33445e-18 1 

-0.230957 -0.381477 0.121822 
0.501588 0.412373 -0.552399 
1.62457e-18 4.65418e-18 1 

-0.0992899 0.126989 -0.974321 
-0.104514 0.0399067 -1.03003 
-9.84382e-18 -8.3225e-18 1 

-0.205579 -0.299299 0.907152 
0.144009 0.175281 -0.723722 
3.08133e-18 1.94763e-18 1 

-0.13639 -0.543057 0.748287 
0.221347 0.23435 -0.361314 
-1.47208e-18 -2.87056e-17 1 

-0.706948 0.222637 0.747969 
-0.307128 0.225836 -0.599412 
7.00601e-18 -1.30431e-17 1 

-0.117011 0.077945 -0.360756 
-0.110203 -0.0614378 0.00981777 
-2.14742e-18 2.01857e-18 1 

-0.0406354 -0.0132156 -0.220594 
0.0293495 -0.0758467 0.434485 
1.40589e-18 8.21529e-18 1 

-0.0911728 -0.0164922 0.17855 
-0.0306149 -0.0358229 0.207547 
4.12762e-18 9.03182e-18 1 

-0.0545326 -0.0409637 3.73159 
-0.0340414 -0.00440107 0.974779 
-6.48558e-18 -2.24974e-18 1 

-0.244635 0.11627 0.606507 
0.14078 0.0412335 -0.190483 
6.68477e-18 5.21247e-19 1 

-0.145158 -0.0665259 2.28923 
-0.00395153 0.00828685 0.532893 
-1.89487e-18 6.10704e-18 1 

-0.212856 0.0405666 1.45513 
0.0790447 0.0631553 0.11385 
-3.68621e-18 -2.48011e-19 1 

-0.0992103 0.0194148 -0.543715 
-0.0444739 -0.0369735 0.397518 
-4.16368e-18 1.9399e-18 1 

-0.61989 -0.0338824 -8.88295 
-0.484625 0.325242 5.36137 
-4.60661e-18 8.84696e-19 1 

-0.352663 -0.0531014 1.44753 
-0.39367 0.217168 -0.52058 
-1.50808e-17 4.54491e-18 1 

-0.147031 -0.102557 -0.461232 
0.0277341 0.0953125 -2.55658 
-8.87706e-18 8.80785e-18 1 

-0.844239 -0.492367 -9.55115 
0.796533 0.901801 -2.77948 
4.69965e-18 7.65978e-18 1 

-2.0738 1.94661 -2.79764 
-0.72134 0.771034 2.35661 
2.87556e-18 -7.38111e-18 1 

-0.219223 -3.58436 189.488 
0.0273376 0.828501 -17.8357 
2.34398e-19 -7.28446e-18 1 

-0.67846 -0.635865 1.11193 
0.446145 0.233589 -0.588341 
3.49551e-17 -1.53649e-17 1 

-0.381054 -0.144426 -0.113294 
0.439132 0.299058 1.7028 
-8.93383e-18 -1.62213e-17 1 

-0.778579 -0.281192 -38.3595 
0.00410778 0.37067 -2.01928 
-3.26312e-18 -1.91153e-18 1 

-0.553452 -0.0572723 -5.16638 
-0.24231 0.226131 -1.43806 
9.30954e-18 -8.63994e-19 1 

-1.20351 -0.0941539 0.399356 
0.089013 0.294796 -0.70277 
8.23777e-18 6.14394e-18 1 

-0.0295237 -0.0068405 -0.0203888 
-0.0417033 -0.0512015 0.0429192 
-6.7193e-18 -5.54741e-20 1 

-0.224631 -0.0906662 0.62304 
0.178803 0.0340807 -0.277627 
1.21182e-17 9.3644e-18 1 

-0.10515 -0.0592534 -0.228752 
0.0182734 -0.071262 0.333567 
-2.29213e-18 1.07631e-18 1 

-0.243126 -0.130536 0.0825806 
0.0362849 -0.00897566 -0.764154 
3.57172e-18 -1.18963e-17 1 

-0.120097 0.00934352 -0.0340968 
0.00171876 -0.0447729 0.0398525 
-5.01695e-18 1.62504e-18 1 

0.109682 0.235315 1.09074 
0.0634663 -0.109032 -0.977048 
1.29885e-17 2.17797e-17 1 

-0.20369 -0.0585098 0.136144 
-0.0576362 0.0323823 -0.401785 
1.07015e-17 -1.02899e-19 1 

-1.11054 -0.222105 -1.31265 
-0.176877 0.425763 -1.85392 
-9.00623e-18 -8.09576e-18 1 

1.13139 -0.996381 0.133509 
1.05542 1.17967 0.0441542 
8.28831e-18 4.69671e-18 1 

-0.112276 -0.0695483 -1.001 
-0.0138897 -0.0262554 1.18594 
1.81686e-18 -6.61434e-18 1 

-3.89249 -0.697501 6.41513 
-1.08305 0.276509 -0.103392 
-1.03494e-17 -7.75235e-18 1 

-0.155789 -0.0190728 0.0544337 
-0.0123934 -0.0331125 -0.125326 
7.24172e-18 -2.16742e-18 1 

0.0566296 0.254469 -1.74157 
-0.0471746 -0.126248 0.843262 
-2.01827e-17 3.4768e-18 1 

-0.455095 -0.272945 0.808616 
0.418661 -0.030045 -0.399893 
-5.1751e-18 9.00253e-18 1 

-0.208432 -0.0220227 -0.0428097 
-0.100896 0.0919552 -0.0490772 
1.29715e-17 7.4123e-19 1 

-0.400741 0.15051 -0.411729 
-0.232872 -0.0130738 0.165686 
-2.0895e-18 -4.75197e-18 1 

-1.16214 -0.128574 -2.06876 
-0.0892907 0.526049 -1.95926 
-1.37084e-17 -4.63376e-17 1 

-0.144694 0.0223745 -0.351747 
0.0212629 -0.0432273 0.699622 
8.64955e-18 6.61129e-18 1 

-0.207587 -0.0761105 -0.185155 
0.0320158 0.0419249 -0.481671 
2.69805e-19 1.80769e-17 1 

-0.152379 -0.0336836 0.00723067 
-0.00633899 -0.0652268 0.262604 
1.37771e-17 -1.10423e-17 1 

-0.105804 0.0118603 1.49586 
-0.0194213 -0.0663338 0.918312 
4.81433e-18 3.08117e-18 1 

1.49239 -1.07879 0.355209 
0.83022 1.36927 0.370357 
-8.60228e-18 -3.34601e-18 1 

-0.220274 -0.171386 0.609436 
0.134467 0.053651 -1.32809 
3.33368e-18 -1.11757e-17 1 

-0.171575 -0.50899 -0.131704 
0.445582 0.0444014 0.380031 
-9.84736e-18 1.83003e-17 1 

-2.15761 -0.0595712 6.19312 
1.08808 0.926997 0.821877 
5.00051e-18 -3.0453e-18 1 

-0.171446 0.0149171 0.0459704 
0.0954334 -0.0487664 -0.61198 
2.5143e-18 -2.05335e-18 1 

-1.93212 -0.20945 -0.0461465 
0.00529989 0.782602 -0.554547 
-5.46102e-18 -5.59104e-18 1 

-0.714079 -0.620598 4.75554 
0.292912 0.420927 -1.71054 
3.32086e-18 -1.0446e-17 1 

-1.09857 -0.328401 -0.776767 
-0.211511 0.404302 0.868339 
6.22393e-18 1.09717e-18 1 

-0.127373 0.391477 0.317428 
-0.324698 0.0277152 -0.144751 
1.08322e-17 6.35353e-18 1 

-0.214993 0.120043 1.14158 
0.0245847 -0.0666343 -0.32001 
-6.08376e-18 1.14983e-17 1 

-0.392083 0.187376 -0.0886552 
-0.114691 0.219129 -0.139568 
-5.16148e-18 6.19378e-19 1 

-0.429548 -0.0132757 0.0748542 
-0.281109 0.084956 0.0713913 
4.05013e-18 -1.04827e-17 1 

-0.159861 -0.476272 -0.190524 
0.367729 0.214037 0.450548 
3.19574e-18 7.21574e-18 1 

-0.536113 1.16904 5.31964 
-0.0304572 0.339563 1.59812 
8.25381e-18 -3.6086e-18 1 

-0.0908952 0.0268734 0.174266 
-0.019108 -0.0220347 -0.0217349 
1.43071e-17 1.03949e-17 1 

-0.525322 -0.00543811 -0.233066 
0.0131743 0.166807 0.708012 
-3.86619e-18 -7.18703e-18 1 

-0.412994 0.252807 -1.38306 
-0.0934799 0.51522 -0.853658 
-4.75082e-18 -1.5322e-17 1 

-0.312912 -0.0527006 -0.894854 
0.020276 0.137277 0.262685 
-7.36536e-18 2.19862e-19 1 

-0.213638 -0.149918 -0.186691 
0.169126 0.103733 -0.10571 
2.81218e-18 8.02643e-19 1 

-0.063482 -0.0250693 -0.465962 
0.0313721 -0.0595637 0.101451 
9.6456e-18 -2.7123e-19 1 

-0.0838614 -0.0266866 -0.176827 
0.0764821 -0.0147911 0.221524 
1.16564e-18 1.56633e-17 1 

-0.628098 -0.738045 2.91116 
0.0230486 0.208569 0.4106 
-6.38136e-18 1.62582e-20 1 

0.00471355 -0.630462 -0.217532 
0.471031 0.270536 -0.219388 
-8.50194e-18 9.11721e-19 1 

-0.121649 0.234547 -0.111229 
-0.123225 0.0925824 -0.0894727 
3.12344e-18 1.90432e-18 1 

-0.592372 -0.254494 -0.904816 
0.186798 0.203366 -2.13924 
3.03632e-18 -4.72965e-18 1 

-0.0801231 0.117636 0.0397081 
-0.0446012 -0.131859 0.340689 
-4.22611e-18 -4.91423e-17 1 

-0.164505 0.104231 0.700902 
-0.0419757 0.0967992 1.14042 
1.91092e-18 -8.57983e-18 1 

-1.04688 0.0347831 0.626084 
-0.116343 0.395992 -4.00068 
-8.13742e-18 -9.50314e-18 1 

-0.366533 0.0960814 1.26739 
-0.118349 0.246026 -0.409542 
-5.31985e-18 -1.65507e-18 1 

-0.141836 0.0391846 0.124794 
-0.00513647 -0.0997426 -0.0104899 
2.90697e-19 9.48606e-17 1 

-0.0621611 -0.501439 0.560666 
0.493131 0.240236 3.48469 
2.34633e-18 -6.25688e-18 1 

-0.270153 -0.288764 -2.57415 
0.227331 0.160902 6.25051 
3.65478e-18 3.77482e-18 1 

-0.576832 0.758607 -2.81774 
0.269227 0.30694 0.910656 
-4.64444e-18 -7.12126e-19 1 

-0.268987 1.98594 54.9743 
-0.00416641 0.0626533 2.75487 
5.86854e-19 -3.74704e-17 1 

-0.532717 -0.442809 0.180479 
0.0332727 0.203035 0.844122 
2.2247e-18 -7.45575e-18 1 

-0.0983738 0.0917065 0.107439 
0.0716943 -0.0568003 0.256352 
5.09519e-18 -1.2894e-17 1 

-1.54894 0.321842 -2.12388 
0.146588 0.660874 8.16554 
1.06977e-18 2.94229e-18 1 

-0.365369 0.19463 0.0880906 