# vtk DataFile Version 3.0
Output file generated by Yade's KinematicLocalisationAnalyser
ASCII
DATASET UNSTRUCTURED_GRID

POINTS 13483 float
501.044 45.3094 -0.447082
608.316 86.6156 0.442432
111.421 6.16181 -0.439999
630.174 7.32471 -0.382221
437.982 8.47668 0.480508
294.492 42.9363 -0.455638
146.195 7.28765 0.467539
481.396 14.7764 0.199724
433.378 26.5608 -0.14777
577.323 18.6164 -0.608442
197.243 8.82288 -0.0890541
242.443 6.61318 -0.254995
527.378 60.809 -0.136791
521.996 25.3746 -0.101947
128.362 18.2986 -0.526952
206.402 37.1683 -0.416737
204.26 13.2433 0.285577
270.941 11.4939 0.472231
317.221 39.8477 0.456667
458.584 8.58767 0.369114
379.824 49.0618 -0.115019
488.767 52.7242 0.327546
631.365 58.0278 -0.509098
562.427 59.2892 -0.474983
406.195 19.8461 0.318272
224.486 47.7667 0.148076
426.667 36.6592 -0.468785
494.295 21.4317 0.262094
40.7082 16.8824 -0.458622
573.16 50.783 -0.333186
424.036 7.00455 0.557382
16.1529 23.3987 0.315581
622.773 87.9998 0.24343
434.77 2.16809 0.676315
72.1438 46.9344 -0.104448
443.675 40.949 0.370836
453.685 22.8069 -0.4585
318.787 23.8624 0.212882
453.212 37.2862 -0.367044
324.287 46.0955 -0.395951
226.989 14.5089 0.311229
386.258 48.9141 0.0793794
547.523 12.5789 -0.154943
180.041 6.33282 -0.42231
50.6214 7.25032 -0.101609
62.3474 8.93099 -0.237365
552.943 10.3236 0.686721
21.5302 12.5968 -0.338123
488.289 69.6957 0.383146
542.936 51.3425 0.334177
161.502 34.1259 -0.28579
604.231 69.5327 0.114258
31.7502 30.3402 0.119141
466.442 3.78957 0.66264
132.485 7.64889 -0.53236
493.949 43.4711 0.386262
432.667 32.2176 0.132725
163.482 0.953914 0.281128
29.9612 2.30953 -0.380874
322.852 19.2458 -0.249834
498.733 82.3411 0.131779
410.004 49.4513 -0.186827
360.644 1.04891 0.252951
561.179 13.22 0.701066
23.5987 46.1901 -0.255849
240.817 33.4079 0.29287
575.796 11.1475 -0.34881
547.804 89.1029 -0.353352
377.128 9.91185 -0.63023
480.022 8.02488 -0.430473
591.881 41.8397 0.469085
122.194 7.80818 0.272198
430.554 37.9427 -0.121789
421.958 17.743 -0.0930768
277.379 18.1546 -0.415385
18.877 14.3349 0.280458
616.357 66.5967 -0.31277
313.046 43.1352 0.276082
540.566 46.1523 0.356938
556.548 22.388 0.236095
623.168 19.0685 -0.236297
412.247 53.1347 -0.166307
86.1108 42.8811 -0.166275
551.345 67.7729 -0.221124
526.313 70.8286 0.096559
636.482 64.4425 -0.117448
617.672 0.690746 0.710358
272.308 33.0441 0.430241
526.749 6.11409 -0.172985
22.8634 6.35653 0.668611
125.649 42.1068 -0.0745193
448.893 17.8396 0.220861
614.62 54.384 0.498614
183.221 31.0116 0.22702
40.9046 39.0729 0.27256
433.614 1.12674 0.142655
222.52 8.49578 -0.470392
588.481 78.5387 -0.269152
607.497 52.2298 0.232044
333.159 28.4541 -0.263204
152.673 28.1131 0.434302
461.384 64.1967 0.399226
347.076 20.8993 -0.475084
374.315 39.873 0.108954
344.701 8.65641 0.433475
468.605 22.7085 -0.130196
635.792 11.3467 -0.363745
74.5772 42.0338 0.390468
308.939 6.14816 -0.194215
476.647 15.3021 -0.460803
335.798 58.633 -0.107127
22.3868 26.7085 0.460775
28.258 6.01529 0.315745
472.985 56.2415 0.434932
434.828 31.8249 0.170772
21.0694 41.2388 0.473852
87.2894 33.5493 0.217298
302.16 19.8022 0.332949
503.015 24.5356 -0.156837
419.127 57.8926 -0.336361
589.598 7.13292 -0.464585
581.195 6.34231 0.267292
359.12 47.5247 -0.0939955
521.306 46.1875 -0.12115
225.388 17.9224 0.549478
305.593 6.0629 0.610943
96.0639 33.2162 0.306641
108.984 25.1833 0.259627
457.736 59.9959 0.0741901
285.899 21.2879 0.478662
572.662 66.7712 -0.112117
554.961 86.2027 -0.103574
423.846 30.6554 -0.39116
617.935 36.1268 0.319187
384.527 30.2125 0.250012
262.17 26.1672 -0.318158
546.486 66.9919 0.288384
262.276 33.571 0.391614
489.765 13.8106 0.292789
315.682 40.9312 0.184445
445.906 13.9011 0.477277
338.339 39.4309 -0.0842894
386.777 21.9605 0.103002
301.3 47.9337 -0.452026
179.496 31.1915 0.11366
612.655 85.3128 -0.145913
634.128 13.5867 -0.32434
5.75495 12.9735 -0.428525
389.224 26.8277 -0.409405
35.6261 24.8495 -0.0992714
348.838 39.2902 -0.473701
363.142 29.8943 -0.273813
69.0739 12.0064 -0.532337
47.0227 37.2326 -0.437113
214.506 13.8153 0.472426
498.098 74.3136 -0.419681
490.621 22.7053 -0.527549
70.0219 21.3093 0.532238
563.164 63.5899 0.43693
609.769 19.4558 -0.579232
542.082 82.006 -0.491884
560.658 2.19738 -0.54493
469.522 42.721 -0.422554
489.289 54.3072 0.577542
445.653 23.3835 -0.503705
627.559 5.82181 0.440364
212.562 25.0777 -0.124658
122.45 37.8996 -0.197162
235.4 6.92347 -0.412423
87.9968 4.72407 0.290645
59.0347 10.9646 0.333977
263.223 39.7665 -0.29813
15.5745 24.9974 -0.386549
477.03 36.1869 0.438104
492.917 70.8456 0.206691
414.144 26.8003 -0.376179
621.584 68.6765 0.361653
370.66 9.27022 -0.146706
392.37 43.2102 0.403337
469.145 9.73346 -0.251725
19.7569 25.6458 -0.447071
490.719 5.96794 0.565529
472.865 16.1364 0.291245
195.627 11.3867 0.506672
385.054 18.8387 0.250776
293.593 6.30135 0.585074
356.335 21.8425 -0.385183
592.313 68.3389 -0.122719
182.911 27.0221 0.492391
612.605 9.95543 0.41893
595.686 67.4955 -0.331068
351.566 13.1528 -0.272592
572.384 3.59068 0.525487
503.599 40.7403 -0.389382
589.656 23.395 -0.357535
393.554 51.1203 0.301151
440.58 13.588 0.597065
412.404 64.0012 0.233997
401.49 11.4095 -0.205176
545.692 83.1398 0.254153
537.545 72.1968 -0.306763
182.626 42.3594 -0.38417
621.069 18.8084 -0.21849
490.536 53.4382 -0.294694
10.2619 19.2245 0.165992
371.164 31.0834 0.368138
178.124 23.548 -0.401688
87.5177 44.1385 0.262121
615.029 48.1622 0.439547
537.407 83.6185 0.245199
300.524 29.7757 0.341812
462.497 18.9512 0.343092
76.9832 47.8287 -0.170827
234.95 27.3541 -0.48691
477.749 41.358 0.381187
431.202 22.1309 0.436533
251.298 0.888362 -0.366574
465.426 70.4575 -0.399705
451.732 58.4369 -0.591297
424.102 51.9484 0.391644
443.794 2.21908 -0.661171
565.101 28.7638 0.538461
170.122 12.7416 -0.246295
432.444 58.2197 -0.423708
476.387 69.7768 0.151471
67.863 0.965143 0.313517
240.467 4.91966 0.171317
633.531 17.2084 -0.263501
622.733 21.0691 -0.558278
638.478 23.0406 -0.523485
286.581 8.62704 -0.272123
593.062 31.5832 -0.449706
380.604 53.8813 0.337747
404.326 0.833069 0.644422
531.955 71.5058 -0.419974
23.6951 32.1116 -0.298898
313.01 46.5393 -0.663182
241.395 3.0821 0.454607
624.787 85.4124 0.169757
573.39 81.2127 0.110982
273.17 13.0401 0.269711
540.904 58.9809 0.0844628
475.61 8.87337 0.40655
469.907 18.4567 -0.51861
90.0329 19.0295 -0.513432
287.164 0.959887 -0.232513
319.234 2.18674 -0.406133
13.0648 7.42055 0.479254
4.64313 34.4744 0.233071
153.89 18.9723 0.363995
63.3659 44.8637 -0.235076
61.0573 31.3706 0.294316
384.101 17.5179 -0.502128
341.783 42.3401 -0.525594
603.148 71.5471 -0.118239
18.7015 4.22385 -0.287234
65.5145 7.26572 0.193011
505.293 68.9171 -0.143406
278.881 0.936094 0.444209
336.174 22.1437 -0.0879839
225.078 4.64371 -0.372029
532.139 48.2394 0.188027
406.275 8.36414 0.553662
594.128 28.4846 0.356285
516.904 50.3549 0.337018
544.604 40.0528 0.104578
381.515 34.5465 0.523095
97.6561 47.6686 -0.318216
457.456 65.5002 -0.104226
591.543 12.912 -0.312335
227.892 33.9747 -0.253698
29.8541 19.2152 -0.168088
314.461 14.8632 0.613667
102.013 42.0313 -0.466213
255.793 45.7582 -0.240967
389.479 3.23103 -0.262636
617.392 58.3081 -0.418932
555.452 2.77238 -0.66037
309.151 4.27502 0.495824
283.42 33.4835 -0.144644
411.941 60.6622 -0.204032
76.3264 8.04066 0.487673
188.567 48.204 -0.380141
609.322 52.166 -0.360343
442.865 72.1135 -0.0680293
190.261 43.5073 0.306298
152.832 45.3393 -0.282052
636.545 52.9175 -0.407229
635.823 13.1663 -0.563595
518.953 4.90697 -0.538433
181.884 24.9427 -0.0873588
467.679 47.6652 -0.102553
471.505 47.0316 0.285521
375.109 6.56904 -0.147932
428.777 0.901427 0.426023
597.872 78.2386 0.465321
80.7166 33.3073 0.22266
537.952 37.9387 0.435092
260.753 17.2014 -0.311268
8.74738 2.41158 -0.31324
120.653 39.055 -0.183475
63.1567 25.1678 -0.472948
568.853 59.4483 0.306675
630.365 88.1151 -0.158998
177.075 28.5745 -0.182171
630.701 17.1233 0.554149
41.4913 40.9278 -0.257724
86.108 31.9458 0.154363
530.321 26.178 -0.44183
376.086 21.9456 -0.491258
452.137 23.8912 0.118584
227.837 32.0281 0.190949
520.605 12.7538 -0.64036
637.468 11.2115 0.586875
26.5345 33.099 -0.267235
258.238 7.99345 -0.27299
212.534 15.7184 0.290165
1.08973 38.723 0.157881
215.654 15.0013 0.387152
201.885 11.168 -0.116091
204.082 27.0786 0.282049
126.239 29.3608 -0.139537
472.557 29.339 -0.33076
158.873 14.7154 0.338664
620.491 85.351 0.215663
165.443 3.87541 -0.507936
43.8348 42.3085 -0.383809
583.433 72.0143 0.461215
267.813 34.7319 0.408245
546.608 49.5915 -0.490987
622.868 52.0747 0.521847
284.877 9.63476 0.175872
585.307 42.7712 0.354668
307.367 2.72531 0.673234
377.553 30.1186 0.384892
550.094 33.3287 -0.562101
99.6707 12.1678 0.54627
430.919 3.70577 -0.529925
598.084 28.3937 -0.228837
83.1305 7.72497 -0.376264
268.658 16.6016 0.206414
385.323 13.364 0.254867
628.691 2.96305 -0.482412
365.335 1.75807 -0.647629
168.003 41.0962 0.324863
594.523 11.0427 -0.506399
123.974 39.4251 -0.197998
250.233 33.8869 -0.374189
367.949 23.395 0.211597
492.019 15.711 -0.351754
355.266 10.5893 -0.506396
410.208 33.5803 -0.486063
608.684 88.1143 0.389454
44.0276 12.4577 0.133543
286.128 49.9528 -0.262491
353.667 34.1662 -0.363732
373.332 24.3392 -0.306609
442.562 55.2596 0.475971
600.096 71.4741 -0.195618
541.756 69.7482 -0.361821
214.45 35.6559 0.385137
13.0143 36.2308 -0.150811
539.553 72.1711 0.119195
445.832 62.5012 -0.46298
219.313 40.4524 -0.116893
551.644 55.2711 -0.120844
143.529 9.62999 0.23193
341.257 29.0256 0.2951
413.425 62.0434 0.121785
377.332 23.4067 0.204143
604.79 88.1839 -0.290767
388.619 6.28693 0.509991
46.6454 27.7628 -0.309349
417.26 44.786 0.336851
395.071 45.7991 0.358988
614.605 67.9725 -0.23008
584.43 46.3203 0.23801
468.844 33.3227 -0.144497
608.067 76.6755 -0.430077
278.565 2.17946 -0.506699
354.341 37.1939 -0.452701
24.5618 41.1951 0.360179
590.16 44.7184 -0.144688
510.267 32.5733 -0.479305
414.89 0.786935 0.63455
119.307 4.75051 -0.360139
390.572 52.459 0.100718
11.1361 0.897442 0.369145
626.331 9.20278 -0.107427
[...]
POINT_DATA 13483
TENSORS Strain_matrix float
-1.49566 0.0932601 2.56673 
0.636433 0.560067 -1.53108 
-3.38688e-19 -7.2128e-19 1 

-0.254176 0.0163947 -7.67005 
0.197175 0.259234 6.17029 
-3.34098e-18 -8.65123e-18 1 

-0.142643 -0.0817299 0.048363 
0.055138 0.0134051 0.939496 
1.47465e-17 2.77635e-18 1 

-0.932147 0.644844 -0.855373 
-0.348162 0.350654 -0.0510744 
-9.5537e-18 3.84133e-18 1 

-0.618007 -0.356117 0.335233 
0.109135 0.059317 -0.282227 
4.75706e-18 -7.593e-18 1 

-0.178788 0.0887199 -1.97169 
-0.276422 0.141088 2.44571 
2.54387e-18 -3.39933e-18 1 

-0.186214 -0.0675646 0.217119 
0.0671525 -0.0295088 -0.485114 
4.13622e-18 1.0275e-17 1 

-0.287976 0.181328 -0.231518 
-0.153423 -0.0412803 0.16342 
-3.10022e-18 -1.12587e-17 1 

-1.63704 -0.901421 1.99076 
-0.300893 0.820483 -0.441727 
2.12548e-18 4.25095e-18 1 

-0.703798 -0.070013 -1.6544 
-0.235875 0.177216 0.834941 
-1.73137e-17 1.75566e-17 1 

-0.115803 -0.00725851 -0.14892 
-0.0123299 -0.0688016 0.0850456 
0 -1.22118e-17 1 

-0.167355 0.0391893 -0.0235849 
-0.0859916 -0.0380323 0.348685 
-6.42301e-18 1.61573e-18 1 

-0.390329 -0.0825388 2.69204 
0.500567 0.250542 -0.787993 
6.92346e-18 -3.60597e-20 1 

-0.27531 0.0194694 -0.614182 
0.128599 0.188845 -0.569791 
-2.92125e-18 1.40907e-17 1 

-0.238667 0.0877533 2.70131 
0.00509113 0.0641961 1.74097 
-1.41114e-18 1.54986e-18 1 

-0.441433 -0.0225056 -0.548142 
0.040937 0.294746 1.31558 
6.14076e-19 -2.04345e-18 1 

-0.0888263 -0.0402665 -0.0397797 
0.0215411 -0.101516 -0.0475806 
1.71883e-18 2.86471e-18 1 

-0.327578 -0.0152115 -0.0070581 
0.184138 -0.0690863 -0.152029 
-1.45305e-17 -1.08383e-17 1 

-0.866818 0.0209503 -6.74631 
0.641013 0.386837 2.98745 
3.48662e-18 -1.99235e-18 1 

-0.157448 -0.00401092 0.361222 
-0.0546984 -0.137696 0.127792 
1.62134e-17 3.88209e-18 1 

-0.381019 0.627901 1.14409 
0.484158 -0.0311019 -0.863891 
-1.65474e-18 4.58237e-18 1 

-0.0568172 0.0708748 0.0983232 
-0.664472 0.0605769 0.54528 
6.78267e-18 5.70591e-18 1 

-0.809244 0.112038 1.6214 
-0.419978 0.32891 4.77851 
1.66318e-18 5.12261e-18 1 

-0.568793 0.388918 11.7243 
0.461102 0.259656 -9.91528 
2.26045e-18 8.4675e-18 1 

-0.522264 -0.241138 3.91252 
-0.191006 0.0457019 0.808933 
-2.11546e-18 -2.08218e-17 1 

-0.0638899 -0.327359 0.389681 
0.343337 0.0973055 -0.0422189 
1.64967e-18 4.85197e-19 1 

-1.65828 -1.44697 1.89926 
-0.10536 0.432168 3.79706 
-6.86581e-18 -5.75516e-18 1 

-0.624983 -0.000807091 -2.70211 
0.394483 -0.0878378 -1.02436 
-8.94891e-18 2.54122e-17 1 

-0.183199 0.0646661 -0.974798 
0.0153982 -0.0514014 -0.728359 
2.64994e-18 2.28069e-18 1 

-1.36437 0.411054 -2.47311 
0.0358555 0.346426 0.129194 
-5.93366e-18 1.48862e-17 1 

-0.484109 0.393581 -0.329108 
-0.408399 -0.0133373 -0.0524779 
-9.28321e-18 9.9973e-18 1 

-0.297467 0.24293 -1.17292 
0.184353 0.00949994 0.450986 
3.01613e-17 -1.21949e-17 1 

-0.798213 0.844665 -25.5973 
0.548488 0.347775 2.07838 
3.92578e-18 5.72952e-18 1 

-0.432793 0.0345759 -0.131353 
0.00532741 0.0848881 -1.79098 
-2.96534e-18 -2.65725e-18 1 

-0.106894 -0.0108635 0.0957795 
-0.0151703 0.0128711 -0.143005 
7.91852e-18 -7.91852e-18 1 

-0.881899 -0.492735 1.63343 
-0.631636 0.242923 0.357815 
1.82705e-17 2.23827e-18 1 

-0.902629 -0.553714 -1.74638 
0.398669 0.561325 0.561798 
1.39302e-17 -8.10227e-18 1 

-0.0192698 -0.015797 0.376089 
-0.173615 -0.109432 -0.0535739 
2.59553e-19 1.0254e-18 1 

-0.404805 -0.0386625 -0.795924 
0.368935 0.180449 -0.521204 
-8.10079e-18 1.8079e-18 1 

-0.924456 0.0311496 1.12885 
0.304769 0.454339 10.6611 
-2.08699e-18 -1.86137e-18 1 

-0.242043 -0.25818 -0.436131 
0.0798121 0.0674862 -0.58452 
-5.3277e-18 3.14482e-19 1 

-3.48239 0.919353 0.0804084 
-0.644031 0.952109 1.35792 
-2.16641e-18 1.22164e-17 1 

-0.808581 -0.260401 -1.01556 
-0.642748 0.226998 -0.383809 
6.44093e-18 5.7063e-18 1 

-0.180984 0.103684 -0.472295 
-0.0529701 -0.033375 -1.24892 
-6.34025e-18 7.4213e-18 1 

-0.172095 0.103933 0.00390965 
-0.171857 -0.0225727 0.0693438 
-3.88841e-18 -6.05803e-18 1 

-0.160673 -0.129164 0.131723 
-0.011102 -0.0717233 0.0699549 
-1.13447e-18 -1.37081e-17 1 

-2.97549 0.46628 8.8627 
0.0703227 0.673128 5.51112 
-1.90529e-17 7.49854e-18 1 

-0.0707946 -0.0267221 -0.226215 
0.106225 -0.133274 -0.0132459 
-1.117e-17 -1.49932e-18 1 

0.0557355 -0.600794 49.8009 
0.9361 1.40857 4.56336 
-6.09922e-18 -6.83343e-18 1 

-0.526927 0.805875 0.988075 
-0.182756 0.221536 -0.999018 
1.29777e-17 4.34856e-18 1 

0.00564289 -0.158762 -0.812627 
0.135877 0.015806 -1.00327 
5.56785e-18 6.54734e-18 1 

-3.3417 -0.219825 -5.24557 
-0.183265 0.589293 0.744781 
-7.63003e-19 -1.68808e-17 1 

-0.0998129 -0.0674043 -0.143693 
0.0370867 -0.00386468 0.147825 
-2.17915e-18 -4.66694e-19 1 

-0.985977 -0.621092 -5.9803 
0.0395945 0.204565 -1.35294 
-8.21103e-19 -3.20352e-18 1 

-0.211797 -0.108031 -0.100176 
-0.0106983 -0.0950551 -0.428399 
1.19328e-18 3.23339e-18 1 

-0.817229 -0.173733 -2.71628 
0.177183 0.334797 -0.12722 
-6.42598e-18 -1.9191e-18 1 

-1.37791 -1.49058 0.378032 
-0.258754 0.370952 -1.71443 
-4.44724e-18 -6.61049e-18 1 

-0.119748 0.173061 0.345599 
0.00365706 -0.0469074 0.096187 
9.08601e-18 -7.3896e-18 1 

-0.112618 0.062642 -0.413441 
-0.0967116 -0.119962 -0.791091 
-5.69097e-18 1.38563e-17 1 

-0.0596867 0.391336 -0.865409 
-0.139979 0.0963042 0.682613 
3.1435e-18 -9.56333e-18 1 

-0.968929 2.32658 5.64087 
-0.0382441 1.09131 2.03693 
-1.90454e-18 7.67091e-18 1 

-1.3163 0.647922 0.84811 
-0.0417266 0.547016 -0.256752 
-2.11542e-18 2.06382e-19 1 

-0.177338 -0.0236418 -0.48277 
-0.0335287 -0.0688133 -0.527777 
1.14034e-17 5.87131e-18 1 

-0.935598 0.104217 20.0388 
-0.0421153 0.356798 -10.2265 
3.4952e-18 -2.66617e-18 1 

-0.404344 0.396457 0.382783 
-0.452147 0.257219 -0.556786 
8.00938e-18 5.86734e-18 1 

-0.11615 -0.17401 0.606931 
0.0535703 0.077161 -0.0745041 
-1.70389e-17 3.98104e-18 1 

-0.959901 0.166846 0.32758 
-0.487383 0.256018 0.0860061 
-2.4805e-17 8.36822e-19 1 

0.0227223 -0.239912 0.31327 
0.216673 -0.0683195 1.01413 
2.50196e-18 -2.60431e-17 1 

-0.332234 0.0312824 2.29679 
-0.0792657 -0.00907253 -2.50551 
1.19887e-17 5.73021e-18 1 

-0.419351 -0.64428 -2.40313 
-0.627775 0.717832 1.94579 
-2.53403e-18 2.20519e-18 1 

-1.04473 0.896076 0.607023 
-0.00750366 0.438928 0.786026 
1.07058e-17 -1.23645e-17 1 

-0.15439 0.0669472 -0.170056 
-0.0657365 -0.0294029 0.039617 
1.03802e-17 -1.04809e-17 1 

-0.420411 -0.260837 0.789354 
0.065261 0.417878 1.80697 
-8.79295e-18 -2.94621e-18 1 

-0.520207 0.0851761 0.321252 
-0.378829 0.275676 0.712856 
5.7392e-18 -8.54775e-19 1 

-0.250524 -0.00640456 1.64746 
-0.0189095 0.0376769 0.800511 
2.36888e-18 1.39346e-17 1 

-0.133613 -0.0650524 0.342757 
0.047455 -0.0570809 0.256368 
-2.61175e-17 6.06233e-18 1 

-1.68364 -0.89869 -4.26101 
0.133221 0.334274 0.580619 
1.06129e-17 5.45743e-18 1 

-0.106292 -0.342939 -6.78053 
0.330165 0.0168621 2.51136 
9.33753e-18 -1.40455e-17 1 

-0.805731 -0.143994 3.16649 
0.290125 0.552936 1.69265 
-7.48978e-18 1.11171e-17 1 

-1.0449 1.41162 2.46662 
-0.60474 0.69358 0.799598 
-9.27887e-18 -1.21829e-17 1 

-0.769474 -0.0681443 0.131043 
0.0721258 0.210276 0.359792 
-1.0363e-17 7.32813e-18 1 

-0.687899 -1.35115 1.63775 
0.278974 0.520342 0.38415 
1.63081e-17 3.79585e-18 1 

-0.259765 -0.14296 0.20726 
0.169233 0.137355 0.43741 
6.18112e-19 1.03534e-17 1 

-0.552111 0.511297 -1.17512 
-1.05648 0.711348 0.711695 
1.73416e-19 3.9452e-18 1 

-0.176207 -0.139951 -0.792047 
0.302232 0.106056 1.13116 
9.34084e-18 -7.43639e-18 1 

-1.09166 -0.697868 -1.04528 
-0.124612 0.493269 0.775166 
-5.21841e-19 1.04368e-18 1 

-1.8049 -0.870752 2.8068 
-0.00442789 0.662147 0.259132 
-1.58674e-17 7.37652e-17 1 

-0.464057 -0.0949595 0.071642 
0.270195 0.134412 -0.283971 
-4.1026e-18 1.46571e-17 1 

-2.06001 -3.15118 -3.6974 
0.960978 1.75045 1.2685 
3.49692e-18 -1.1437e-17 1 

-0.253296 -0.077564 3.71772 
0.0260011 -0.03979 -0.49741 
-4.56087e-18 3.11816e-17 1 

-0.0524898 -0.401531 -0.00527603 
0.320005 -0.0289133 0.151789 
2.56542e-18 1.56866e-18 1 

-1.19175 -2.27071 -0.900968 
0.0567522 0.432975 -0.335264 
-3.51999e-18 1.10714e-17 1 

-1.20366 -0.289645 -7.01063 
0.164702 0.482157 4.58916 
-5.33441e-18 -3.50305e-18 1 

-0.202629 -0.0949931 0.487253 
0.201307 0.0652071 -0.280064 
-1.93258e-17 2.76982e-18 1 

-0.205994 0.0937602 2.3243 
0.107035 0.163689 -1.77126 
1.18598e-17 2.7923e-18 1 

-0.305133 0.432442 -0.158546 
0.00142347 0.173773 -0.109529 
-1.24195e-17 4.06173e-18 1 

-0.192621 0.00946193 -0.0203859 
0.0148431 -0.0220142 -0.229455 
-1.60074e-17 4.19504e-18 1 

-0.265121 -2.2023 1.03475 
0.551455 1.35595 0.40536 
9.23755e-18 -7.48341e-18 1 

-0.574281 0.299307 -0.709872 
0.145429 0.334841 0.441697 
-3.28449e-18 9.73093e-18 1 

-0.279384 0.204348 0.766264 
0.102329 0.202387 1.31578 
-2.22051e-17 -4.45804e-18 1 

-0.193304 -0.0339872 0.00386084 
0.016577 0.084634 -0.418037 
-1.56069e-18 7.76181e-18 1 

-0.188212 -0.989822 -4.77543 
0.672394 0.601776 0.904726 
-3.80462e-18 -5.43518e-18 1 

-0.463236 0.470796 0.678794 
0.114493 0.302974 0.149902 
6.40777e-18 -7.27797e-18 1 

-0.858572 0.754641 -2.46984 
0.14485 0.455701 -1.16628 
-9.43583e-19 -2.46496e-18 1 

-0.483467 0.167633 0.169974 
-0.517793 0.0517783 -0.59655 
6.27418e-19 -3.28539e-18 1 

-0.114511 -0.127666 0.0780219 
0.171043 -0.137291 -0.0792978 
5.45301e-18 -3.52174e-18 1 

-1.29296 0.481729 -0.0879973 
-0.416473 0.361189 -0.0401273 
-4.22059e-18 -1.08419e-18 1 

-0.104051 -0.14512 0.543513 
0.00861809 0.0201259 -0.923757 
-7.4197e-18 -4.54683e-18 1 

-0.205761 0.288519 -0.176855 
-0.242967 -0.0198767 0.123594 
-5.75247e-18 -8.36163e-18 1 

-1.00246 1.08052 -3.6524 
-1.00446 0.742818 -2.7101 
-8.94851e-18 2.80444e-18 1 

0.0397072 0.313259 -1.08192 
-0.739365 0.119348 0.339472 
2.29084e-17 1.37451e-17 1 

-0.0762416 -0.046581 0.134742 
-0.0572192 -0.0640868 0.0286601 
-1.51528e-17 -1.49e-17 1 

-0.143124 0.185923 0.00332828 
-0.227468 -0.0612725 0.111024 
3.75928e-18 1.91723e-17 1 

-0.748061 0.452944 3.1282 
0.0222605 0.236601 0.977388 
-3.44082e-18 -2.08813e-18 1 

-1.07526 -0.781027 -0.595704 
0.430165 0.404894 0.465835 
1.55581e-17 1.38264e-17 1 

-0.183145 -0.0489885 2.45896 
-0.324122 0.121684 -1.68212 
4.93536e-18 3.79446e-18 1 

-0.183833 -0.205095 0.182822 
-0.0923816 0.0155225 -0.0724225 
-1.44476e-18 9.71926e-18 1 

-0.16719 -0.0354227 -0.643339 
-0.00768578 -0.0112819 -0.998863 
-1.36717e-17 -5.83885e-20 1 

-1.34369 -0.748629 1.59405 
0.735804 0.628478 0.827954 
4.40546e-18 -1.26064e-17 1 

-0.258827 0.358631 0.758117 
0.217103 -0.152136 -1.47145 
-6.90299e-19 5.79224e-18 1 

-0.386006 0.126909 -0.0516709 
-0.0907484 -0.206002 -0.460521 
-1.07639e-17 1.96558e-17 1 

-0.749598 0.197003 -0.646692 
-0.0770492 0.148064 -0.158645 
-2.94129e-17 3.14576e-18 1 

-0.24975 -0.20627 0.467095 
0.204175 0.188269 0.110796 
2.95054e-18 -4.74853e-18 1 

-0.735279 -1.39404 1.42515 
0.709476 1.06655 -1.33344 
1.45014e-17 -2.64809e-18 1 

-0.210509 -0.00599349 -0.0724032 
0.0180336 0.0618368 3.07721 
3.21089e-18 3.91957e-18 1 

-0.624758 0.0432073 1.1922 
-0.0843363 0.133362 -2.04092 
1.19623e-17 5.76683e-18 1 

-0.184225 -0.0235527 0.308372 
-0.067594 0.0885457 0.00170062 
-1.21721e-17 5.08395e-18 1 

-0.251855 0.021323 -0.0990845 
0.106921 0.135984 -0.463875 
1.11139e-17 -2.16546e-18 1 

-0.0373941 -0.515419 -0.548638 
0.871904 0.229235 0.15541 
8.97784e-18 -1.08113e-17 1 

-0.123924 -0.522925 1.16112 
0.393123 0.25697 0.162632 
2.04443e-18 -8.13512e-18 1 

-2.35664 -0.0790026 -0.890514 
-0.24457 0.815096 -2.02985 
1.74527e-18 1.21471e-17 1 

0.593437 0.547743 -1.02957 
-0.688573 0.26449 0.433772 
4.15526e-18 4.18349e-18 1 

-0.80066 0.86136 -1.54397 
-0.338575 0.812676 3.05035 
-1.00095e-17 -6.50616e-18 1 

-0.469232 -0.441061 -1.62667 
0.280167 0.204249 -1.36392 
1.52436e-17 2.25081e-19 1 

-0.150879 -0.0415086 -3.5268 
-0.00346629 0.259426 -0.0270164 
4.09613e-18 1.02957e-17 1 

-0.136725 -0.000931421 0.189374 
-0.0974728 0.0488102 0.224531 
-1.15192e-17 -3.18761e-18 1 

-1.83743 0.496548 1.15205 
-0.345178 0.673436 -0.179457 
-3.79593e-18 -1.32282e-17 1 

-0.242045 -0.105448 -0.190783 
0.190671 0.190309 -0.115543 
-2.20903e-18 2.78182e-18 1 

-0.257716 0.0818161 0.121225 
0.0643182 -0.123608 0.804661 
1.25154e-17 -7.31749e-18 1 

-1.15754 0.392194 -0.264035 
0.870247 0.179042 -0.641156 
-1.30088e-17 -2.9595e-17 1 

-0.334983 -0.341722 -2.68496 
-0.249578 0.116121 -0.890723 
4.00496e-18 1.03396e-17 1 

-0.150436 0.0737356 -0.244822 
-0.506858 0.135892 0.252875 
-7.58902e-18 -7.33883e-18 1 

-0.515374 -1.00296 -0.236411 
0.420561 0.69719 -0.114382 
-1.52241e-17 1.01494e-17 1 

-0.0902249 0.362643 0.535626 
-0.371766 0.145324 0.264963 
-6.03194e-18 -4.7041e-18 1 

-0.198227 -0.321127 0.98263 
0.168616 0.1832 -0.700934 
8.32526e-18 4.33607e-20 1 

-0.0536323 -0.506823 0.82213 
0.184808 0.226401 -0.622361 
4.8618e-18 5.57237e-18 1 

-0.676376 0.280996 0.384734 
-0.476551 0.336869 -0.393298 
1.97333e-19 -2.26933e-18 1 

-0.158586 0.122228 0.213895 
-0.124095 -0.0499783 0.246219 
9.54808e-18 2.51035e-17 1 

-0.0198608 0.123769 1.30896 
-0.192598 -0.047972 -3.03258 
-9.72545e-18 4.3833e-18 1 

-0.103967 -0.0630679 0.209602 
-0.0110897 -0.0417258 0.254641 
-3.1281e-18 -1.01112e-17 1 

-0.158343 0.22387 1.17501 
0.089262 0.0869719 -0.181107 
5.79893e-18 4.35945e-18 1 

-0.438873 0.539536 1.39895 
-0.265884 0.382509 0.980405 
-3.57886e-18 -4.5088e-19 1 

-0.182239 -0.0247858 0.135977 
-0.0137117 -0.034939 -0.383551 
-9.27307e-18 -8.00895e-18 1 

-0.197089 -0.117182 0.0520803 
0.0950745 0.159004 -0.393938 
-2.99711e-18 -7.58495e-19 1 

-0.136996 0.0332501 -0.845558 
-0.0651289 -0.00929845 -0.0946858 
-8.90403e-18 -1.21333e-18 1 

-0.607847 -0.276173 -5.28025 
-0.342562 0.241378 2.46746 
-7.82977e-18 7.20543e-18 1 

-0.863142 -0.331379 0.0853111 
-0.502558 0.364458 -1.61663 
-2.75283e-17 -1.32182e-18 1 

-0.196938 -0.00202085 -0.838198 
-0.0297369 0.145647 -0.811979 
7.4584e-19 4.32959e-19 1 

-0.868241 -0.721094 -2.56381 
0.863308 0.97578 1.13363 
-9.03695e-18 1.15686e-17 1 

-0.850389 2.53826 3.97582 
0.383203 0.342118 3.81836 
-7.68343e-18 4.45515e-17 1 

-0.701739 0.171923 44.7244 
0.0787413 0.528298 36.7669 
-1.85773e-18 1.03793e-17 1 

-0.70231 -0.695803 0.96519 
0.440352 0.247855 -0.646818 
-9.06306e-18 -9.35542e-18 1 

-0.324943 -1.21562 -2.27659 
0.569351 0.559779 2.60084 
6.85947e-18 2.83068e-18 1 

-0.89201 -0.545942 -26.4617 
0.0434872 0.397654 -14.8508 
-2.23929e-18 -7.12548e-19 1 

-0.98164 -1.17554 -1.75813 
0.0595534 0.335845 -5.54852 
-8.31761e-18 3.54627e-19 1 

-1.28565 -0.2499 0.30537 
0.168854 0.289073 -0.531319 
1.49553e-18 -8.26103e-18 1 

-0.0505554 -0.0295572 -0.00715452 
-0.0843407 -0.0456083 -0.0956068 
-8.9504e-18 2.68777e-18 1 

0.0616203 -0.215427 1.55933 
0.46454 -0.0276242 -0.475513 
-9.93727e-18 -4.09912e-18 1 

-0.119487 -0.0752755 -0.162204 
0.0570043 -0.0944893 0.463423 
-9.32891e-18 1.65481e-18 1 

-0.262292 -0.145495 0.116967 
0.0620973 -0.0183326 -0.530673 
-6.06937e-18 1.76839e-17 1 

-0.296981 -0.0658942 0.229981 
0.00668262 0.105136 -0.631984 
-1.421e-18 -1.40521e-17 1 

0.145155 0.457483 2.02763 
-0.0264123 -0.168568 -0.522145 
3.85934e-18 -7.23626e-18 1 

-0.426067 -0.415745 1.97537 
0.165768 0.332246 -1.63449 
9.95285e-18 -3.578e-19 1 

-1.73533 -0.816793 0.82994 
-0.357903 0.384177 -0.571265 
6.76333e-18 4.47095e-19 1 

1.31444 -0.949722 0.0111835 
1.02777 1.33204 -0.0133456 
-8.31592e-18 -5.78499e-18 1 

-0.284388 0.216888 -0.466726 
-0.23368 0.167182 1.17739 
-3.27772e-18 -4.75838e-18 1 

-3.08784 -0.518055 3.10198 
-0.818608 0.397131 -0.959506 
7.28972e-18 -1.0121e-17 1 

-0.186768 -0.0053042 0.0307272 
0.014017 -0.0368066 -0.13321 
-1.33952e-17 -6.63159e-18 1 

0.206802 0.121167 -1.02673 
-0.367333 -0.266676 3.11253 
4.22641e-18 1.03458e-19 1 

-0.579588 -1.1733 4.05679 
1.39278 1.07052 -0.234236 
-2.48109e-18 -1.45144e-17 1 

-0.408623 -0.209106 1.12238 
0.00490887 0.16996 -1.20603 
-1.49274e-18 1.12817e-18 1 

-0.60134 0.34876 2.12843 
-0.331583 0.0946399 -0.73826 
4.21447e-18 2.28657e-17 1 

-2.52679 0.617193 -4.4376 
-0.537203 0.604917 -1.84804 
2.75429e-17 2.29924e-17 1 

-0.15556 0.0158813 0.384781 
4.74003e-05 -0.0118266 0.0903486 
-7.59321e-18 -7.04287e-18 1 

-0.51369 0.306276 -0.00971967 
0.0160489 0.149194 -0.0150814 
1.16573e-17 -6.54443e-18 1 

-0.292449 -0.099455 -1.18678 
0.159892 -0.0192949 0.0497717 
2.86864e-21 7.7109e-18 1 

-0.484166 0.0178919 0.0862895 
-0.088918 0.187211 -0.803813 
3.7455e-18 -1.39367e-17 1 

1.4332 -0.99396 -0.01305 
0.903651 1.34153 0.170643 
-2.7958e-18 3.21767e-18 1 

-0.211488 -0.0901461 -2.63309 
0.141296 0.0870663 2.01773 
-3.34869e-18 -4.74942e-18 1 

-0.327191 -0.456792 -0.10164 
0.415073 0.0678903 -0.855255 
1.34028e-17 3.97799e-18 1 

-2.71909 -0.211211 6.76246 
1.15697 1.00765 0.940303 
4.54887e-18 1.05354e-17 1 

-0.315432 0.15847 0.540027 
0.0415508 0.094587 0.873739 
-7.24081e-18 -2.93934e-18 1 

-1.92338 -0.232651 -0.0447825 
0.0038652 0.782443 -0.554388 
4.12751e-18 1.21586e-18 1 

-1.34573 0.267392 2.01378 
0.45706 0.445397 1.76476 
-1.13136e-17 2.40869e-18 1 

-1.14708 -0.379641 -1.24278 
-0.189643 0.404612 1.01437 
2.01767e-18 -7.86478e-18 1 

-1.41381 0.702631 -6.96499 
-0.613383 0.891201 0.119655 
-9.73199e-19 -3.29481e-18 1 

-0.370109 0.00618288 -0.40047 
0.145603 -0.0494858 -3.44506 
-6.18283e-18 6.38228e-19 1 

-0.28435 -0.193843 -0.040868 
0.0849998 0.173209 -0.251751 
-3.45384e-18 1.59086e-17 1 

-0.843475 0.11044 0.223655 
-0.574035 0.191429 0.399704 
2.21651e-17 1.29848e-17 1 

-0.60754 -0.216449 -1.21708 
0.343222 0.292452 0.13503 
-3.31001e-18 -1.42441e-17 1 

-0.733992 2.26851 -3.22197 
0.0422034 0.359871 0.942936 
5.56362e-19 -1.13123e-18 1 

-0.206685 -0.0663054 0.565245 
-0.00403083 0.0102345 0.767054 
-1.16059e-18 1.42842e-18 1 

-0.641535 -0.174742 -0.244558 
0.114131 0.169309 0.674451 
3.80251e-18 1.45704e-18 1 

-0.499595 0.0263887 -1.90065 
-0.020181 0.507769 -0.478296 
-9.9872e-18 -5.44515e-18 1 

-0.236145 -0.41042 -0.646222 
0.203308 0.162785 0.370172 
-3.49661e-18 6.93079e-18 1 

-0.707397 -0.404359 1.39805 
0.458701 0.391439 -2.34665 
5.26639e-18 -6.69403e-18 1 

-0.0721451 -0.0191549 -0.357548 
0.0425632 -0.0663167 0.298628 
7.77041e-18 -9.54607e-18 1 

-0.253447 0.0218183 -0.602164 
0.09468 0.0878033 0.34971 
-1.70302e-18 1.20229e-17 1 

-0.497512 -0.876081 1.68904 
0.25895 0.156039 2.6798 
-5.24833e-18 1.12209e-17 1 

-0.00421503 -0.635346 0.0100566 
0.526933 0.260661 -0.312224 
-7.47566e-19 -4.1791e-18 1 

-0.164208 0.332626 -0.577083 
-0.0948796 0.0962357 0.972844 
6.74506e-18 8.33441e-18 1 

-0.51646 -0.863985 0.168876 
0.241675 0.366242 -2.03983 
5.22412e-18 5.73918e-18 1 

-0.109274 -0.19002 -0.491723 
0.0985308 0.0463913 -0.247192 
3.62622e-18 1.63473e-17 1 

-0.246803 -0.00426987 -4.27632 
0.0210005 0.15988 -9.27764 
-3.32296e-18 2.48823e-18 1 

-1.36302 -0.600093 -1.88219 
-0.242385 0.603794 -3.16061 
1.71179e-19 2.38427e-19 1 

-0.818611 -0.270841 0.401453 
-0.364203 0.285497 -1.53682 
-3.05229e-18 2.36144e-18 1 

-0.222767 1.62638 0.943137 
0.00820126 -0.020083 -0.14498 
5.79766e-18 -7.3003e-17 1 

-0.176841 -0.336081 0.84922 
0.295934 0.193 2.32102 
-5.32368e-18 1.80283e-18 1 

-0.691182 -0.527682 41.0622 
0.199611 0.38075 53.7872 
-1.2446e-18 -5.29331e-18 1 

-0.977511 1.27055 10.944 
-0.417062 0.828087 0.944083 
-1.12919e-18 -4.7677e-18 1 

-0.519905 -0.136557 -3.09022 
0.0114549 -0.105397 -5.86278 
-2.14097e-18 -8.01875e-18 1 

-0.953067 -0.289548 -0.89516 
-0.00075858 0.480236 1.32936 
-1.51694e-17 -5.08986e-18 1 

-0.12388 0.150459 0.0635337 
0.0568849 -0.0575136 0.156654 
5.00819e-18 -8.98377e-18 1 

-3.30179 3.25165 -12.9372 
-0.384631 0.873529 7.40473 
1.1032e-17 2.52928e-18 1 

-0.320899 0.295362 0.523195 
-0.364693 0.182892 -0.426105 
-5.1032e-18 8.7226e-18 1 

-0.161794 0.112282 0.102156 
0.0117882 0.0192673 0.42683 
-6.13795e-18 -2.86162e-18 1 

-0.154396 -0.0236224 -0.199158 
-0.0369024 -0.0511586 0.00689976 
-4.31405e-18 -2.15703e-18 1 

-0.985523 -0.380092 0.779339 