# vtk DataFile Version 3.0
Output file generated by Yade's KinematicLocalisationAnalyser
ASCII
DATASET UNSTRUCTURED_GRID

POINTS 13483 float
394.174 48.5103 -0.474242
486.495 98.9596 0.443014
95.5114 6.06241 -0.435475
507.771 8.84801 -0.376675
342.662 8.43793 0.537854
228.429 60.6397 -0.465824
127.217 7.25254 0.46289
381.497 15.4971 0.23232
340.181 29.535 0.206272
466.838 18.046 -0.680143
161.371 24.7806 0.106176
187.922 7.60175 -0.378109
416.146 65.6285 -0.158475
415.797 29.1003 -0.108231
111.482 18.3189 -0.464876
169.136 54.1889 -0.398024
166.701 23.2519 0.230991
208.444 14.9147 0.577563
244.125 52.5991 0.432949
361.063 8.56975 -0.552513
292.726 63.5581 0.101986
382.918 57.1533 0.360015
508.417 67.7565 -0.492833
446.008 68.8092 -0.431645
317.459 28.3816 0.336721
185.412 62.8252 -0.149668
334.204 42.0498 -0.466685
393.449 22.0154 0.286661
35.9782 19.7273 -0.490294
456.298 58.335 -0.347754
330.369 8.08917 0.501205
14.1782 26.98 0.323796
500.904 100.077 0.244217
339.243 2.47554 0.489637
63.9642 50.6894 0.141395
346.883 47.2061 0.397701
356.862 25.0671 -0.573346
247.321 23.7948 -0.260513
354.912 40.8655 -0.385743
250.006 53.976 -0.389988
175.396 18.9229 0.41386
295.721 57.745 0.0691434
438.562 12.1853 -0.165451
150.942 13.3516 -0.531463
42.7431 9.10748 -0.108982
52.8419 11.703 -0.25398
443.25 10.784 0.684937
18.0601 15.9844 -0.290978
384.196 75.2409 0.379231
432.882 57.3896 0.355367
128.143 46.7617 -0.308968
483.912 82.6377 -0.113433
26.9014 35.5669 0.108779
368.518 4.40937 0.659102
115.699 8.86458 -0.689624
389.479 48.3097 0.448385
338.732 36.4367 -0.144258
144.02 1.00054 0.343105
24.7561 2.83547 0.297487
252.374 18.6122 -0.391969
385.835 91.2505 0.132227
317.097 60.8001 -0.175823
280.678 1.00843 0.279641
451.289 13.0485 0.727019
18.5579 53.045 -0.245489
198.388 47.8994 0.330801
465.54 10.717 -0.392498
432.18 100.608 -0.350707
294.865 11.8829 -0.646196
381.414 9.87625 -0.395481
472.953 48.7594 0.434938
105.778 8.04539 0.287323
336.859 45.3423 -0.151478
329.545 21.077 0.117607
214.624 19.3423 -0.426605
15.5138 17.9553 0.282412
493.876 76.2033 -0.30991
246.25 60.0589 -0.288128
432.347 51.281 0.341569
447.19 22.2414 -0.377195
504.229 25.7213 -0.236155
317.81 66.6349 -0.166466
77.75 51.7419 0.277229
435.217 76.6189 -0.21603
414.728 78.6401 0.0999702
513.649 74.3586 -0.10773
498.104 1.8817 0.609
213.808 40.5822 0.415689
424.846 5.62435 -0.204944
19.8019 8.41874 0.612965
104.336 49.3292 0.155357
351.831 17.3598 0.187438
491.721 63.7982 0.46642
149.39 47.7552 -0.220907
36.2479 47.3662 0.259311
338.38 1.04739 0.188718
173.799 10.1741 -0.472348
471.47 87.9254 -0.24705
486.693 59.7187 0.238917
257.472 33.571 -0.281373
124.947 37.9074 0.447784
361.019 73.2334 -0.400693
271.471 29.3955 -0.473684
288.625 50.6149 -0.100272
270.852 17.3009 0.396183
369.498 24.9463 -0.0924506
512.937 12.5394 -0.37616
67.0197 46.707 -0.391945
241.66 5.79573 -0.238884
376.924 16.8184 -0.495703
272.208 75.576 0.444646
20.1257 30.3629 0.469281
24.5911 7.59972 0.457965
368.396 64.3443 0.426778
339.324 38.5552 0.18095
15.2201 48.9784 0.475334
76.5385 41.4493 0.210476
236.038 19.3815 0.331084
399.801 27.9227 -0.162158
322.983 71.9332 -0.316635
479.012 6.90656 -0.379172
470.858 6.0718 0.275474
274.776 61.0155 0.101946
413.506 49.8732 -0.138438
174.744 24.2472 0.575353
238.369 5.77105 0.624795
80.9433 35.3634 0.32748
92.4315 26.9679 0.281218
357.84 66.7605 0.0768289
221.876 23.1742 0.608987
454.434 75.9574 -0.0971707
439.171 96.955 -0.103281
332.076 35.489 -0.408476
498.18 44.0475 0.325029
297.332 37.0733 0.254249
205.11 30.8255 -0.354513
431.275 76.1313 0.276246
207.883 41.2121 0.366357
389.958 13.7451 0.286466
246.4 54.8379 -0.198504
350.278 13.1371 0.630144
261.303 48.4153 -0.0904189
301.488 26.8434 0.122362
235.128 66.1906 -0.432336
145.944 46.5182 -0.124763
490.79 97.5691 -0.144385
511.17 14.9505 -0.376795
5.90306 13.1475 -0.414055
303.229 33.5713 -0.444462
30.6711 28.4767 0.0818968
269.796 51.3337 -0.49611
282.422 39.2434 -0.278578
57.4654 14.44 -0.645189
42.1956 44.0976 -0.462229
169.318 18.8222 0.507581
385.851 83.1809 -0.383454
390.302 22.9945 -0.615619
59.4852 25.0275 0.568041
445.65 73.1947 0.455984
492.605 25.4407 -0.647267
426.362 93.6331 -0.510278
450.874 2.14634 -0.566132
366.715 45.4728 -0.471503
382.604 58.8475 0.483568
350.546 24.6025 -0.5339
505.998 6.99244 0.513569
173.598 37.6481 0.116366
109.126 41.0791 -0.206878
181.525 8.8424 -0.669608
72.9641 5.10142 0.320993
50.0506 14.7633 0.211081
212.587 50.2333 0.29658
13.7027 28.6628 -0.357117
376.805 38.3332 0.494041
389 74.9956 0.218686
324.938 33.1139 -0.414547
498.858 78.6714 0.362199
288.64 10.3033 -0.194622
302.642 51.6096 0.410572
370.937 11.4172 -0.234262
17.3155 29.523 -0.437176
390.642 6.01912 0.590205
373.122 18.3192 0.476444
160.01 27.7988 0.501675
300.15 23.6783 0.233357
226.616 6.50773 0.605008
279.088 27.8999 -0.405752
474.04 76.3834 -0.121751
148.734 41.7274 0.480745
495.551 15.3303 0.453483
477.417 75.5022 -0.340895
276.722 18.611 0.188871
462.299 3.32838 0.570224
396.797 44.1919 -0.38719
475.092 27.4106 -0.547647
302.987 59.58 0.265995
345.502 13.1316 0.621402
316.916 78.7991 0.235519
314.418 16.1126 -0.204675
429.887 94.8549 0.267435
423.241 80.9612 -0.290469
146.12 59.783 -0.345875
502.205 25.0974 -0.24959
384.201 58.4879 -0.28975
8.34395 22.2084 0.170139
289.18 38.1997 0.362082
144.824 39.0532 -0.40205
78.8123 53.3411 0.298896
493.154 55.0526 0.522994
421.627 94.0804 0.238241
234.006 33.7699 0.377465
363.973 21.4475 0.440002
67.9616 53.0858 -0.177216
192.205 38.7069 -0.46645
375.13 44.7771 0.352006
338.439 24.8385 0.474696
192.999 0.925443 -0.474448
362.652 80.9143 -0.36857
351.621 64.7118 -0.537542
327.259 66.5012 0.390265
347.991 2.23875 -0.655849
455.874 28.6195 0.394655
141.411 20.3143 0.254816
334.504 69.384 -0.408287
372.733 78.2289 0.155212
55.1188 0.902983 0.406712
186.365 6.23225 -0.195045
510.698 18.6716 -0.27576
503.351 27.5177 -0.576191
515.64 28.8492 -0.531205
219.861 8.90076 -0.273827
475.217 37.4756 -0.521279
293.116 69.0754 0.325629
315.573 0.840548 0.619928
419.337 80.4258 -0.402555
19.3169 36.8167 -0.306865
246.275 63.5504 -0.491258
187.108 4.42139 0.496967
502.398 96.6647 0.171709
456.36 90.4853 -0.0270656
210.387 16.2011 0.371823
428.623 64.7181 0.0857632
376.279 10.0505 0.269952
370.252 20.2722 -0.520588
76.1649 19.0302 -0.536993
220.488 0.948065 -0.245102
251.826 2.15887 -0.425012
11.9234 7.627 0.647912
3.54205 38.4708 0.248614
133.074 21.7245 0.366553
56.4823 49.6204 -0.26789
52.8559 36.2806 0.302264
300.126 21.9522 -0.419956
261.05 51.9493 -0.489057
483.188 84.8039 0.1096
17.6529 5.12636 0.323953
52.9587 7.85727 0.142081
392.972 78.9931 -0.139529
212.542 0.886821 0.480601
260.649 27.9498 -0.13748
175.858 6.15827 -0.441873
423.946 52.9555 0.179145
316.388 9.17629 0.604384
476.522 32.6371 0.467859
409.166 54.1415 0.357894
435.896 44.1985 0.111064
294.827 41.0137 0.516105
89.3041 54.2349 -0.0762616
357.147 72.6122 -0.0867206
479.255 13.8691 -0.209905
186.738 48.5507 -0.231055
26.2957 21.666 -0.160181
246.282 14.7941 0.545611
90.0133 46.2766 -0.486669
213.126 60.5739 0.182225
303.122 4.68279 -0.450067
494.553 67.8841 -0.413012
446.156 3.38137 -0.679378
241.851 4.05082 0.543678
224.359 36.8518 0.185305
315.901 75.6435 0.208916
62.2308 8.72258 0.610402
151.255 66.4308 -0.378118
488.533 59.4995 -0.375512
348.75 82.5302 0.0703252
153.853 62.6992 0.253178
116.692 59.0135 0.314674
513.465 62.5259 -0.398372
512.872 14.4495 -0.575126
417.758 5.86868 -0.574265
148.846 39.0983 -0.104692
365.565 51.5504 -0.115802
368.9 51.8352 0.301789
293.338 8.19728 0.143354
334.428 0.803671 0.31213
477.522 89.8048 0.469448
71.6777 38.1885 0.206983
429.334 43.1653 0.534229
200.883 23.9061 -0.420638
8.20618 2.4774 0.405845
107.585 38.1419 -0.225697
54.887 29.7134 -0.467386
453.302 67.9942 0.334052
508.016 98.4467 -0.163051
144.385 44.9131 -0.166826
512.527 24.0947 0.5002
35.7502 49.4866 -0.278444
76.1313 39.524 -0.148235
424.209 30.8098 -0.436186
292.715 24.2692 -0.598236
354.679 26.9803 -0.130101
187.2 46.5692 -0.18854
416.674 16.1502 -0.552806
514.544 12.4055 0.588507
22.817 38.1648 -0.255402
196.695 12.0451 0.187598
170.826 22.4434 0.222012
1.2666 43.0726 0.146587
171.398 20.6433 0.434009
165.322 24.828 0.151783
166.574 43.2906 0.270905
109.853 31.1927 -0.121224
373.833 31.2248 -0.340755
137.609 15.6412 0.502006
498.554 97.5373 0.230773
144.98 5.22384 -0.691943
37.762 50.7885 -0.378782
465.494 81.0124 -0.313842
211.236 42.8091 0.383362
435.815 54.9756 -0.491225
499.894 61.7713 0.468501
219.342 10.9002 0.259004
466.713 49.4413 0.446509
240.076 2.56602 0.691125
294.172 34.8515 0.383246
442.901 38.5246 -0.479148
84.4389 11.7093 0.577451
335.947 4.18685 0.663168
480.153 33.9238 -0.198828
68.165 7.88003 -0.331336
206.334 20.0091 0.208199
301.628 17.2199 0.364711
508.41 2.84077 -0.61231
285.12 1.60477 -0.671818
132.785 53.8684 0.273023
482.442 13.1838 -0.553227
109.525 43.1559 0.185546
202.828 46.7475 -0.386316
286.292 29.5335 0.283963
392.215 15.9185 -0.365711
278.523 13.1061 -0.659736
321.596 42.19 -0.483343
486.829 100.461 0.378907
36.8507 14.3525 0.13129
221.29 65.8005 -0.269923
275.308 45.9617 -0.371668
288.042 28.7509 -0.286925
342.003 64.4036 0.367115
479.871 83.2464 -0.198565
426.755 78.8235 -0.357394
175.786 48.8447 0.387262
12.1291 40.2666 -0.157542
425.096 81.841 -0.121631
345.264 70.6458 0.444209
182.837 53.5587 0.0902452
438.292 62.4725 0.124579
125.237 10.6207 -0.246382
265.126 36.0233 0.2855
317.692 76.7323 0.112452
292.858 27.2231 0.212494
482.74 100.328 -0.290417
303.831 6.00007 0.602047
38.0752 35.2891 -0.286641
325.496 52.9112 0.377013
305.011 54.5041 0.357287
492.288 77.5398 0.24278
465.754 53.544 0.275412
370.038 35.5638 -0.147573
487.131 89.28 -0.42207
212.544 2.13074 -0.540867
275.305 48.4812 -0.511213
18.6229 47.9239 0.310868
471.167 51.7702 -0.155202
404.52 36.7416 -0.594371
323.662 2.71901 0.669811
103.059 5.10945 -0.432359
299.115 60.7968 -0.100239
10.7226 0.882867 0.325433
503.777 10.0838 0.129067
262.538 56.1248 0.407179
422.769 8.03969 -0.411629
[...]
POINT_DATA 13483
TENSORS Strain_matrix float
-1.56502 0.211525 0.536143 
0.574175 0.509588 2.69441 
-1.43578e-17 -6.77355e-18 1 

-0.209284 -0.354107 -2.37926 
0.232781 0.266408 4.72039 
-2.08627e-18 3.80666e-18 1 

-0.192328 -0.132791 0.126161 
0.116259 0.018182 0.518861 
-1.62787e-17 -6.0774e-18 1 

-0.755507 0.297362 -0.728979 
-0.436969 0.265504 0.231039 
-3.21491e-18 -1.54316e-18 1 

-0.861665 -0.0227863 0.749919 
-0.173557 0.103604 0.174313 
-9.41987e-18 -1.93228e-19 1 

-1.49064 -2.34987 9.08021 
0.408316 1.26311 9.2268 
-1.0298e-17 1.02622e-17 1 

-0.268068 0.00885675 0.742107 
0.00255078 -0.0373492 0.465276 
-7.3245e-18 7.67241e-18 1 

-0.191373 0.383039 -0.111224 
-0.553095 -0.0337313 0.090839 
-2.66044e-18 2.43586e-18 1 

-2.19523 -1.18448 0.97178 
-0.228884 0.727702 -0.72241 
6.80343e-18 -4.91305e-18 1 

-1.03225 -0.579247 14.3847 
-0.268395 0.209029 -5.58592 
-4.69987e-19 -2.69068e-18 1 

-0.486356 0.347893 -0.349239 
-0.410598 0.412904 -0.597096 
5.06511e-18 -3.72647e-18 1 

-0.584772 -0.887758 -0.376575 
0.0668711 0.22031 0.465192 
1.77095e-17 8.00625e-18 1 

-0.653776 -0.572746 2.20398 
0.738592 0.344212 2.9888 
-1.22086e-17 8.14136e-19 1 

-0.203299 -0.0851723 -0.659785 
0.241247 0.176886 -0.554249 
-8.58246e-19 2.4603e-17 1 

-0.344025 0.0289154 0.779224 
0.0859155 0.135623 -0.720574 
3.46286e-18 7.27741e-18 1 

-0.354652 0.224682 1.42947 
-0.218389 0.252808 0.336619 
-9.42478e-18 -2.23432e-18 1 

-0.753853 1.04173 1.81008 
-1.12965 0.890682 0.846299 
-1.18031e-17 3.7927e-18 1 

-0.419413 -0.0239292 0.0157427 
0.105379 -0.115261 -0.132187 
-5.74139e-18 5.51173e-18 1 

-3.48631 0.0822677 2.5052 
0.0941212 0.919585 2.51022 
-4.86614e-18 -2.07409e-17 1 

-0.732441 0.10084 -0.268496 
-0.0664796 0.12677 0.149665 
-2.70432e-17 7.46715e-18 1 

-1.03362 1.34071 -2.77758 
0.158821 0.107928 1.19917 
-1.86942e-18 3.19558e-20 1 

0.0462799 -0.356033 0.143727 
-0.388738 -0.198296 1.83537 
-1.07316e-17 -6.83977e-18 1 

-0.965555 0.102741 -19.2825 
-0.464937 0.439594 3.01591 
-1.4281e-17 -6.43094e-18 1 

-0.121261 -0.0267483 0.0803462 
0.184035 -0.19778 -1.19732 
-1.22504e-17 -1.1266e-18 1 

-1.32799 -1.15943 0.0665798 
-0.235483 0.39088 -0.424413 
-1.33276e-17 5.994e-18 1 

-0.710509 -0.554722 -0.0655757 
0.357585 0.730361 -1.2009 
-9.3885e-18 -8.67278e-18 1 

-2.35764 -0.914131 -1.22621 
-0.0155571 0.446691 0.851456 
-1.18862e-17 4.80184e-18 1 

-0.796351 -0.436148 -1.78999 
0.60826 -0.0185555 -1.01467 
-2.87864e-18 9.71542e-18 1 

-0.453154 0.271317 -2.97211 
-0.111899 0.191459 1.5073 
-1.32824e-18 9.16128e-18 1 

-2.18475 -0.618834 1.8276 
0.272272 0.5224 1.59473 
1.30224e-18 -8.62737e-18 1 

-1.13373 0.532992 1.7451 
-0.312065 0.379993 0.37577 
3.61533e-18 1.67209e-17 1 

-0.322513 0.0901605 -1.65873 
0.134398 0.134133 0.587772 
5.10865e-18 -3.04994e-19 1 

-0.801586 0.909974 -26.8046 
0.402651 0.334661 0.782185 
3.50941e-18 -5.03237e-18 1 

-0.694681 -0.26343 -0.0423421 
-0.0851419 0.419513 -0.911816 
9.65001e-18 2.66878e-17 1 

-0.311564 -0.101364 0.0645616 
0.286246 0.0918782 0.0992775 
-1.99569e-17 -4.27979e-18 1 

-1.25898 -0.565143 -1.99926 
-0.649373 0.263295 -1.46852 
-5.80817e-18 6.79401e-18 1 

-1.45492 -0.740265 12.9043 
0.35712 0.588608 -8.35514 
-2.80685e-18 1.0699e-17 1 

-0.26715 -0.52962 -0.0324884 
0.237985 -0.169371 -0.306695 
-9.53043e-18 -2.21278e-17 1 

-0.398911 -0.0938001 -0.523776 
0.28647 0.250471 1.51795 
5.52179e-18 -3.30038e-18 1 

-5.91518 1.33964 -15.0764 
-1.31026 0.839773 -0.40472 
2.51557e-19 -3.64757e-18 1 

-1.27171 -0.105081 1.23213 
0.198693 0.406073 -0.186714 
9.72275e-19 1.78899e-17 1 

-2.65294 -1.08826 8.05844 
-0.750823 0.745852 1.74111 
-9.19384e-18 3.50649e-18 1 

-1.44231 -0.101014 0.0493864 
-0.987075 0.762659 -0.528366 
-1.08633e-17 1.01558e-17 1 

-0.792917 -0.783273 -7.39712 
0.753553 0.456447 1.68969 
5.10069e-18 -3.59211e-18 1 

-0.46475 0.173339 -0.172512 
0.0355446 0.163848 0.496793 
-1.30111e-17 -8.0263e-18 1 

-0.824181 0.400312 -0.496829 
-0.499719 0.42415 0.260221 
-2.55059e-18 -2.23234e-17 1 

-3.09489 0.422972 16.3044 
0.033341 0.739043 18.5046 
-2.15089e-18 -7.39674e-18 1 

-0.252932 -0.181279 -0.13724 
-0.0219043 0.0279049 0.0125642 
3.12427e-18 1.66628e-17 1 

-4.27353 -0.261422 17.5918 
0.725692 1.03738 1.58314 
-1.37164e-17 8.52527e-19 1 

-1.00017 0.285854 3.84881 
-0.0937256 0.272523 -2.19882 
-2.50593e-18 2.22618e-17 1 

0.0375524 -1.11528 -3.9562 
0.496492 0.429037 -0.385864 
2.44472e-17 -1.04031e-18 1 

-3.51634 -1.16134 -5.68523 
0.0408371 0.714596 0.125243 
-9.40328e-18 1.38329e-17 1 

-0.389245 -0.248387 0.451312 
0.0306624 0.292972 -0.0457323 
2.59624e-18 -6.87454e-18 1 

-1.35753 -0.51637 -6.4038 
0.0484735 0.418831 0.802182 
-1.81376e-17 1.09869e-17 1 

-0.471146 -0.300679 91.7454 
0.0499349 0.23842 2.15441 
-9.37744e-20 2.39033e-19 1 

-1.18515 -0.146691 -1.05516 
0.239047 0.349227 -2.95407 
-8.93486e-18 3.34922e-18 1 

-1.06197 -2.44785 -2.92094 
0.351727 0.801753 -0.518548 
3.98168e-18 -2.86437e-18 1 

-0.444334 0.91148 -1.03299 
0.0356047 0.105453 -0.11651 
1.16308e-17 -5.42587e-17 1 

-0.63928 0.663684 0.438146 
-0.806787 0.451079 -0.0938422 
-1.09254e-17 -2.58739e-17 1 

-1.27916 -0.162816 -0.490951 
0.269058 0.544916 0.0339008 
-9.73399e-18 -6.30653e-18 1 

-1.89217 5.74432 13.4921 
-0.0257474 0.905106 1.70934 
-1.82584e-18 1.62783e-17 1 

-2.1775 -0.401825 -2.19454 
0.421388 0.858868 -0.841976 
9.27974e-18 4.04829e-18 1 

-0.254895 -0.774512 9.10982 
-0.0366854 -0.142931 -0.594621 
5.62979e-18 7.90146e-18 1 

-1.37403 0.330549 174.055 
-0.128583 0.348165 -26.9612 
1.0647e-18 -7.71364e-19 1 

-0.380133 0.625075 -0.189422 
-0.632523 0.38776 -1.01759 
4.28577e-18 1.87818e-17 1 

-0.949539 0.507071 1.61112 
0.290015 0.578923 -0.213817 
3.4141e-18 7.91073e-18 1 

-1.00136 0.194758 0.245708 
-0.506363 0.22677 0.0599084 
-4.26216e-18 -1.48249e-18 1 

0.070114 -0.33145 -0.725458 
0.42455 -0.282198 3.89075 
-1.58588e-17 -7.78186e-18 1 

-0.532013 -0.0481758 -0.306364 
0.0743561 0.0642341 -2.47765 
2.89952e-18 1.38135e-18 1 

-0.383615 0.692234 0.200078 
-0.971168 0.853724 0.38671 
2.68555e-18 -1.49384e-17 1 

-1.06925 1.15756 -0.957862 
-0.210658 0.448802 0.713538 
-4.51832e-18 -3.66351e-20 1 

-0.167462 0.0361204 -0.178359 
-0.0737839 -0.0569423 -0.00287459 
6.94951e-18 -1.74599e-18 1 

-1.63953 -0.498024 0.330942 
-0.221609 0.111907 1.8399 
-2.22273e-18 2.05669e-17 1 

-0.551357 -0.0260412 -0.485048 
-0.318648 0.201278 0.410716 
3.02336e-17 2.53386e-18 1 

-0.651025 0.322294 2.06239 
-0.214585 0.200964 -1.37816 
9.75605e-18 4.2951e-18 1 

-0.244153 -0.140729 0.24662 
0.45656 0.0327721 -0.261023 
1.26245e-17 6.82405e-18 1 

-1.58825 -0.987798 -7.80142 
0.114113 0.41943 0.574873 
-9.43868e-19 -6.23787e-18 1 

1.12732 1.99047 -7.98503 
0.349003 -0.419271 -0.437985 
-9.66003e-18 -9.66003e-18 1 

-0.77958 -0.571695 0.828102 
0.286084 0.516273 0.07408 
-1.65438e-17 1.61732e-18 1 

-0.777128 1.57344 2.591 
-0.698927 0.845036 0.0730308 
2.78997e-18 1.91288e-17 1 

-0.78596 -0.436056 0.242887 
0.216693 0.239825 0.390874 
5.79934e-18 -7.02271e-18 1 

-2.61997 -1.55947 -3.27935 
0.186122 0.624808 -0.514868 
-1.14892e-18 -3.15954e-18 1 

-0.561475 -0.442417 -1.51225 
0.428039 0.213936 0.41755 
4.72648e-18 6.56456e-18 1 

-0.995103 0.221331 -1.35535 
-1.64473 0.742881 1.24392 
5.23837e-18 -5.98671e-19 1 

-0.300846 -0.433114 -1.15232 
0.6626 0.340346 0.981667 
4.80456e-19 5.97567e-18 1 

-1.12083 -0.698 -1.0107 
-0.119908 0.504935 0.825741 
-9.10423e-18 7.77653e-18 1 

-4.38078 0.543679 -2.05882 
0.0517301 0.805603 -3.59666 
4.32146e-18 -2.17573e-18 1 

-0.518102 0.880617 -0.521663 
0.552178 0.102514 -1.01759 
1.81832e-17 3.20025e-18 1 

-5.74852 -3.95913 0.125993 
1.16742 1.52791 -0.684522 
1.41239e-17 9.5217e-19 1 

-0.484403 0.0361738 1.26966 
0.154868 0.0241426 -8.72377 
5.4969e-19 -4.08017e-19 1 

1.3883 -2.52577 -2.58758 
0.475119 1.49241 -0.529713 
9.60905e-18 -4.17407e-18 1 

-2.03519 -1.76323 -1.6971 
0.0456569 0.485149 -0.405443 
4.77171e-19 -1.11794e-17 1 

-1.63968 -0.301899 10.3009 
0.275695 0.565218 -1.33082 
-3.596e-18 5.25443e-19 1 

-0.382533 -0.435011 -0.102991 
0.668942 0.470616 -1.01806 
9.83256e-18 -8.83826e-18 1 

-0.199435 -0.228528 -1.95836 
0.078343 0.249953 0.341843 
-4.18938e-18 5.81858e-19 1 

-0.64652 0.0235961 0.554511 
0.0668585 0.193257 -0.487582 
1.91451e-18 8.85733e-17 1 

-0.359038 -0.00122696 -0.735413 
0.00687257 0.0891578 -1.19414 
1.34688e-17 5.95735e-18 1 

-0.621102 -3.90492 0.189355 
0.437445 1.28534 -1.34709 
-9.01963e-19 -4.82354e-18 1 

-1.7176 -0.457135 -1.87462 
0.338421 0.720453 0.913255 
-3.1723e-18 1.97388e-19 1 

-0.380359 0.0127283 -2.79648 
0.266758 0.241817 0.230553 
1.06386e-17 -3.62936e-18 1 

-1.43596 -0.798431 -8.96767 
0.156775 0.64208 -1.75089 
8.03002e-18 -3.13464e-18 1 

-0.424096 -0.39288 12.9084 
0.792638 0.646906 -0.782252 
5.78767e-18 3.29089e-18 1 

-1.13144 -0.391399 6.10503 
-0.202767 0.318962 -0.811194 
1.20362e-17 3.6288e-18 1 

-1.32379 -0.217186 -3.76077 
-0.141257 0.619581 -0.85156 
-1.18262e-18 -8.13645e-18 1 

-0.859282 -0.236177 0.0228805 
-0.708515 0.0528034 -0.614571 
3.21129e-17 -1.26063e-17 1 

-0.186261 0.0864339 -0.0621284 
-0.023037 -0.104834 -0.175295 
2.30329e-17 -1.53553e-17 1 

-1.25989 0.494932 -0.271015 
-0.503131 0.304733 -0.0837104 
-6.72185e-18 -1.18621e-18 1 

-0.145406 -0.233199 -0.322892 
0.341344 0.0377084 1.41653 
-2.47713e-18 -2.99863e-18 1 

-0.212142 0.313595 0.0463406 
-0.24305 -0.0593845 -0.0349148 
5.3522e-18 -7.72649e-18 1 

-1.31405 1.09639 -5.01949 
-1.09918 0.839212 -3.23144 
-2.1603e-18 -1.57995e-17 1 

-1.55965 -0.0454387 -31.2189 
-0.0439216 0.658243 4.67141 
-5.4972e-18 -5.62651e-18 1 

-0.0796737 0.0662887 -0.692091 
-0.0196754 -0.097426 -1.06095 
-1.09316e-18 2.56411e-18 1 

-0.616234 0.176819 -0.20972 
-0.398916 0.17576 0.0687174 
4.97777e-18 -1.70274e-17 1 

-1.84391 0.654232 -1.55882 
-0.0209763 0.666482 0.219483 
1.53567e-18 6.90001e-18 1 

-1.42587 0.284026 -1.74215 
0.479677 1.27759 0.164127 
1.86565e-17 -1.19174e-17 1 

-0.388276 -0.307977 2.72285 
-0.437382 0.234706 -1.62862 
5.73249e-18 -3.9264e-18 1 

-0.372928 1.20768 -0.66299 
-0.185122 0.413302 0.278407 
1.362e-18 -1.56176e-17 1 

-0.393432 -0.553142 0.982021 
0.253174 0.330995 -0.119278 
2.5002e-19 -1.57096e-17 1 

-2.31874 -1.50953 5.26355 
0.970173 1.00129 -0.209029 
-8.43679e-18 2.14755e-18 1 

-0.216839 0.133589 -4.3162 
0.0866131 -0.0036412 -1.17892 
-1.23292e-17 -1.85653e-18 1 

-0.421175 0.314404 0.148044 
-0.0113433 -0.176946 -0.430455 
2.24633e-17 7.48775e-18 1 

-0.792836 0.195588 -0.609902 
-0.082209 0.135197 -0.157288 
-6.94754e-18 -1.21196e-17 1 

-0.110636 -0.522688 0.107941 
0.452462 0.276016 0.211574 
1.79227e-18 -1.62521e-18 1 

-0.957046 -1.91434 2.51236 
0.72676 1.17218 -1.14729 
3.1703e-18 -6.23492e-18 1 

-1.07013 0.835236 1.52114 
-0.29434 0.715019 6.12419 
-2.01974e-18 -5.24247e-18 1 

-0.660503 0.0526655 0.450386 
-0.114375 0.099671 -0.834625 
-4.75184e-18 -1.05317e-17 1 

-0.674587 0.12985 1.64663 
-0.106056 0.365622 1.63889 
1.00852e-17 -5.19321e-18 1 

-0.163411 -0.000473846 0.412103 
-0.191395 0.170105 -0.959502 
5.08595e-18 1.24518e-17 1 

-0.0339144 -0.867922 -0.212868 
0.578335 0.217741 0.676624 
-4.69328e-18 -1.29535e-17 1 

-0.887223 0.0978689 2.03169 
0.0461529 0.340347 0.433675 
-1.13998e-18 3.3247e-18 1 

-3.44331 -0.0670592 -7.67963 
0.0621538 0.54517 -2.41864 
-4.9642e-18 5.64113e-18 1 

0.67947 0.604679 -1.00595 
-0.793751 0.359395 0.444461 
-1.21571e-17 -4.73252e-18 1 

-2.49738 -0.791497 -5.44492 
-0.74896 0.731392 4.3982 
1.12773e-18 -2.96389e-18 1 

-0.1925 -0.49169 -0.0623117 
0.508875 0.249033 -0.426098 
-1.16117e-18 6.53316e-18 1 

-1.01926 -0.456708 -0.629447 
-0.00970951 0.581393 1.13128 
-2.2355e-18 -8.856e-18 1 

-0.185264 0.318532 0.163747 
-0.331328 0.110577 0.392723 
1.6568e-17 -5.16764e-18 1 

-2.28683 0.460083 -1.13689 
-0.169408 0.458219 0.119736 
1.34163e-18 -1.56524e-18 1 

-1.51841 1.05501 -4.30479 
0.0641436 0.568234 2.62999 
6.08997e-18 -3.37098e-18 1 

-0.186418 0.170919 -0.866994 
0.0385431 -0.0934563 -0.303755 
1.23331e-18 3.04522e-19 1 

-1.80672 1.95252 -3.79457 
-0.399551 1.09884 0.6476 
-2.54026e-17 -4.0892e-18 1 

-0.802099 -0.322096 -3.0098 
-0.163442 0.211886 0.297844 
1.46847e-17 1.00717e-17 1 

-0.19241 -0.141565 0.275777 
-0.329133 -0.111902 0.257041 
8.96882e-18 1.73261e-18 1 

-0.243283 -0.441756 -1.59372 
0.645615 0.222897 -0.317129 
2.75205e-18 4.14287e-19 1 

-0.218024 0.0318587 13.2477 
-0.363612 0.581556 -14.1039 
-2.36888e-18 -3.3009e-19 1 

-0.466154 -0.637679 2.60242 
0.151975 0.300278 -2.91345 
5.72586e-19 -5.49683e-18 1 

-0.242427 -0.629749 0.525615 
0.233234 0.262198 -0.218412 
4.57756e-18 -1.41288e-17 1 

-0.844288 0.132232 -0.0153982 
-0.211069 0.134613 -0.172612 
-1.90086e-17 -1.39894e-17 1 

-0.192005 0.121908 0.947211 
-0.0706733 0.0314743 0.678232 
3.20101e-17 -9.47323e-18 1 

-0.423869 -0.0885828 -0.364653 
0.118257 0.107119 0.189537 
-7.26792e-18 -5.21096e-18 1 

-0.489666 -0.236347 -1.1095 
0.478196 0.433685 0.57865 
-6.35447e-18 -2.59888e-18 1 

-0.197791 -0.596454 24.2637 
0.402893 0.251983 10.1823 
-1.69747e-17 -8.39725e-18 1 

-1.66742 0.304379 6.31483 
-0.446379 0.546831 3.08146 
4.91741e-18 3.02333e-18 1 

-0.560747 0.229248 -2.22343 
-0.169133 0.169793 -1.81368 
9.6475e-18 -6.22419e-19 1 

-0.411674 -0.104235 0.0595789 
-0.00439712 0.185083 1.66187 
-1.04652e-17 -5.08119e-18 1 

-0.933216 0.872319 -7.18465 
-0.457965 0.748133 0.739157 
-4.76762e-18 5.67224e-18 1 

-0.944046 -0.221115 0.872648 
-0.137946 0.320682 0.417047 
9.76823e-18 -2.01394e-17 1 

-1.1705 -0.676831 -24.7387 
-0.352689 0.502998 -14.023 
-8.1341e-18 -1.79942e-18 1 

-0.403476 0.230223 -4.71346 
-0.0252896 0.174627 -8.84334 
1.18836e-17 8.29733e-18 1 

-0.155378 -1.43218 4.24781 
0.817768 1.17969 7.10822 
-9.71077e-18 7.50891e-19 1 

-4.8117 4.4458 -4.69917 
-1.13413 2.37636 -0.578197 
-6.0091e-18 3.51521e-18 1 

-0.609783 -3.69583 274.607 
0.0415271 1.11765 -35.7549 
1.14035e-19 3.07893e-18 1 

-0.827286 -0.711912 -0.4731 
0.325567 0.355151 -0.403357 
-7.8715e-18 2.71774e-17 1 

-0.587709 -1.81136 -2.55334 
0.618809 0.953626 2.68871 
2.94139e-19 4.29895e-18 1 

-0.648089 0.320382 20.7827 
-0.342693 0.638281 32.783 
7.7259e-18 -4.84192e-18 1 

-1.40669 -1.00798 -10.2827 
0.127592 0.456177 -0.0976937 
-2.43883e-18 -2.01301e-18 1 

-2.24816 -1.01011 0.0135773 
0.412098 0.562581 -0.314925 
-1.03996e-17 -1.99991e-18 1 

-0.13289 -0.219042 0.0603226 
-0.140684 0.0188736 -0.270338 
-1.20701e-17 1.33541e-17 1 

-0.464624 -0.551687 3.4526 
1.25701 0.782987 -2.06967 
1.94299e-18 5.32369e-18 1 

-0.680066 -0.1422 -6.5619 
0.222564 0.202843 0.234013 
1.58667e-17 -1.0826e-17 1 

-0.31375 -0.238035 0.391753 
0.0712608 -0.00649046 -0.853952 
-4.09208e-18 -2.00057e-18 1 

-0.445318 -0.128476 -0.761459 
-0.0419102 0.225007 -0.651887 
4.46529e-18 -4.72617e-18 1 

0.713791 1.19599 -0.181423 
-0.756994 0.252414 -1.40566 
-1.64813e-18 2.47219e-19 1 

-0.511137 -0.391481 0.319946 
0.161875 0.384794 -0.569424 
7.39062e-18 9.92817e-18 1 

-1.82328 -1.34913 -21.7018 
-0.190629 0.289355 -7.93042 
-2.7931e-18 4.85639e-18 1 

1.25486 -1.00583 0.111747 
1.04676 1.18335 0.0880928 
1.83307e-17 1.36796e-19 1 

-0.175133 -0.0152468 6.11406 
-0.235953 0.256534 -3.50792 
-6.53065e-18 -4.78237e-18 1 

-3.14879 -0.498821 3.11576 
-0.819831 0.415528 -0.950072 
-8.97156e-18 -2.04352e-18 1 

-0.431062 0.0670581 -0.0468725 
0.161999 0.147137 -0.326249 
4.78829e-18 7.25499e-18 1 

0.0357217 -0.0689497 -1.34048 
-0.250631 -0.201579 1.91288 
-1.1397e-18 2.43702e-18 1 

-1.03376 -1.06585 3.64381 
1.29023 1.09204 0.940656 
-5.73536e-18 -9.61737e-19 1 

-0.443962 -0.118129 0.367093 
0.0538458 0.103659 -0.981975 
5.04701e-18 8.88224e-18 1 

-0.710442 0.377399 1.97344 
-0.26034 0.102608 -0.828772 
-2.02669e-17 1.07405e-17 1 

-2.06904 0.566262 -4.25878 
-0.67071 0.608234 -2.02235 
-5.36654e-18 3.77953e-18 1 

-0.307535 -0.100401 -5.75225 
-0.303519 0.100889 -8.30925 
-7.96638e-18 -1.0835e-17 1 

-0.762024 -0.906112 -0.900734 
0.670141 0.576783 -0.900582 
1.2506e-17 6.97256e-18 1 

-0.37966 -0.0102059 -1.00503 
0.107879 0.00734979 -0.226072 
2.58748e-18 -1.28142e-17 1 

-0.638654 -2.078 1.04229 
-0.0590872 0.0675798 -1.18183 
1.20299e-17 1.02088e-18 1 

1.55634 -1.07697 0.117287 
0.907876 1.34589 0.316902 
2.67746e-17 8.87162e-18 1 

-0.499438 -0.186656 -3.65512 
0.532695 0.32571 -0.448825 
-5.41102e-18 6.36591e-19 1 

-0.135326 -0.794416 0.061333 
0.585235 0.10694 -0.165135 
7.68551e-18 1.07434e-17 1 

-4.86271 0.780129 8.93347 
1.39295 0.629949 0.500022 
1.04156e-17 2.02921e-17 1 

-0.176974 0.725689 -1.33924 
-0.497495 0.148759 -1.12269 
0 2.34901e-17 1 

-2.03696 -0.282302 -0.260365 
0.00231318 0.770953 -0.537214 
9.27008e-18 1.6928e-17 1 

-1.67676 0.081025 4.23132 
0.581972 0.625653 0.652459 
2.22256e-18 -3.59566e-18 1 

-1.34447 -1.55718 -1.31077 
0.0285718 0.425233 -0.881281 
-1.44326e-17 1.10249e-17 1 

-1.89234 0.330137 -9.14938 
-0.417899 0.848149 1.16715 
6.21004e-18 -1.64969e-17 1 

-0.591059 0.398538 -0.465575 
-0.0290763 0.0712573 -1.48073 
-3.03162e-18 1.57487e-17 1 

-0.215 -0.208271 -0.337971 
-0.0316895 -0.0548832 -0.564377 
-1.54758e-18 -3.53732e-18 1 

-1.92789 1.20232 0.0823072 
-0.725734 1.04814 0.826656 
-4.19492e-18 -5.09835e-18 1 

-0.55151 -0.248523 -0.777147 
0.355312 0.268212 -0.105295 
1.28796e-17 5.95896e-18 1 

-1.30711 2.24909 -3.69986 
0.0127905 0.394179 0.394626 
6.10586e-18 -1.33769e-17 1 

-0.0756071 -0.294283 0.673666 
0.286655 0.070881 1.26504 
4.18496e-20 -9.62542e-19 1 

-0.574969 -0.512525 -0.215192 
0.261628 0.191903 0.655654 
-8.81289e-18 1.04966e-17 1 

-0.421815 -0.137693 -1.65927 
0.0361447 0.516811 -0.906854 
-1.15377e-17 -1.9614e-18 1 

0.124755 -0.722307 -0.288662 
0.803408 0.27602 0.689483 
-2.90269e-18 7.12478e-18 1 

-0.914175 -1.30538 1.75938 
0.272672 0.633792 -0.406281 
6.10825e-18 5.73369e-18 1 

-0.244735 0.122107 -2.96228 
-0.196367 0.051753 1.63939 
1.22252e-17 -6.83651e-18 1 

-0.240971 -0.0426665 -0.827565 
0.215853 0.024308 -1.26525 
-5.76864e-18 -8.79177e-18 1 

-0.383107 -0.452391 2.13336 
0.442929 0.289769 -0.606894 
-1.31418e-18 -2.49002e-18 1 

0.153819 -0.750559 0.0130748 
0.705988 0.341434 -0.489194 
-6.23708e-18 1.4969e-17 1 

-1.2921 0.00893133 2.71386 
-0.363481 0.58073 0.261829 
2.20174e-17 1.05713e-17 1 

-0.454314 -0.905189 -1.04609 
0.394028 0.409947 -1.75204 
1.31244e-17 2.26431e-17 1 

-0.0378603 -0.464547 -0.555403 
0.412839 0.130201 -0.317183 
6.08109e-18 -8.46065e-18 1 

-1.68256 1.12187 -6.25141 
0.305036 0.422975 -1.09301 
9.07523e-18 -9.53271e-18 1 

-2.16804 -0.974011 1.06382 
-0.401782 0.481566 -3.62171 
9.69957e-18 1.42704e-17 1 

-0.813756 -0.350238 -1.08163 
-0.351776 0.261501 -0.987441 
-1.22064e-17 -4.48691e-19 1 

-0.831573 1.27405 -0.793525 
-0.21326 1.14616 0.338133 
-5.36883e-19 6.11944e-17 1 

-0.519393 0.864197 -23.6435 
0.493002 0.233615 3.35667 
2.95984e-18 -1.00506e-17 1 

-1.15446 -0.462721 -3.52991 
0.234481 0.559905 42.1012 
2.59153e-18 7.32945e-18 1 

-1.20575 1.80966 6.86832 
-0.286689 0.87049 -5.56407 
1.01355e-19 -4.35828e-18 1 

-0.562141 -0.0843843 -1.01178 
0.00846958 0.0132976 -1.80402 
-4.10711e-18 -8.4159e-18 1 

-1.27408 -0.56785 1.88734 
0.132952 0.581459 0.195235 
4.97055e-18 4.51233e-18 1 

-1.16068 -1.00813 -0.254944 
1.02074 0.775048 -0.688601 
7.19925e-18 9.36014e-18 1 

-3.98768 4.19387 -26.6025 
-0.712627 1.39037 0.915049 
-8.40784e-18 8.13662e-18 1 

-0.111034 0.749704 -0.0108854 
-0.623627 0.359094 -0.436956 
-4.62755e-19 1.33042e-17 1 

-0.392481 -1.35283 1.84143 
-0.0158907 0.368599 0.691009 
4.35767e-18 -8.04055e-17 1 

-0.491997 -0.175288 -0.0639526 
0.00480134 -0.0614623 0.279125 
-4.14316e-18 -8.36304e-18 1 

-2.23276 1.42231 0.0834923 
-1.46851 1.49511 1.39592 
-3.28897e-18 2.26117e-17 1 

-0.663139 -0.316969 0.426773 
0.341779 -0.0102788 0.715499 
5.35928e-18 4.16833e-18 1 

-3.15573 -0.174523 1.10085 
5.37553 0.601319 -6.1159 
-1.02489e-16 -5.95937e-18 1 

-0.627268 0.130314 -1.07077 
-0.200113 0.275139 -0.166171 