# vtk DataFile Version 3.0
Output file generated by Yade's KinematicLocalisationAnalyser
ASCII
DATASET UNSTRUCTURED_GRID

POINTS 13483 float
536.097 41.8429 -0.471711
648.559 84.1394 0.435116
113.808 6.12568 -0.433384
671.164 7.30242 -0.403783
466.291 8.68209 0.358134
303.587 38.3652 -0.467114
149.612 7.07017 0.467742
514.056 12.8436 0.207743
462.804 24.5798 -0.179692
615.252 18.7492 -0.578044
201.877 8.68895 -0.0895536
247.567 6.70124 -0.24142
565.798 57.9733 -0.145173
558.522 24.7778 -0.10808
130.809 17.1447 -0.476117
211.964 36.8816 -0.395967
208.873 13.1755 0.286634
278.108 9.90012 0.432663
326.751 35.2718 0.4504
487.274 8.72126 0.36632
395.503 42.1919 0.102189
523.722 49.0417 0.314325
672.342 55.4266 -0.50168
601.367 58.3487 -0.461487
432.734 17.6438 0.296524
231.121 46.4889 0.151491
456.498 32.6107 -0.491644
527.302 20.0386 0.307722
41.7475 16.6651 -0.455912
611.72 50.5209 -0.352276
451.586 7.04847 0.560632
15.841 22.9654 0.284872
662.817 85.4715 0.241385
462.967 2.16963 0.658077
74.2039 46.6701 -0.104676
476.042 38.4086 0.332606
485.523 22.7797 -0.500067
330.73 22.2821 0.195207
486.341 36.2527 -0.350776
336.574 39.2603 -0.387757
232.088 14.461 0.312456
411.125 43.7025 -0.0790674
583.779 12.4267 -0.16949
184.456 6.35902 -0.373748
52.1418 7.27334 -0.0975735
64.2323 8.96354 -0.228147
590.341 10.6491 0.57466
22.2396 12.251 -0.325639
524.192 65.9831 0.37495
581.955 50.2608 0.326941
165.212 33.693 -0.293492
644.536 67.3422 0.124736
32.8504 29.9726 0.118799
495.3 3.80731 0.581144
135.594 7.49404 -0.517131
527.96 40.4445 0.372709
465.219 30.9916 0.152789
167.796 0.955414 0.28456
31.0567 2.31579 -0.366155
336.101 18.1199 0.260866
535.806 77.737 0.132021
435.005 42.8285 -0.178681
381.449 1.03756 0.209105
598.882 13.1325 0.697773
24.499 45.5339 -0.260045
246.834 32.1104 0.302817
613.584 11.2505 -0.336513
585.648 86.3651 -0.358806
399.071 9.31306 -0.625986
513.084 6.02152 -0.372844
632.103 40.8592 0.437275
124.689 7.87154 0.256709
460.184 32.6848 -0.157148
448.956 17.3271 0.10124
284.173 17.1848 -0.359843
19.5173 13.9995 0.267852
657.27 64.8152 -0.301097
322.422 40.6018 -0.296184
579.698 44.9665 0.356221
594.089 22.0162 0.216137
662.971 18.2616 -0.198109
437.991 46.0639 0.174337
88.2587 42.5678 -0.167659
590.573 67.1423 -0.226188
563.788 67.1699 0.0969616
677.587 61.8937 -0.108141
658.475 0.762547 0.565191
280.834 29.6518 0.409166
561.166 6.23667 -0.157435
23.364 5.94061 0.650118
128.138 41.4398 0.137686
479.894 17.4124 0.21228
654.978 52.9985 0.470435
187.749 30.5437 0.225752
42.5744 37.6323 0.266843
461.818 1.14442 0.114215
227.354 8.65082 -0.456019
628.472 76.957 -0.258711
647.96 50.7011 0.221178
348.034 24.5095 -0.256426
156.632 27.5576 0.424767
495.577 60.574 -0.441156
365.651 16.5583 -0.524036
395.751 35.6101 0.106262
363.563 6.70368 0.439205
500.773 20.4927 -0.143116
676.719 11.6222 -0.34167
76.6564 41.7806 0.3893
323.641 5.03839 -0.236873
509.238 13.7441 -0.460481
347.734 50.8581 -0.485102
23.5586 25.9735 0.468525
28.9769 5.74654 0.306805
508.502 52.7884 0.414822
467.108 29.7747 0.161287
22.7777 40.07 0.463528
89.4701 33.4324 0.223368
314.238 16.5889 0.307916
539.325 23.4474 0.151229
447.334 48.7924 -0.323116
627.4 7.14497 -0.466495
618.971 6.40209 0.266623
374.065 39.9643 -0.102027
558.608 43.1183 0.122461
230.785 17.462 0.520851
319.161 3.93808 0.458485
98.3913 33.0834 0.30673
111.29 25.1355 0.261071
491.818 57.3357 0.0806479
296.767 19.2317 0.479316
611.153 66.0612 -0.110221
591.76 84.4999 0.00335636
451.297 27.1254 -0.431796
657.148 34.3206 0.328869
408.659 28.2261 0.251444
269.58 24.6319 -0.310551
585.51 66.4427 0.280716
270.204 31.475 0.397072
522.666 12.4622 0.249782
324.017 37.5553 0.192302
474.516 13.3896 0.61863
353.402 34.9454 -0.0871012
411.409 20.4524 0.0971182
309.686 44.4461 -0.451097
183.926 31.1057 0.112711
652.756 82.5306 -0.143191
674.909 13.6879 -0.327937
5.84437 12.9199 -0.428724
413.679 25.3333 -0.395347
36.6015 24.4137 -0.103389
364.019 35.1346 -0.474555
381.383 27.3537 -0.278922
71.0697 11.9624 -0.530416
49.3694 36.272 -0.470912
219.06 13.6394 0.466656
534.487 69.8044 -0.409329
523.737 21.4746 -0.543717
72.0369 21.2274 0.53342
602.363 62.6979 0.425878
648.599 17.783 -0.486099
579.47 78.76 -0.452282
598.308 2.18873 -0.559567
503.714 40.5188 -0.405296
524.403 50.5574 0.59173
477.153 23.6862 -0.371812
668.689 5.68291 0.441433
217.164 24.9977 -0.120151
124.692 37.349 -0.188351
240.418 6.92083 -0.394349
90.1129 4.71827 0.286959
60.8473 10.9114 0.3144
269.392 37.8532 -0.293667
15.9203 24.7178 -0.368771
510.443 32.5804 0.513371
528.938 66.9217 0.195737
439.238 23.6144 -0.421904
662.776 66.6149 0.363969
392.554 8.80788 -0.134801
417.756 40.7578 0.390812
499.589 7.71839 -0.226899
20.8459 24.9975 -0.449101
524.276 4.66925 0.578179
504.235 13.4155 0.458474
200.274 11.2425 0.510068
408.438 16.9989 0.199525
303.58 6.31667 0.394757
375.298 20.1024 -0.341599
632.603 66.5226 -0.117663
187.268 26.7511 0.463685
653.043 8.72204 0.363456
636.04 65.862 -0.306262
371.347 10.9992 -0.19192
610.14 3.63065 0.522906
539.317 38.0729 -0.454745
627.853 23.3233 -0.35515
415.961 49.3863 -0.306661
469.258 13.7315 0.53722
441.394 55.6148 0.239238
426.702 11.036 -0.136012
583.114 80.2826 0.113536
575.683 69.7726 -0.293467
186.548 40.8232 -0.34678
660.86 18.0509 -0.191754
525.623 49.7002 -0.294604
10.5263 18.9738 0.161892
394.223 27.8707 0.359223
182.378 23.4858 -0.395108
89.6665 43.8296 0.259052
655.399 46.7076 0.411936
574.113 80.7499 0.22388
310.913 26.9421 0.340703
494.249 17.3866 0.350883
79.0963 47.5623 -0.17157
240.868 26.8857 -0.466681
512.081 37.7658 0.425805
460.149 19.4792 0.421659
256.366 0.913732 -0.35864
501.015 67.0511 -0.387045
485.887 56.385 -0.624376
456.742 45.4707 0.419966
472.321 2.09282 -0.657364
602.859 28.6882 0.523816
174.3 12.73 -0.241311
465.127 51.5981 -0.413863
512.098 66.3515 0.151567
69.7601 0.968609 0.307983
245.477 4.93725 0.168431
674.476 17.2226 -0.227113
662.571 20.2676 -0.576357
678.222 22.6952 -0.509102
296.31 8.57633 -0.242949
631.853 31.2487 -0.440915
396.787 47.3625 0.351194
429.847 0.811118 0.58831
568.937 68.4642 -0.420051
24.7394 31.3807 -0.311515
324.078 42.9894 -0.640078
246.393 3.10238 0.434585
664.679 82.2314 -0.164339
613.71 79.786 -0.188792
280.518 11.3728 0.265992
579.892 57.7543 0.0836677
508.251 6.73071 0.3339
501.723 15.6747 -0.579423
92.2785 18.9718 -0.510909
296.096 1.04278 -0.232837
334.488 2.25313 -0.372468
13.295 7.43739 0.455974
4.87489 34.0392 0.158605
157.515 18.9257 0.350273
65.4314 44.2626 -0.234391
62.996 31.1042 0.294432
408.343 15.2895 -0.443759
356.244 38.4326 -0.468206
643.208 69.2038 0.107169
18.8947 4.14158 -0.291465
67.4301 7.27436 0.186512
541.304 63.7388 -0.137161
287.636 0.956789 0.403678
354.408 18.1231 -0.0789221
229.932 4.69641 -0.365062
571.293 46.2821 0.197663
432.108 8.66879 0.485596
632.574 27.9672 0.37371
555.865 47.0768 0.291988
583.453 38.0565 0.0934465
405.144 32.4155 0.484802
99.7779 47.5557 -0.31671
492.287 62.729 -0.101694
629.432 12.7947 -0.341232
232.494 32.5334 -0.25041
30.6352 18.7615 -0.158502
328.272 14.2379 0.501908
104.26 42.0131 -0.462616
262.106 44.2226 -0.23147
412.231 2.26911 -0.250843
658.049 56.6998 -0.394583
593.004 2.7236 -0.654046
324.097 3.52457 0.592073
292.913 29.2205 -0.147103
440.287 52.4917 0.20147
78.3373 7.99936 0.484302
192.583 46.8452 -0.397712
649.775 50.8345 -0.359775
470.801 63.6577 0.067122
195.047 42.7284 0.290361
156.003 44.2562 -0.192772
677.435 50.0685 -0.39258
676.696 13.5151 -0.571251
553.328 4.94004 -0.543165
186.152 24.7795 -0.0845013
502.188 45.1446 0.106977
505.891 43.6721 0.269659
397.096 5.92767 -0.15394
456.819 0.926526 0.377746
638.692 76.4853 0.475165
82.7708 33.0724 0.225268
576.283 37.0999 0.43405
268.03 16.1168 -0.323121
8.95504 2.40742 -0.314217
122.929 38.6349 -0.185058
65.183 25.0236 -0.498294
607.81 58.8679 0.338847
670.943 85.1573 -0.174664
181.419 28.5895 -0.178156
671.227 16.9579 0.491245
43.6002 39.8128 -0.268086
88.2559 31.8619 0.14957
567.123 25.0486 -0.444519
400.616 20.1906 -0.546664
483.861 23.2205 0.180226
233.081 30.6528 0.190279
556.345 12.8645 -0.659579
678.444 11.5228 0.574654
27.636 33.0314 -0.270752
264.014 7.68666 0.195656
217.117 15.5861 0.305423
1.10201 38.2985 0.154664
220.153 14.8398 0.402055
206.512 11.0839 -0.117393
208.699 27.0027 0.28579
128.909 28.6624 -0.132527
505.828 26.3524 -0.339984
162.538 14.397 0.34075
660.608 82.7048 0.217127
169.72 3.88058 -0.50951
45.9986 41.3046 -0.38358
623.595 70.5474 0.460765
275.951 33.0068 0.391779
585.49 48.5554 -0.496516
663.535 49.9242 0.544525
294.442 9.26334 -0.0961356
624.921 42.7745 0.404283
321.13 2.51734 -0.439109
401.604 27.5779 -0.358613
587.474 32.6465 -0.528591
101.892 12.12 0.543645
459.015 3.7328 -0.514648
637.18 27.6435 -0.249788
85.2265 7.72454 -0.367898
275.63 15.0829 0.188883
409.472 12.3516 -0.192018
669.602 2.89745 -0.541172
386.231 2.01345 -0.547327
171.703 40.9974 0.341396
632.295 10.9838 -0.549656
126.256 38.8449 -0.201462
257.106 32.7036 -0.391919
388.813 22.5645 0.200162
524.96 14.423 -0.356341
375.699 10.1403 -0.555118
436.779 32.3634 -0.431887
648.962 85.6404 0.394759
45.4778 12.3371 0.130925
293.488 43.4576 -0.300856
369.939 28.7098 -0.380523
397.083 21.4788 -0.272705
476.818 53.1957 0.494709
640.232 69.2867 -0.192847
580.495 68.4173 -0.343975
219.555 35.5839 0.380117
13.6851 35.3723 0.151081
577.627 70.4131 0.115423
479.329 60.4775 -0.442363
224.767 40.1797 -0.0978156
590.45 54.6407 -0.11478
146.983 9.48496 0.212158
356.526 25.0806 0.283691
442.056 53.5207 0.109085
401.336 21.6864 0.224006
645.156 85.9092 -0.295692
412.975 4.61676 0.629502
47.9201 26.7617 -0.285885
446.322 39.8263 0.343955
420.29 44.9165 -0.422801
655.762 66.1018 -0.223224
623.051 45.6341 0.275794
501.933 31.4027 -0.133871
648.269 74.367 -0.447523
287.25 2.26127 -0.479874
370.402 31.2945 -0.470961
26.2651 40.7495 0.326817
628.719 43.8133 -0.146971
546.589 32.042 -0.499124
442.135 0.742209 0.528459
121.869 4.73127 -0.346195
412.982 49.1435 0.14605
11.3691 0.901519 0.362657
667.203 9.02643 -0.103969
361.01 42.2681 0.360187
[...]
POINT_DATA 13483
TENSORS Strain_matrix float
-1.32992 -0.304907 1.08528 
0.661794 0.607704 -1.67157 
-7.56348e-18 6.42331e-18 1 

-0.236927 -0.150081 -2.41658 
0.173968 0.242747 5.7725 
4.13993e-18 -1.93854e-18 1 

-0.135862 -0.103561 -0.0826611 
0.0447983 -0.0163383 0.622971 
-1.52947e-17 -2.44866e-18 1 

-0.943605 0.503704 0.0328897 
-0.307253 0.318068 -0.247405 
-6.10932e-18 8.12997e-18 1 

-0.621474 -0.274069 0.677766 
0.137832 0.0822543 -0.475144 
6.62715e-18 2.33777e-17 1 

-0.130352 0.0363692 -2.82126 
-0.0853999 0.0546508 2.09544 
-1.6978e-20 1.61432e-18 1 

-0.163995 -0.013401 -0.200918 
0.0170665 -0.0401479 -0.686664 
4.10068e-18 4.27607e-18 1 

-0.283975 0.192785 -0.307139 
-0.159519 -0.0445317 0.204589 
2.49427e-17 -1.36754e-18 1 

-0.910923 -1.06373 2.9885 
0.00744888 0.696785 -0.0835146 
4.26569e-18 -1.46482e-18 1 

-0.440859 0.087474 -2.60504 
-0.324248 0.0895208 2.83689 
1.56686e-17 -2.6343e-18 1 

-0.112777 0.00722883 -0.175662 
-0.0185855 -0.075391 0.0957026 
-1.5355e-17 3.07447e-18 1 

-0.154347 0.0555489 0.0618634 
-0.0495726 0.0167003 0.24637 
4.33499e-18 5.50453e-18 1 

-0.331073 -0.277108 2.74939 
0.622365 0.268415 -0.751283 
-8.37439e-18 3.50927e-18 1 

-0.376988 -0.0392693 -0.51943 
0.0598653 0.155647 -0.650241 
-1.71252e-17 1.21532e-17 1 

-0.127229 0.0137083 -0.0392838 
-0.00627404 -0.0352188 0.671627 
3.37984e-18 7.45482e-18 1 

-0.260152 -0.0402189 0.0959156 
0.118643 0.139813 -1.55961 
2.51621e-18 -2.61933e-18 1 

-0.0860941 -0.0470126 -0.040558 
0.0265514 -0.106632 -0.0550508 
1.71747e-18 1.03525e-17 1 

-0.21982 -0.0370289 0.016918 
0.0643523 -0.0701449 0.00807662 
-9.05042e-19 -3.1224e-18 1 

-0.340255 0.0844229 -1.58711 
0.1793 0.295783 -0.371746 
3.50774e-18 -1.57205e-18 1 

-0.156338 -0.0380364 0.314399 
-0.0216934 -0.130017 0.0365157 
6.44039e-18 1.13817e-17 1 

0.0440681 -0.0394301 -2.59445 
0.18297 -0.0781079 0.807855 
-1.17259e-17 -1.14285e-17 1 

0.0368358 0.200929 0.107624 
-0.692208 0.176041 0.521653 
1.12048e-18 -3.36144e-18 1 

-0.841587 0.147789 -2.7137 
-0.436345 0.420003 -0.29329 
-1.74175e-18 4.88913e-18 1 

-0.493847 0.392784 1.32242 
0.330287 0.0997548 -12.7653 
4.99784e-18 -2.88342e-18 1 

-0.630377 -0.838752 2.6314 
-0.287128 0.00404544 0.319758 
9.38842e-18 -7.12917e-18 1 

-0.12567 -0.192831 -0.124368 
0.238536 0.0836494 0.15821 
0 3.02191e-17 1 

-1.20564 -0.550974 -1.80835 
-0.123036 0.418935 2.77003 
1.38459e-18 9.16765e-18 1 

-0.607421 -0.0428412 -0.41869 
0.646461 0.142958 0.0386757 
-8.13077e-18 -1.76797e-17 1 

-0.145577 0.0488456 -1.44278 
0.0111067 -0.0759734 -1.23448 
-3.99823e-18 -2.55713e-18 1 

-1.43017 0.175868 -2.8713 
0.0913841 0.389484 -0.0811767 
-5.25315e-18 1.43891e-17 1 

-0.427511 0.272546 -0.14113 
-0.345311 -0.171622 -0.158884 
3.58605e-18 -8.60652e-18 1 

-0.0751306 0.327704 -0.760886 
-0.278804 -0.0589896 0.0708721 
1.26138e-17 -3.52443e-18 1 

-0.841469 0.531883 -18.6123 
0.654777 0.381516 3.2567 
-3.47804e-18 5.94166e-18 1 

-0.366607 0.0175271 0.76165 
-0.0151812 0.136458 -1.83593 
-2.87798e-18 -1.29622e-17 1 

-0.0989028 -0.0310611 0.0736753 
0.00289526 0.00226056 -0.116339 
1.13745e-17 -7.13031e-18 1 

-0.670891 -0.432077 -0.463745 
-0.415185 0.267055 -1.15573 
3.23075e-18 1.22488e-17 1 

-0.794832 -0.311748 -0.744087 
0.233883 0.533089 -0.464085 
-8.02808e-18 -6.15229e-18 1 

0.00849818 0.130176 0.237017 
-0.0690963 -0.0900889 0.425033 
1.39953e-17 -1.4503e-17 1 

-0.347148 -0.0434847 -1.66293 
0.327378 0.174148 1.23203 
3.65576e-18 -5.63854e-18 1 

-0.803632 0.180328 3.95433 
0.300392 0.346016 -0.735755 
-1.63714e-18 4.59792e-18 1 

-0.25274 -0.135506 -0.35821 
-0.0271035 0.0585523 -0.581936 
6.80357e-18 3.92278e-18 1 

-0.376395 0.0121268 -0.242313 
-0.548259 0.211381 1.62249 
1.21356e-18 -6.8146e-18 1 

-0.653751 0.0233691 -0.336699 
-0.495209 0.238904 -0.550434 
-1.07656e-17 8.86578e-18 1 

-0.164448 0.045468 -0.348522 
-0.0521967 -0.024714 -0.808486 
1.27634e-18 5.05483e-18 1 

-0.162029 0.109587 0.00783137 
-0.163232 -0.0216512 0.0580959 
1.08374e-17 1.10476e-18 1 

-0.151823 -0.125407 0.129847 
-0.00860372 -0.0664561 0.0299273 
9.33414e-18 -6.40851e-18 1 

-2.89516 0.537944 0.937933 
0.153728 0.430783 0.264721 
8.61836e-18 9.54506e-18 1 

-0.069836 -0.00821698 -0.0729479 
0.0807763 -0.146907 -0.104737 
2.06726e-18 -6.04275e-18 1 

-0.429139 -0.211568 52.8463 
0.921382 1.35681 5.33949 
-3.62806e-18 1.83235e-17 1 

-0.546711 0.767082 1.96873 
-0.202041 0.195127 -0.189448 
-7.40407e-18 -2.57086e-18 1 

0.0221728 -0.2104 -0.239735 
0.113828 -0.0382348 -0.647171 
-5.88058e-18 7.68873e-18 1 

-2.9667 -1.46246 1.69707 
-0.0989852 0.621222 -0.322027 
8.46421e-18 -6.15579e-18 1 

-0.0843444 -0.0509965 -0.13102 
0.0216095 -0.00662534 -0.0472062 
1.05333e-17 8.97905e-19 1 

-1.02527 -0.63211 1.64778 
-0.0985688 0.22149 0.489888 
1.1349e-17 -1.0366e-17 1 

-0.158553 -0.0105046 0.298081 
-0.0519785 -0.0944276 0.0164802 
6.8203e-18 1.63272e-17 1 

-0.504418 -0.322031 5.80808 
0.269086 0.271871 -1.69354 
-4.05165e-19 -7.9381e-18 1 

-0.00160802 0.152414 -1.32347 
0.0211334 0.0070309 0.29841 
-2.3016e-17 -2.92962e-18 1 

-0.125612 0.167486 0.0513625 
0.00500041 -0.0509315 0.192689 
1.66821e-18 3.61824e-17 1 

-0.0687324 0.00889711 -0.312448 
-0.0699072 -0.146971 -0.692055 
-5.72209e-18 -1.82145e-17 1 

-0.0947963 0.113859 -0.128917 
-0.139222 -0.029499 0.0579993 
4.54085e-18 6.78063e-18 1 

-0.8065 1.72537 4.64164 
-0.0428577 0.939631 1.34398 
-2.11929e-19 1.86368e-18 1 

-0.81146 0.399357 -0.902049 
-0.0781018 0.485242 -0.270217 
-4.40196e-18 1.14011e-18 1 

-0.148829 -0.166415 -0.287785 
-0.0267995 -0.0556158 -0.0932204 
-4.59268e-18 1.5727e-17 1 

-0.891368 0.0862434 3.89157 
-0.0203629 0.338905 -6.0879 
2.43651e-18 2.16318e-18 1 

-0.238035 0.370238 -0.772939 
-0.285178 0.246705 -1.32616 
4.29895e-18 1.47393e-17 1 

-0.133543 -0.0822025 -0.00836156 
0.00505138 0.0157414 0.569978 
-4.22766e-18 1.38448e-17 1 

-0.947624 0.167181 0.339783 
-0.477176 0.263299 0.0922701 
1.32291e-17 -7.76587e-18 1 

-0.490486 0.658058 -7.15305 
-0.0113663 1.28151 -7.45635 
4.94193e-19 -4.88671e-19 1 

-0.259708 -0.0138739 1.98202 
-0.0941084 -0.0435024 0.384521 
1.29543e-17 -1.24549e-17 1 

-0.554545 0.0411099 0.233809 
-0.822442 0.299659 0.8738 
-2.3902e-18 -4.83709e-18 1 

-1.2742 0.20312 -2.30216 
0.0277293 0.481725 1.58178 
4.96599e-18 3.00969e-19 1 

-0.120039 0.0324578 -0.135468 
-0.0141911 -0.0265585 -0.0125436 
-1.48541e-17 6.28086e-18 1 

-0.572664 -0.280179 -1.94179 
0.249501 0.20243 2.37167 
3.3404e-18 -4.39935e-18 1 

-0.505549 -0.110365 0.051012 
-0.232707 0.219934 0.550276 
1.83733e-18 0 1 

-0.130772 0.0512492 -0.963633 
0.0244775 -0.012261 -0.0455929 
7.38086e-18 -5.91883e-18 1 

-0.114675 -0.0392327 0.0893174 
0.0422786 -0.0493787 0.208262 
1.2288e-17 2.29847e-18 1 

-1.79975 -0.833841 -4.73225 
0.0972308 0.394996 0.306638 
-5.84648e-18 9.76444e-18 1 

-0.0341594 -0.09358 0.0251589 
0.0725723 -0.0541388 0.0450877 
-1.25838e-17 8.57764e-18 1 

-0.920721 -0.358178 3.78359 
0.307176 0.644272 2.01446 
-1.03219e-18 6.51156e-18 1 

-1.18079 1.32981 2.45912 
-0.590906 0.700764 0.880315 
-2.05537e-17 -3.75068e-19 1 

-0.796975 -0.108671 0.110826 
0.0441951 0.211393 0.379635 
-1.03813e-17 -1.58686e-17 1 

-1.40218 -1.09181 4.98889 
0.0434589 0.483238 0.186672 
-1.03861e-18 -3.03594e-18 1 

-0.250362 -0.152162 0.18141 
0.174938 0.135921 0.438051 
7.42875e-18 -1.33485e-18 1 

-0.654475 0.696727 -1.92632 
-1.10087 0.850458 1.32797 
-5.27352e-18 -1.00034e-17 1 

-0.213488 -0.339859 -1.48021 
0.535504 0.20055 1.15939 
1.71477e-17 9.80635e-18 1 

-1.1261 -0.704795 -0.994554 
-0.124886 0.505335 0.828039 
6.35136e-18 2.03091e-17 1 

-1.33519 0.0924337 -0.871361 
0.0895702 0.564435 -1.92782 
6.18452e-18 -2.71989e-17 1 

-0.297845 0.246206 -0.303432 
-0.159617 0.089434 -0.392286 
1.86939e-18 -3.8677e-18 1 

-1.90801 -3.00079 -2.12157 
0.905611 1.73177 0.54065 
-8.66916e-18 -2.88461e-17 1 

-0.196817 0.00938263 8.96523 
-0.0113459 0.0167897 9.19343 
2.83984e-18 -4.2974e-18 1 

-0.0765782 -0.335739 -0.0249491 
0.248997 -0.0208784 0.25414 
-3.42468e-18 1.77165e-17 1 

-1.14509 -1.1346 0.0991802 
0.00338702 0.518971 -0.666852 
5.43535e-18 -5.14651e-18 1 

-1.10905 -0.208443 2.02515 
0.101699 0.498705 -1.90176 
7.65566e-18 -7.18984e-19 1 

-0.216681 -0.0843248 0.586373 
0.112321 0.0715661 -0.181493 
1.5324e-17 4.06874e-18 1 

-0.113684 0.172619 2.28312 
0.11641 0.0334997 -0.0982402 
-5.7832e-18 -4.41626e-18 1 

-0.265339 0.435726 -0.17812 
0.00217409 0.165611 -0.124581 
3.28721e-18 1.12402e-17 1 

-0.194038 0.0118005 -0.127568 
0.0081375 -0.000621835 -0.299178 
-6.00152e-18 -6.34446e-18 1 

-0.278591 -1.92924 1.75489 
0.523145 1.40501 0.125883 
-2.21926e-18 4.83702e-18 1 

-0.553021 0.305243 -0.974806 
0.177577 0.313231 0.420319 
-1.59354e-18 -3.48587e-18 1 

-0.239055 0.0479865 1.28668 
-0.114595 0.111212 2.00722 
2.03768e-17 1.35845e-17 1 

-0.128539 -0.0803099 -0.806996 
0.0393322 0.0485822 -0.878389 
-5.19542e-18 1.31651e-17 1 

-0.401584 -0.32636 6.17376 
0.643354 0.347781 -1.08369 
-9.93658e-19 5.56318e-18 1 

-0.19351 0.000944125 1.04648 
-0.0678788 0.0679703 -0.111665 
4.65395e-18 1.06164e-18 1 

-0.664799 0.0331275 -2.76877 
0.117849 0.529579 -0.103454 
-3.57452e-18 -6.264e-18 1 

-0.34536 -0.216214 0.281674 
-0.131712 -0.0464605 -0.378833 
1.51297e-17 -3.04701e-17 1 

-0.171274 0.0787833 0.186686 
0.0543072 -0.129094 0.0889833 
-6.02556e-18 1.50318e-17 1 

-1.11162 0.398722 -0.171514 
-0.378413 0.24072 -0.169506 
1.22827e-17 1.89948e-17 1 

-0.107757 -0.149517 1.50947 
0.053859 0.0423365 -0.896999 
-6.27783e-18 -6.34917e-18 1 

-0.190084 0.0796826 0.0949138 
0.0992403 -0.113136 -0.0635267 
1.01252e-17 8.20508e-18 1 

-1.03295 1.0345 -1.51584 
-0.957281 0.669579 -2.61298 
1.77488e-18 6.54144e-19 1 

-0.269486 -0.333851 15.0965 
-0.0954787 0.940588 -14.5158 
-3.3444e-18 -2.77178e-17 1 

-0.0987451 0.0102721 -0.505048 
-0.0408351 -0.0569119 0.0194434 
2.90655e-18 -5.05887e-18 1 

-0.113991 0.0939855 0.0136195 
-0.124628 -0.113616 0.0954265 
-3.52274e-18 6.90733e-20 1 

-0.71949 0.533593 1.32636 
-0.0442094 0.27525 0.983934 
1.12673e-17 1.08737e-19 1 

-0.590525 0.464079 -0.325574 
0.398296 0.12091 -2.08444 
-3.25311e-18 7.12688e-18 1 

-0.160728 -0.0477287 0.567983 
-0.193427 0.0675188 -1.87551 
2.1546e-18 -4.65393e-18 1 

-0.191264 -0.148682 0.173703 
-0.14423 0.0176822 -0.0477398 
8.61562e-18 -6.52698e-18 1 

-0.196462 -0.0664574 0.156255 
0.0672797 0.0667963 0.00601356 
6.92615e-18 -4.24342e-18 1 

-0.78347 -0.322122 0.720651 
0.545967 0.0982646 1.40667 
1.61316e-17 -1.22908e-17 1 

-0.19495 0.124175 -0.176476 
0.126161 -0.058211 -2.4141 
7.38131e-18 -6.90252e-18 1 

-0.374644 0.129623 -0.0636961 
-0.101544 -0.208217 -0.462662 
2.29116e-17 7.48134e-18 1 

-0.710762 0.227626 -0.625854 
-0.0919668 0.14774 -0.178096 
9.00377e-18 -3.30138e-18 1 

-0.144065 -0.00690689 0.0218345 
-0.0364594 -0.0112175 0.0250755 
8.25745e-19 -1.07347e-18 1 

-0.520782 -0.210533 -0.185419 
0.465825 0.341431 -0.0416522 
-1.04136e-18 5.46716e-18 1 

-0.184807 0.0441295 0.295544 
0.00958293 0.0590187 2.7674 
-4.2766e-18 2.38946e-18 1 

-0.144503 -0.00161775 0.0704623 
-0.0653239 -0.112186 0.345141 
-2.09941e-17 -4.23582e-18 1 

-0.178387 -0.0234194 0.318097 
-0.0499672 0.0799407 0.036624 
-1.34719e-17 -7.80271e-18 1 

-0.270675 0.0554239 -0.0854504 
0.103407 0.140018 -0.404469 
-5.72399e-18 4.93351e-19 1 

-0.0466957 -0.669178 -0.345575 
0.524205 0.194046 0.598592 
-1.03378e-17 1.54428e-18 1 

-0.339854 -0.0611806 -0.509241 
0.261376 0.141377 0.108323 
9.27793e-18 -1.22027e-17 1 

-2.4254 0.848857 3.1967 
0.128479 0.790925 -0.483818 
1.25905e-18 -1.35978e-18 1 

0.427773 0.553246 -1.11727 
-0.759632 0.122265 -0.872668 
-2.54108e-18 6.87585e-18 1 

-0.492997 0.23933 3.18023 
-0.319498 0.491848 2.13122 
-9.46863e-18 2.75451e-18 1 

-0.502534 -0.33339 -1.56906 
0.243097 0.20237 -1.55639 
2.78111e-18 4.15027e-18 1 

-0.14592 -0.170579 -3.68805 
0.0683362 0.273639 -0.0728747 
-8.54599e-18 1.25359e-18 1 

-0.127276 0.0317588 0.213448 
-0.109889 0.0474323 0.211653 
4.84666e-18 -1.29244e-18 1 

-1.75357 0.645128 -1.49153 
-0.357157 0.664097 -0.374757 
-1.28883e-17 1.64417e-17 1 

-0.18439 -0.0756019 0.0391701 
0.188178 0.129277 0.250606 
-7.72845e-18 -1.83497e-19 1 

-0.189948 0.0268939 0.0660528 
0.0466385 -0.127214 0.457464 
-4.41305e-18 -1.39747e-17 1 

-0.12473 -0.0198399 -0.0973992 
0.125879 0.0294818 -0.764946 
1.16526e-17 -9.75902e-18 1 

-0.491287 0.0275451 -0.802539 
-0.16404 0.112119 -0.815987 
-6.21496e-18 -7.4435e-18 1 

-0.102493 -0.0637567 -0.267684 
-0.352078 -0.034321 0.195706 
8.92586e-20 -1.26003e-17 1 

-0.0772044 -0.49885 -0.0116651 
0.550396 0.475092 0.243118 
1.66076e-17 -8.01797e-18 1 

-0.105304 0.184834 -1.48854 
-0.108044 -0.00736502 -0.251819 
3.69613e-18 -1.39855e-17 1 

-0.222154 -0.21241 0.820125 
0.136004 0.218603 -0.755136 
-8.5178e-18 1.91105e-19 1 

-0.134168 -0.562292 0.682511 
0.161857 0.218143 -0.311633 
-2.31695e-18 5.79237e-19 1 

-0.574624 0.286979 0.666397 
-0.385805 0.299061 -0.506838 
8.93021e-18 -1.19992e-18 1 

-0.141586 0.110594 0.276169 
-0.112826 -0.053137 0.250986 
4.99543e-18 -2.19894e-18 1 

-0.0218433 0.0417444 1.04786 
-0.11389 -0.0788005 -2.86293 
-3.24589e-18 -1.02693e-17 1 

-0.0976628 0.0176542 0.105851 
-0.0204201 -0.0339733 0.184287 
2.39951e-18 -5.94793e-18 1 

-0.124893 0.0500046 2.94267 
0.0412922 0.0494543 1.32829 
4.28829e-19 2.49824e-18 1 

-0.233066 0.443747 0.0794878 
-0.0221534 0.0770657 -0.00387328 
-3.87135e-18 -1.33722e-18 1 

-0.171746 0.00389664 0.24362 
-0.0191664 -0.00646885 -0.103657 
1.6197e-17 -5.1493e-18 1 

-0.207692 -0.0185598 -2.3656 
0.0202709 0.152143 -6.49483 
-1.76365e-18 -2.70373e-18 1 

-0.1194 0.0327134 -0.635891 
-0.0454913 -0.0350237 0.347747 
8.91173e-18 -5.65057e-18 1 

-0.558785 -0.225995 -6.01181 
-0.372697 0.249256 2.66107 
1.86597e-18 -9.3743e-18 1 

-0.816495 -0.00771733 -2.81663 
-0.726233 0.369528 -0.991606 
-6.67143e-18 -8.01517e-18 1 

-0.181169 0.0154905 -2.18148 
-0.0235417 0.130935 -1.87708 
1.2209e-18 -4.79879e-18 1 

-0.338756 -1.10271 5.11429 
1.12084 1.28695 6.46111 
2.12749e-18 1.08054e-17 1 

-2.01417 3.92778 9.83319 
-0.381521 1.45888 4.20309 
5.55399e-18 -5.64975e-18 1 

-0.603925 0.160045 53.023 
0.18805 0.189415 20.2158 
-8.77786e-19 3.64783e-18 1 

-0.671775 -0.646988 1.09054 
0.445207 0.234011 -0.606009 
1.12148e-17 0 1 

-0.565534 -1.05379 0.557347 
0.463333 0.705606 3.85355 
-9.2189e-18 -2.15857e-18 1 

-0.809441 -0.457832 -20.8317 
0.0062555 0.270836 -44.3253 
-6.01388e-19 -5.13182e-18 1 

-0.867889 -1.26294 -4.82104 
-0.0792625 0.243536 1.44819 
6.78412e-18 3.85522e-18 1 

-1.24197 -0.188973 0.306175 
0.108015 0.277684 -0.596515 
2.81914e-18 1.85258e-17 1 

-0.0562254 -0.00896017 -0.0292244 
-0.0895371 -0.0357688 0.0639969 
8.41349e-18 -4.61013e-18 1 

0.0465936 -0.191394 1.34836 
0.42283 -0.0342277 -0.30853 
1.63756e-18 -3.57287e-18 1 

-0.0997314 -0.0662433 -0.0777384 
0.0255611 -0.0826013 0.288137 
-1.35047e-19 3.95014e-18 1 

-0.257926 -0.155425 0.0256453 
0.0578019 -0.0236013 -0.572313 
-3.56122e-18 1.68992e-17 1 

-0.249628 -0.0342107 0.150498 
0.00112288 0.0783663 -0.663544 
5.05123e-18 3.1869e-20 1 

0.119986 0.196928 0.737867 
0.0407394 -0.0945729 -0.783675 
-2.51213e-18 1.28281e-17 1 

-0.355941 0.000846272 0.784287 
-0.142661 0.20237 -1.76379 
-4.76779e-18 4.27637e-18 1 

-0.777474 -0.65968 -34.8161 
-0.430069 0.360756 1.03179 
1.89922e-18 -3.30631e-18 1 

1.2256 -0.993581 0.0858238 
1.03775 1.24371 0.0190255 
6.38358e-18 1.68173e-18 1 

-0.281435 0.035035 -2.18552 
-0.0470348 0.0574622 1.29017 
-3.18038e-19 5.78252e-19 1 

-3.09685 -0.348079 3.20136 
-0.855141 0.430125 -0.93106 
2.72353e-17 -1.10382e-17 1 

-0.155245 -0.0487568 0.0834689 
0.00558607 -0.0428466 -0.124617 
-1.89686e-17 -3.84255e-18 1 

0.096368 0.44648 -0.102138 
-0.22282 -0.177078 0.257391 
4.62395e-18 8.91846e-18 1 

-0.946598 -0.76092 3.44168 
1.06494 0.493809 -0.459176 
-2.20017e-18 -1.00841e-17 1 

-0.380422 -0.0599628 0.976495 
0.0107909 0.103313 -0.970771 
-7.57807e-18 -1.04525e-18 1 

-0.42287 -0.357928 12.5448 
-0.159217 -0.0620814 2.62713 
-2.31991e-18 -7.71724e-18 1 

-1.99669 0.00192248 -3.26651 
-0.281962 0.429736 -1.56119 
-7.37455e-18 -1.56621e-17 1 

-0.159723 0.0121102 0.480486 
0.0180942 -0.0271194 0.624663 
1.11769e-18 1.20831e-18 1 

-0.281697 -0.195082 -0.0191613 
0.19735 0.114148 -0.0590494 
-7.36761e-18 -4.21006e-18 1 

-0.202735 -0.0326484 -0.0981212 
0.00184735 -0.0562617 0.292611 
-6.45465e-18 1.34275e-17 1 

-0.129164 0.168958 0.270585 
-0.206519 -0.00360255 0.057881 
2.72749e-18 7.7341e-18 1 

1.45001 -0.968458 -0.142588 
0.93127 1.33399 0.381314 
5.77922e-18 -2.64914e-18 1 

-0.214624 -0.126485 1.01114 
0.16404 0.0656223 -0.965363 
1.3053e-19 5.63184e-19 1 

-0.225995 -0.51449 -0.179565 
0.494566 0.120608 0.267973 
2.18426e-17 -2.15971e-17 1 

-3.25337 -0.237801 8.39452 
1.21621 1.03924 0.617127 
7.86478e-18 -7.26152e-18 1 

-0.240049 0.0685351 0.646986 
0.260984 0.0827761 0.100285 
-1.8701e-18 1.06362e-17 1 

-1.91649 -0.23094 -0.019481 
0.00634279 0.783184 -0.55822 
-4.5808e-18 8.84126e-18 1 

-0.959381 -0.367211 -1.74755 
0.454346 0.45286 1.5546 
9.2308e-19 -7.5061e-18 1 

-1.13282 -0.31453 -1.12081 
-0.216259 0.411749 0.949182 
-1.19189e-17 -1.13716e-17 1 

-0.207455 0.716432 1.48292 
-0.691519 0.417735 -0.566653 
9.11526e-19 -1.93446e-17 1 

-0.262404 0.112525 0.661412 
0.0687079 -0.0790133 -0.419525 
2.53972e-18 -2.56858e-18 1 

-0.386601 0.0926632 -0.104255 
-0.066682 0.00695494 -0.496089 
-6.30052e-19 7.30861e-18 1 

-0.74971 0.306101 0.399888 
-0.628936 0.283864 0.497555 
-3.80818e-18 9.70621e-18 1 

-0.240744 1.17542 1.77349 
0.419422 -0.0644459 0.325276 
-1.08092e-17 6.11431e-18 1 

-0.514306 2.0621 -1.44701 
-0.0384632 0.353504 0.363769 
5.99337e-18 -1.54115e-18 1 

-0.101271 0.0333528 0.2002 
-0.0460829 -0.0200841 -0.0146645 
-1.14162e-19 9.09492e-18 1 

-0.569791 -0.260801 -0.233704 
0.143347 0.182278 0.734236 
-1.03516e-17 -1.961e-17 1 

-0.506261 0.135644 -1.93853 
-0.0260857 0.508334 -0.330227 
-4.58962e-18 1.31132e-17 1 

-0.216546 -0.234294 -0.717891 
0.0549832 0.131856 0.075411 
7.77399e-18 9.03154e-18 1 

-0.35904 0.045437 -0.212849 
0.266703 0.112187 -0.601723 
4.44895e-18 8.39739e-18 1 

-0.071948 -0.0110159 -0.454418 
0.00897987 -0.0578525 0.127006 
-1.14234e-17 3.61004e-18 1 

-0.247281 0.00971785 -0.591486 
0.104014 0.0871509 0.375466 
1.6668e-18 -1.4353e-18 1 

-0.444113 -0.790433 0.770721 
0.239608 0.148011 2.71235 
7.56921e-18 -8.65053e-19 1 

0.0851233 -0.590211 0.153617 
0.538208 0.167788 -0.612035 
-8.21269e-19 9.96008e-18 1 

-0.121155 0.236127 -0.0847929 
-0.126812 0.138715 -0.0253296 
-1.34482e-17 5.22819e-18 1 

-0.562917 -0.494887 0.101178 
0.202746 0.305053 -2.06552 
5.91016e-18 1.1793e-17 1 

-0.106849 -0.196692 -0.464616 
0.0937885 0.0443056 -0.214301 
-1.23048e-18 -9.48128e-18 1 

-0.197691 0.0733096 -0.0713493 
-0.0235379 0.121511 1.32331 
-8.50528e-18 2.59703e-18 1 

-1.39524 -0.142687 -2.22413 
-0.300691 0.601412 -2.06028 
-5.27599e-18 -2.7045e-18 1 

-0.541201 -0.174387 0.707411 
-0.407495 0.22598 -1.09659 
-6.10837e-18 -1.45437e-18 1 

-0.200866 -0.0786306 0.132252 
0.0128022 -0.0558027 -0.192268 
-2.07309e-18 -6.53439e-17 1 

-0.158982 -0.349479 1.25011 
0.27581 0.203307 2.41554 
-8.18348e-19 4.59611e-18 1 

-0.632813 -1.15362 99.8429 
0.154782 0.413939 24.7149 
-6.83957e-19 -5.46859e-19 1 

-1.02613 1.24968 0.447046 
-0.0802629 0.619198 3.13912 
2.37904e-18 -1.22789e-18 1 

-0.486141 -0.049773 1.59032 
0.00879134 -0.0661507 -2.49963 
-6.22071e-18 -6.43621e-18 1 

-0.990325 -0.160234 3.90963 
0.0194898 0.502543 0.0990894 
-1.20151e-17 -2.76901e-18 1 

-0.122983 0.131707 0.0630527 
0.0588242 -0.0544985 0.170682 
-4.42515e-18 -1.19376e-17 1 

-3.41374 1.89182 -11.4092 
-0.0880972 0.571069 8.92801 
3.70952e-18 -2.15426e-18 1 

-0.300719 0.306295 0.508867 
-0.361445 0.179009 -0.430434 
1.33022e-17 4.75756e-18 1 

-0.156264 -0.0967173 0.318616 
0.00615053 0.0670978 0.373008 
3.50383e-18 -4.92605e-18 1 
