# vtk DataFile Version 3.0
Output file generated by Yade's KinematicLocalisationAnalyser
ASCII
DATASET UNSTRUCTURED_GRID

POINTS 13483 float
596.744 34.277 -0.421457
728.21 74.8923 0.447311
120.888 6.06204 -0.447539
753.048 7.32922 -0.435375
501.568 7.91251 0.306948
318.203 36.57 -0.454617
157.496 7.00646 0.461492
564.502 11.1668 0.178852
500.384 23.5493 -0.16449
690.523 18.6876 -0.622281
212.189 8.85511 -0.0998064
259.627 6.3823 -0.286823
633.152 46.067 -0.134309
620.48 19.1926 -0.1184
138.204 17.0896 -0.452182
222.765 35.2352 -0.397011
219.474 13.0669 0.277669
292.246 9.73481 0.389254
343.868 33.3692 0.433558
525.274 8.42797 0.355463
415.224 39.0241 -0.105523
584.237 42.9047 0.334757
754.278 49.4991 -0.490142
672.576 50.6882 -0.525066
462.402 15.9831 0.293738
243.074 44.9461 0.127228
495.66 28.6861 -0.468856
578.5 20.5117 0.223229
45.1629 15.229 -0.477745
684.103 45.2496 -0.337768
485.147 6.14862 0.504193
16.8396 23.2854 0.292625
742.423 77.0169 0.235004
497.547 2.62287 0.474681
79.0254 44.9658 -0.102917
522.277 33.0422 0.350627
530.433 16.7367 -0.410508
347.086 22.5335 0.181592
533.848 30.1405 -0.364281
354.212 34.5543 -0.392545
243.732 14.3698 0.336334
437.911 37.2964 -0.0668962
653.125 9.86203 -0.151527
194.305 6.24094 -0.373655
56.2234 6.99746 -0.111347
69.4067 8.98708 -0.296596
664.444 8.73857 0.670215
23.4677 11.7478 -0.290042
589.021 59.0869 0.353076
651.857 40.4863 0.359235
174.185 32.5134 -0.285667
723.576 60.5445 0.123915
35.115 28.5855 0.122062
535.249 3.03339 0.362562
143.138 7.44946 -0.511481
585.203 34.7058 0.495825
509.116 28.709 0.129559
176.186 0.967477 0.278177
32.9672 2.35044 -0.346328
352.703 17.984 0.254405
603.471 66.3251 -0.131484
465.568 35.9483 -0.172575
403.791 1.03145 0.199392
673.872 11.8681 0.561876
26.8465 43.8128 -0.235688
259.296 30.2868 0.292237
689.02 11.4274 -0.30757
651.46 69.9523 -0.342676
422.253 8.71333 -0.492855
564.24 4.26909 -0.410958
708.407 37.9039 0.402838
131.914 7.82734 0.261932
502.61 28.08 -0.139787
481.578 16.3473 -0.11972
298.52 16.9866 -0.33869
20.7442 13.6351 0.295462
738.805 57.0725 -0.333256
337 40.7359 -0.301974
650.261 34.8305 0.419062
664.013 17.5059 0.247857
742.316 15.5629 -0.287611
467.353 37.1981 -0.165977
93.5825 38.8987 -0.273397
659.392 55.4698 -0.210771
629.411 54.6847 0.10694
759.636 56.1084 -0.106895
739.014 0.794693 0.532361
295.319 28.9622 0.477543
616.069 6.32006 0.0812731
24.3769 5.15353 0.504012
135.105 40.656 0.135461
516.119 15.8983 0.197945
737.26 48.0113 0.484142
197.103 29.5775 0.228457
45.7 35.7298 0.265945
496.436 1.36736 0.14641
238.688 8.76225 -0.399473
705.282 71.3839 -0.249143
724.686 47.0943 -0.245232
366.646 21.4873 -0.253566
165.297 27.102 0.441327
551.882 46.4627 -0.409296
385.296 15.406 -0.499671
419.262 30.7053 -0.102886
383.306 4.53678 0.406396
547.809 13.5809 -0.11236
758.682 11.827 -0.293449
81.2569 39.9189 0.406254
340.253 5.00181 -0.213475
558.684 10.8613 -0.44598
365.564 44.9672 0.444501
25.6422 24.9153 0.475088
30.7625 5.7792 0.329216
567.429 43.7147 0.408225
510.77 27.2101 0.148891
26.0268 37.6581 0.410934
94.8204 31.3746 0.213619
330.157 16.0774 0.297827
595.155 20.1365 0.116579
480.77 39.3249 0.304222
702.933 7.25506 -0.459498
694.473 6.51435 0.262911
393.748 37.652 -0.100509
621.052 35.5776 0.11066
242.034 17.2099 0.577706
335.675 3.86734 0.460371
105.192 31.7105 0.314868
118.341 24.8033 0.26101
547.083 44.4361 -0.0650902
312.351 18.9606 0.4856
684.731 58.4668 -0.0995731
656.361 69.8565 0.10262
486.986 22.205 -0.359028
736.094 30.4114 0.329452
435.545 24.6865 0.217631
282.887 23.9991 -0.308556
653.507 54.7144 0.277773
283.883 29.6851 0.398191
574.364 12.3436 0.23617
338.616 37.6875 0.195754
510.262 11.7823 0.596874
373.433 32.0891 -0.0887647
437.797 17.4959 -0.0979654
324.063 43.5505 -0.438128
193.215 30.6323 0.114798
732.492 73.7876 -0.145574
756.039 14.7342 -0.4148
6.03666 12.6092 -0.426709
442.204 22.7782 -0.438132
38.818 22.89 -0.0891996
383.787 31.7455 -0.47173
403.173 25.5999 -0.267159
76.0614 11.6189 -0.526416
53.0398 33.4109 -0.466597
230.098 13.5643 0.453673
600.471 58.6685 0.387362
575.773 21.7856 -0.480868
76.3498 20.87 0.498099
672.688 54.9921 0.416713
725.079 15.1049 -0.456753
645.415 63.8596 -0.564631
672.514 2.26743 -0.639623
553.201 32.0987 -0.391749
585.523 44.0624 0.585894
518.835 20.3403 -0.372166
750.591 5.62373 0.466764
228.013 24.9524 -0.117176
131.063 37.1036 -0.207484
252.449 6.57965 -0.379716
96.1989 4.48995 0.271901
65.698 10.2295 0.220004
282.164 36.6302 -0.312244
17.2338 25.0822 0.346587
559.63 24.885 0.4212
593.745 57.1538 0.202779
471.355 22.2015 -0.382027
744.685 60.1583 0.345047
415.374 8.71945 -0.127849
445.497 36.7614 0.396524
543.412 3.51943 -0.172888
22.9512 23.7638 -0.40059
576.295 4.68358 0.544807
550.379 6.14308 0.28045
210.387 11.39 0.488873
433.645 16.4936 0.209346
318.662 6.11324 0.387321
396.897 19.296 -0.341554
707.38 60.5772 -0.106775
196.286 25.8439 0.47561
731.075 6.89231 0.340738
710.962 60.3401 -0.307949
392.049 10.5867 0.173406
685.573 3.73602 0.514748
599.225 29.2208 -0.429775
704.259 23.1578 -0.403361
441.23 43.5892 -0.286243
505.016 12.6359 0.500493
474.523 46.6761 0.224842
455.385 8.8882 -0.169391
649.094 63.3785 0.258099
642.611 56.5906 -0.284406
195.764 39.6713 -0.33127
740.201 15.4291 -0.109001
586.094 42.7468 -0.319563
12.0391 17.9476 0.182897
416.887 26.083 0.370276
191.559 22.9608 -0.396922
95.2757 39.8638 -0.201923
734.784 43.7902 0.425795
640.873 66.827 0.229235
326.302 26.0993 0.337534
539.778 11.1849 0.412832
84.2001 45.3639 -0.169222
253.148 25.7931 -0.476618
560.92 29.3018 0.357548
497.211 19.189 0.389068
269.19 0.8892 -0.342704
559.428 52.515 -0.386713
539.85 46.2442 -0.398626
493.043 34.8547 0.375098
508.204 1.69066 -0.669203
675.732 24.3615 0.404879
183.319 12.2185 0.152818
510.292 42.1381 -0.425292
570.724 55.054 0.167731
74.6534 0.948808 0.273547
257.817 4.6927 0.160053
755.288 16.797 -0.281964
742.317 17.6072 -0.495525
760.403 21.4581 -0.646043
311.245 8.59174 -0.232598
708.566 29.8626 -0.439769
417.031 43.9324 0.358216
459.473 0.790554 -0.42579
636.131 54.7238 -0.432009
27.0244 30.4575 -0.301426
338.842 42.4344 -0.531966
258.746 2.86242 0.334835
745.572 74.0225 -0.172142
686.311 72.3539 -0.102658
294.803 11.1955 0.226738
647.893 46.0199 0.0816159
559.079 4.10324 0.335518
548.065 9.08827 -0.454706
99.0141 18.7073 -0.479934
311.01 1.03135 -0.229171
351.513 2.27172 -0.359448
14.0613 7.42534 0.448343
4.50151 31.7886 -0.249445
165.238 19.0022 0.355532
69.8725 42.3775 -0.224209
67.5762 29.5714 0.308927
433.618 14.7987 -0.453727
376.315 35.7418 -0.476466
721.485 61.3901 0.112625
19.7302 4.01109 -0.269264
72.3764 6.94353 0.144328
607.844 51.5999 0.134597
302.304 0.940117 0.364643
374.22 16.4309 -0.0953047
241.433 4.66598 -0.377878
637.983 34.6544 0.188047
462.587 8.30391 0.433658
710.938 27.1656 0.442639
619.353 38.5799 0.286532
653.308 28.6471 -0.125989
431.131 27.4557 0.484905
105.069 45.7488 -0.310358
549.037 49.3403 -0.0800797
705.538 12.9999 -0.529653
244.406 31.2247 -0.257592
32.6982 17.4895 -0.168326
344.794 14.1056 0.487991
110.682 41.1905 -0.460921
274.814 42.8406 -0.215934
436.281 1.74453 -0.357211
739.802 51.6726 -0.436177
666.444 0.749301 -0.542599
340.765 3.4645 0.570094
308.518 27.7047 -0.138423
473.414 43.6062 0.232738
83.6421 7.93168 0.454787
202.418 45.6565 -0.378073
726.506 47.6041 -0.392823
507.079 46.9007 -0.0369788
204.789 41.5905 0.282689
164.552 43.3377 0.127576
759.378 44.1727 -0.393213
757.375 13.3038 -0.467261
607.8 4.16413 -0.645464
195.29 24.3099 -0.0891111
555.892 35.7843 -0.117836
557.888 35.1982 0.250446
419.934 5.73237 -0.133749
491.484 0.904735 -0.33158
717.009 67.2273 0.488513
87.1127 31.3232 0.215099
643.594 28.3455 0.421852
281.666 15.5929 -0.332298
9.60868 2.38541 -0.332222
129.531 38.5896 -0.185828
68.5528 23.6393 -0.459392
679.675 51.9518 0.28875
751.428 78.2598 -0.16645
190.564 28.1832 -0.172934
751.55 15.1458 0.595507
46.7678 37.809 -0.261087
93.5237 29.4296 0.149037
629.593 18.9262 -0.369951
424.089 18.7935 -0.515304
528.069 17.6353 0.125877
244.813 29.2934 0.18342
619.365 6.4277 -0.476747
760.406 11.5893 0.550784
30.0221 31.8593 -0.263317
277.669 7.73285 0.194302
227.888 15.3473 0.259447
1.07786 36.2608 0.152032
231.177 14.7908 0.360903
216.989 11.09 -0.126036
219.708 26.7476 0.293409
136.24 27.9996 -0.128008
552.268 19.4527 -0.326168
170.897 14.3383 0.344721
740.146 74.3436 0.232839
178.2 3.91181 -0.498054
49.2364 39.0359 -0.387465
698.278 64.9614 0.502202
289.327 32.0726 0.392991
655.473 39.1878 -0.460794
745.869 43.5835 0.533884
309.312 9.26844 -0.101739
700.946 39.8536 0.355548
337.721 2.50161 -0.430316
427.682 24.5503 0.355774
656.363 24.1244 -0.449405
108.598 12.2066 0.511365
493.255 3.77633 -0.544644
714.849 26.2341 -0.178019
90.7325 7.85563 -0.250586
289.707 14.8502 0.185035
434.975 11.9377 -0.248255
751.276 2.79876 -0.499615
408.763 2.00865 -0.527922
180.59 40.178 0.321291
708.043 10.9868 -0.518718
132.894 38.3246 -0.195119
270.428 31.7099 -0.38049
411.52 22.4401 0.2027
576.894 14.3232 -0.298798
397.598 9.70774 -0.516603
467.323 28.7233 -0.439658
728.424 76.437 0.39138
48.8682 10.9128 -0.106384
307.865 40.9622 -0.318634
390.219 26.5936 -0.435988
420.661 20.7765 0.268986
527.982 49.1464 0.356737
717.314 62.9838 0.186519
649.328 56.2103 -0.369353
231.496 34.4957 0.390687
14.2626 33.7316 0.154381
644.615 57.1205 -0.119392
517.763 50.2829 -0.443455
235.675 39.2579 -0.12197
662.251 46.109 -0.110458
154.773 9.40018 0.216761
376.765 22.4978 0.27364
475.218 44.5854 0.116865
424.813 20.2419 0.228875
724.743 76.1652 -0.300374
437.706 3.93231 0.52869
50.8144 25.631 -0.292503
481.139 33.1861 0.371934
447.008 41.4966 -0.409429
737.212 58.1889 -0.225613
697.92 41.8634 0.245513
549.614 23.7766 -0.116961
730.359 64.3899 -0.404635
301.831 2.23592 -0.465333
390.531 29.6741 -0.448049
29.4101 39.1619 0.318382
704.219 40.0334 0.140169
607.263 23.147 -0.594597
474.541 0.771288 0.516416
129.127 4.69564 -0.33216
438.549 41.5691 -0.0963895
12.0565 0.915316 0.352495
749.055 8.99152 -0.10849
380.675 39.8094 0.327429
[...]
POINT_DATA 13483
TENSORS Strain_matrix float
-1.06078 -0.200151 -0.435722 
0.693938 0.581979 -0.550413 
8.21833e-19 1.16259e-17 1 

-0.23962 -0.0723249 -2.72619 
0.241802 0.249835 9.40402 
9.78482e-19 -4.06642e-19 1 

-0.110675 -0.0742415 -0.451549 
0.0369526 -0.054042 -0.167545 
7.21114e-18 -4.27043e-18 1 

-0.844517 0.445685 -0.0567994 
-0.279308 0.316542 -0.646093 
-7.13154e-18 -3.30549e-18 1 

-0.384748 -0.0812916 0.152087 
-0.031918 0.0166815 -0.325681 
-5.32419e-18 8.2439e-18 1 

-0.0641121 -0.0365465 0.821388 
0.00350924 -0.00661064 1.15815 
2.0799e-19 -3.54195e-18 1 

-0.142745 -0.0414071 -0.268608 
0.0344431 -0.0439174 -0.516961 
6.41632e-18 1.31713e-18 1 

-0.153952 0.0540432 -0.120752 
0.039425 -0.0623295 0.0550229 
-8.42054e-18 -1.43328e-17 1 

-0.224307 -0.0250847 1.21841 
0.0526427 0.140212 -0.387382 
-1.38774e-18 3.74368e-18 1 

-0.382489 0.101944 -4.43871 
-0.328208 0.0186371 2.4434 
-7.47766e-18 3.11569e-18 1 

-0.0775613 0.0142873 -0.119985 
-0.000549747 -0.0468547 -0.0100594 
8.85583e-18 1.13263e-17 1 

-0.104536 -0.0274117 0.0773735 
-0.0357541 -0.0689542 0.27306 
-8.47255e-18 -3.46971e-18 1 

-0.384844 -0.0984005 2.43832 
0.614203 0.221158 -0.545499 
-1.12502e-17 1.39879e-18 1 

-0.333288 -0.141892 -0.216258 
0.178662 0.140399 -0.276887 
-9.74456e-18 -1.13163e-17 1 

-0.105709 0.010566 0.0130086 
-0.0065887 -0.0306918 0.779138 
-3.02518e-18 -2.9545e-18 1 

-0.119056 -0.0329981 -0.587532 
-0.0398844 0.0187079 1.3699 
1.24418e-18 -2.48835e-18 1 

-0.0602666 -0.0137844 -0.0493373 
0.00450974 -0.123466 -0.0581804 
1.67524e-18 9.38135e-18 1 

-0.165144 -0.0233688 0.0244346 
0.0566746 -0.0706913 0.026532 
-2.0073e-18 1.66459e-18 1 

-0.184691 -0.0957257 0.564562 
0.0989932 0.203242 0.260431 
5.29339e-18 2.13874e-18 1 

-0.139687 0.0657715 0.29709 
-0.167822 -0.102244 0.216492 
2.49378e-18 -5.1746e-18 1 

-0.160401 -0.362487 -0.155789 
-0.0429809 -0.0490719 0.127193 
-7.84212e-18 -1.01198e-17 1 

-0.0633668 0.35117 -0.443376 
-0.871635 0.46778 0.65943 
3.52989e-18 -3.78202e-18 1 

-0.729667 0.127214 -1.11776 
-0.455431 0.293506 2.31924 
-1.4557e-18 -2.30486e-18 1 

-0.838042 0.307874 2.34592 
0.45064 0.233942 0.543929 
-6.82759e-18 3.31312e-18 1 

-0.112866 -0.19622 0.166324 
0.0662778 -0.0127594 -0.012817 
1.97724e-18 1.27564e-18 1 

-0.0607068 -0.0569181 -0.246157 
0.0265886 -0.0344085 0.0155854 
-9.68297e-18 -1.15391e-17 1 

-0.172194 0.0109205 4.37778 
0.047742 0.0681441 3.67711 
1.8335e-18 2.42496e-18 1 

-0.424262 0.0530412 0.388403 
0.552148 0.0189743 -0.697248 
5.06171e-18 5.48352e-19 1 

-0.112665 -0.0255303 0.688191 
0.0162545 -0.0517344 0.215325 
-1.79925e-18 5.63637e-18 1 

-1.40778 -0.239402 1.03862 
0.210676 0.347366 -0.874737 
-1.46167e-18 -1.31551e-18 1 

-0.287007 0.0987101 0.111769 
-0.0675088 -0.157303 -0.688359 
-8.81037e-18 1.02816e-17 1 

-0.0718909 0.162904 -0.00905745 
-0.0979333 -0.0793916 -0.10115 
4.99774e-19 1.17447e-17 1 

-0.394329 0.0915386 -5.51522 
0.645628 0.350114 0.391322 
-2.00687e-17 1.43315e-17 1 

-0.213448 0.165327 0.0176705 
-0.0334001 0.11593 -0.287554 
1.76164e-17 -3.24417e-17 1 

-0.0516707 -0.010445 0.00870682 
-0.0297991 -0.0648302 0.0522495 
-1.37537e-18 1.80129e-17 1 

-0.458602 -0.0667526 -1.30291 
-0.495491 0.324298 -1.38807 
-8.3453e-18 -7.7475e-18 1 

-0.306389 0.132581 -2.51533 
-0.033682 0.173498 -0.895086 
-1.97368e-18 -1.35754e-17 1 

-0.000191618 0.0214552 0.230938 
-0.0161158 -0.0586838 0.348856 
-3.63706e-19 -6.36485e-19 1 

-0.395977 -0.23605 -0.240437 
0.110718 0.179956 -0.240802 
1.13709e-17 3.83767e-18 1 

-0.078658 -0.136487 -1.71322 
0.134057 0.112296 0.685427 
4.13339e-18 8.60274e-18 1 

-0.143332 -0.00543432 0.0243129 
-0.0968952 -0.0252505 -0.138799 
4.05783e-19 1.25116e-17 1 

-0.0874367 -0.00439064 -0.0644753 
-0.250724 -0.0847506 0.242132 
5.97639e-18 -3.19337e-18 1 

-0.681429 0.0749377 -0.336529 
-0.440832 0.131262 0.751259 
-3.97006e-18 -1.65419e-18 1 

-0.0671712 -0.00036206 -0.662318 
0.00290738 -0.0781257 0.443342 
-3.16345e-18 -1.04732e-17 1 

-0.0853472 0.0392059 -0.0333294 
-0.0317364 -0.0794754 0.149917 
7.99367e-18 3.73617e-19 1 

-0.108358 0.00954649 0.0802148 
-0.00254223 -0.0482265 0.0252899 
8.03054e-18 -7.94248e-18 1 

-0.807182 -0.436116 0.774244 
0.162919 0.299589 -0.564924 
1.1207e-17 -8.14231e-18 1 

-0.0700355 -0.0201827 0.0292838 
-0.00469141 -0.120254 -0.00197855 
-4.60794e-18 7.23397e-18 1 

0.981919 -1.16123 -1.88021 
0.877817 0.954435 0.202623 
1.18419e-17 8.99718e-18 1 

-0.784822 0.228875 2.52342 
0.0036486 0.228498 -4.9863 
-1.78922e-18 4.15828e-18 1 

-0.0550358 -0.240147 0.260087 
0.0950783 0.018365 -0.860879 
5.97843e-18 8.0724e-18 1 

-1.28307 -0.315622 0.497915 
0.0212225 0.516266 0.648205 
-5.73848e-18 5.38866e-18 1 

-0.0947125 -0.0164937 -0.15548 
-0.0175307 -0.011341 -0.036579 
1.22264e-17 1.01802e-17 1 

-0.185047 0.0616119 0.142829 
-0.0159209 -0.0833279 -0.346938 
-4.96187e-19 3.2443e-18 1 

-0.130111 -0.0161644 0.406953 
-0.0472816 -0.10012 0.326871 
0 -5.33072e-18 1 

-0.125354 -0.020121 3.76947 
-0.0645348 -0.107926 -1.52762 
-1.01628e-18 6.09765e-18 1 

-0.1528 -0.123381 -1.22654 
0.513726 0.173478 0.360372 
-5.52609e-18 -1.15474e-17 1 

-0.10375 0.00799953 0.260576 
1.0616e-06 -0.07272 -0.0573432 
-2.56596e-18 1.65602e-17 1 

-0.0636639 0.00653357 -0.188118 
-0.0353529 -0.130302 -0.262715 
6.68669e-19 1.9468e-18 1 

-0.0808433 0.00688784 -0.158598 
-0.0467127 -0.034844 0.0767417 
-9.30736e-18 7.09544e-18 1 

-0.527752 0.441079 1.08482 
-0.0605962 1.01847 1.60832 
2.12261e-18 6.01586e-18 1 

-0.671133 -0.228822 -0.504289 
0.0212664 0.398217 -2.5846 
8.79352e-18 1.18041e-17 1 

-0.111201 -0.0808323 -0.281279 
-0.0112173 -0.0507249 -0.1133 
-1.46035e-19 1.71383e-17 1 

-0.636568 -0.445812 -1.13829 
0.26112 0.285715 -3.02529 
9.59972e-19 1.60713e-17 1 

-0.153333 0.17345 -0.0456986 
-0.109893 0.0585678 -0.26989 
1.43078e-18 -1.47549e-17 1 

-0.0318431 0.0433523 0.109499 
-0.0351474 -0.119026 0.50362 
2.43528e-18 -4.14759e-18 1 

-0.903355 0.0849093 0.409847 
-0.457401 0.251484 0.108775 
-6.20239e-18 -4.85405e-18 1 

-0.022876 -0.346918 -0.33395 
0.410826 0.109635 0.322329 
1.75789e-18 -7.43723e-18 1 

-0.134688 0.00164793 -0.065431 
-0.0721628 -0.0641612 0.249837 
7.36185e-18 9.61511e-18 1 

-0.455153 -0.0515217 -1.50488 
-0.459781 -0.0285656 -0.561932 
1.62883e-17 2.0933e-17 1 

-1.16155 0.688999 -3.8374 
-0.294398 0.630273 1.7675 
6.97039e-18 1.0262e-17 1 

-0.0933913 0.0351856 -0.117943 
-0.0255702 -0.0417544 -0.0198574 
9.27535e-18 -1.35179e-19 1 

-0.190007 0.0284926 1.14106 
-0.0894309 0.0295916 -0.372975 
-1.05725e-17 -1.47853e-18 1 

-0.136997 -0.106485 0.136991 
0.0192265 -0.0344204 -0.094711 
-5.69867e-18 -4.86912e-19 1 

-0.0825781 -0.00203653 -0.649862 
0.0102206 -0.0419381 -0.384567 
-2.21113e-18 4.83519e-18 1 

-0.095921 -0.0170693 0.015686 
-0.0255971 -0.0877688 0.168331 
-1.04773e-17 8.65486e-18 1 

-1.26459 -0.626514 -6.69091 
0.0189163 0.352849 -0.745241 
7.81966e-19 -7.74146e-18 1 

-0.0772779 -0.115377 -0.331091 
0.0145274 -0.0757744 0.405512 
6.08934e-18 -1.80425e-18 1 

-0.845482 -0.346104 1.77366 
0.391477 0.580741 1.26232 
-3.45854e-18 4.38935e-18 1 

-0.691472 -0.0843296 0.292607 
0.0146878 0.286383 -2.03584 
-2.87039e-18 4.05814e-18 1 

-0.564762 -0.0622347 -0.0768797 
-0.198621 0.156885 0.334997 
-1.24976e-17 -8.99653e-18 1 

-0.572195 -0.150148 -0.61451 
0.00709985 0.323198 -0.772464 
1.75625e-18 -5.75324e-19 1 

-0.0348369 0.00297048 -0.789108 
-0.00735223 -0.0525165 0.249596 
9.9485e-18 4.78293e-18 1 

0.0795517 1.12147 -7.03739 
-0.593964 0.553244 0.116897 
1.47447e-17 6.80853e-19 1 

-0.113667 -0.380803 -0.701403 
0.387713 0.13515 0.730884 
1.59016e-17 4.97854e-18 1 

-1.17383 -0.495018 0.540853 
-0.149331 0.491919 0.295536 
-5.29669e-18 -1.08341e-18 1 

-0.863 -3.84164 0.455859 
0.0841959 0.332093 -0.270169 
-7.99114e-20 -1.49568e-16 1 

-0.113832 0.126502 0.664829 
-0.0553273 -0.0603059 0.543487 
3.06104e-18 -8.68924e-18 1 

-0.446203 -0.658926 -0.441241 
0.397393 0.315649 0.26623 
2.71908e-18 -5.62011e-18 1 

-0.137951 0.00510643 1.29091 
0.0199125 -0.0453278 -0.16102 
3.83111e-18 1.77137e-18 1 

-0.0981525 -0.20986 -0.0162785 
0.118937 -0.0525341 0.257432 
-1.89262e-18 -3.44877e-18 1 

-0.306279 0.322499 0.380657 
0.0910516 0.102084 0.140467 
2.89871e-18 1.23854e-17 1 

-0.582464 -0.623397 2.40031 
-0.107303 0.28686 -1.56205 
8.87231e-18 2.25596e-19 1 

-0.22429 -0.0569598 0.43125 
0.0259757 0.0390221 -0.354726 
3.46963e-18 6.84153e-19 1 

-0.138055 0.312813 0.601057 
0.123426 0.0292971 -0.438481 
3.63279e-18 5.75015e-18 1 

-0.168189 0.193154 -0.65828 
0.0111632 -0.012851 0.0652673 
9.0849e-18 -6.8473e-18 1 

-0.129369 0.0428476 -0.0208132 
-0.0107089 -0.0349905 0.0569032 
1.48921e-17 -4.03988e-18 1 

-0.292427 -2.31568 -0.264443 
0.0785935 0.549598 -0.833903 
-1.88816e-18 -2.51754e-19 1 

-1.28388 -0.48011 -0.111357 
-0.162808 0.601414 -0.120415 
7.24319e-18 1.28909e-17 1 

-0.11541 0.0369238 0.543257 
-0.083648 0.0319539 0.830375 
8.33105e-18 -5.33891e-18 1 

-0.0435612 0.0241564 0.801449 
0.00947376 -0.00169525 -0.613062 
6.72314e-18 9.00854e-18 1 

-0.184762 -0.231734 1.31551 
0.469086 0.154952 2.19382 
1.69928e-18 7.92997e-18 1 

-0.123395 -0.01166 -0.413614 
0.00103971 -0.0579946 1.82892 
4.69831e-18 7.76326e-18 1 

-0.175275 -0.0227171 -0.828906 
-0.0808644 0.0942049 -0.469543 
-2.19519e-18 3.43856e-18 1 

-0.116893 0.00743603 0.232062 
-0.00240866 -0.077007 0.383713 
-1.71013e-17 -3.39732e-18 1 

-0.164196 0.0317372 -0.0185229 
-0.00470796 -0.108033 -0.100217 
8.46668e-20 1.10631e-17 1 

-0.872959 -0.245484 -0.329513 
-0.425255 0.241438 0.2956 
2.2874e-18 5.54521e-18 1 

-0.104811 0.0133125 -0.29704 
-0.036141 0.0221721 -0.0617324 
-5.02445e-18 4.23111e-18 1 

-0.145803 0.050507 0.102306 
0.0751851 -0.116936 -0.0994492 
-3.20594e-18 8.79687e-18 1 

-0.289126 0.477387 -0.359653 
-0.348178 0.0771189 -0.555634 
-6.53058e-18 -1.20433e-17 1 

-0.128236 0.000416629 -1.01072 
-0.0635526 0.0360572 3.85115 
-4.01925e-18 -2.88041e-18 1 

-0.124921 -0.0338247 -0.131747 
0.0148579 -0.0235324 0.641956 
8.1832e-18 -1.38586e-17 1 

-0.0865893 0.029739 -0.0283228 
-0.0211841 -0.0986617 0.0199115 
-3.3959e-18 -7.50582e-18 1 

-0.749527 0.0289152 -4.05016 
0.0831061 0.420971 0.858931 
-2.25144e-18 -6.45076e-18 1 

-0.423694 0.537755 -0.690787 
0.343364 0.310215 0.061547 
2.08842e-18 -2.32709e-18 1 

-0.0957026 0.0319708 0.100058 
-0.0854332 0.0110701 -0.355981 
3.39427e-18 6.33596e-18 1 

-0.0936494 0.106064 0.351498 
0.0401002 0.046794 0.15814 
1.55168e-18 1.90081e-17 1 

-0.163171 -0.129133 -0.105818 
0.107879 0.0831184 0.135623 
-3.99754e-18 1.3546e-17 1 

-0.0434331 -0.490894 -0.460513 
0.468134 -0.0994522 0.372234 
-1.012e-17 -1.33712e-17 1 

-0.0835836 0.0953817 0.133652 
-0.0601404 0.00489828 0.217573 
-7.93077e-18 -9.29128e-19 1 

-0.360933 0.136192 -0.0712401 
-0.112754 -0.198183 -0.45084 
1.60627e-17 -2.67712e-17 1 

-0.709562 0.23537 -0.643973 
-0.0913799 0.156992 -0.173606 
-3.90945e-18 -1.05254e-18 1 

-0.0821077 0.018582 0.0978185 
-0.0295605 0.0134932 -0.0906342 
-4.67775e-18 -7.25313e-18 1 

-0.227145 -0.0938613 -0.282767 
0.187791 0.0998102 -0.0136454 
-2.98546e-18 6.22951e-18 1 

-0.105259 -0.00799001 -3.12326 
-0.00399358 -0.0314923 5.78894 
-1.34916e-18 -2.99104e-18 1 

-0.111395 -0.0262916 -0.071717 
-0.0389902 -0.124046 -0.00486635 
-4.13644e-20 -7.04229e-18 1 

-0.160511 -0.0495949 0.383056 
-0.0179443 0.0391675 0.1565 
-8.12684e-18 3.20349e-18 1 

-0.270871 0.0706731 -0.166409 
0.0727743 0.126583 -0.289657 
-3.89067e-19 1.96965e-18 1 

-0.048658 -0.287951 -0.789633 
0.319171 -0.0418445 0.121686 
5.56259e-18 -9.07695e-18 1 

-0.133164 0.0384747 -2.24283 
0.0558963 -0.0182238 2.65055 
6.95171e-18 1.16695e-17 1 

-2.05336 -0.107733 -0.141562 
0.0312953 0.688499 -1.36677 
-1.01374e-17 -2.88924e-18 1 

-0.0511836 0.23491 0.25224 
-0.206811 -0.0248895 -0.0535126 
-2.81495e-18 -4.80509e-18 1 

-0.0905009 0.203412 1.02015 
0.0361503 0.0321449 0.598104 
-6.48514e-18 2.43542e-18 1 

-0.518983 -0.148249 -1.24698 
0.178498 0.1465 -2.3076 
5.40991e-18 -5.77631e-18 1 

-0.262657 -0.0610588 -0.349133 
-0.075699 0.170918 0.304319 
-1.53542e-17 4.00544e-18 1 

-0.0983588 0.0190053 0.147873 
-0.0948954 0.017549 0.252508 
-6.11148e-19 5.32803e-18 1 

-1.39385 0.219781 -2.07815 
0.0392764 0.437799 0.356129 
-1.09394e-17 6.2269e-18 1 

-0.136 -0.0422306 0.794397 
0.164651 0.0460167 -0.94847 
-5.11763e-18 -4.76162e-18 1 

-0.153903 0.0838401 0.104096 
-0.0340116 -0.101076 0.491006 
-2.97062e-18 3.56813e-18 1 

-0.0883056 -0.212866 -0.105935 
-0.114031 0.0111145 -0.624346 
5.29921e-18 3.22636e-18 1 

-0.29257 0.102197 -1.50573 
-0.00260223 0.0541283 4.62831 
5.79467e-18 4.29465e-18 1 

-0.0326483 -0.0955423 -0.174007 
-0.0670051 -0.0220887 0.283799 
-5.5422e-19 -3.23665e-18 1 

-0.0736102 -0.0314831 -0.221303 
0.294903 -0.0202095 -0.326796 
1.88284e-17 -2.6043e-17 1 

-0.0884427 0.00736061 -0.347577 
0.0158125 0.0359912 -0.791884 
-1.148e-17 2.35352e-17 1 

-0.121658 -0.256176 0.56645 
0.123166 0.155344 -0.572991 
0 -5.38311e-18 1 

-0.0301952 -0.526658 0.413972 
0.200399 0.225446 -0.638607 
-3.50129e-18 -8.73256e-19 1 

-0.724744 0.188989 0.416211 
-0.280106 0.156692 0.203592 
-1.2369e-17 8.58957e-20 1 

-0.115029 0.068514 -0.435913 
-0.0909071 -0.0640945 -0.0745465 
1.07359e-18 1.40237e-17 1 

-0.0703915 0.0265106 -0.182892 
0.022021 -0.0786374 -0.0435374 
-5.00004e-18 -7.61167e-18 1 

-0.0885518 -0.016483 0.186308 
-0.0433062 -0.038769 0.226075 
-8.44097e-19 2.43233e-18 1 

-0.0963435 -0.0436513 5.85977 
0.0360335 0.0316434 -2.72805 
-5.20551e-18 -4.71513e-19 1 

-0.199419 0.038278 -0.109699 
0.200924 0.0489281 -0.533851 
1.30988e-17 8.28052e-18 1 

-0.127589 -0.057897 0.617618 
0.00455516 -0.0243402 1.29687 
2.95443e-18 -3.43418e-18 1 

-0.155002 0.0496491 -0.64814 
0.0363491 0.053814 -2.80002 
1.20932e-19 -1.06223e-18 1 

-0.09636 0.00985779 0.109603 
-0.00732891 -0.0382732 0.150873 
-1.06184e-17 -4.74035e-19 1 

0.200588 0.757224 0.216699 
-0.678103 0.533587 -0.278729 
9.00478e-18 -5.25279e-18 1 

-0.333566 -0.233093 1.20349 
-0.123647 0.157026 0.585907 
1.02391e-17 1.91821e-17 1 

-0.10696 -0.0275064 0.266842 
0.00594986 0.0279563 -2.2518 
1.14174e-17 -3.55454e-18 1 

-1.4905 -0.0255196 -2.98002 
0.169881 1.13525 -0.304279 
-3.84495e-18 1.35825e-18 1 

-0.216773 1.11122 1.33265 
0.271771 -0.0388381 0.468182 
2.82766e-18 -2.62202e-17 1 

-0.463135 -0.735635 7.78557 
0.0282723 0.675767 -41.3381 
-2.30287e-19 -4.2838e-18 1 

-0.460001 -0.481629 -3.31173 
0.189632 0.106622 -4.3608 
9.52072e-18 1.79568e-17 1 

-0.143794 -0.11915 -1.29475 
0.496655 0.186436 0.578997 
5.45419e-18 -7.05517e-19 1 

-0.566461 -0.283681 -30.0627 
-0.044396 0.449805 19.19 
1.51884e-18 -8.21661e-19 1 

-0.5625 -0.117214 1.4078 
-0.209331 0.222198 -0.81683 
8.94982e-18 -5.8413e-18 1 

-1.18894 -0.0103197 -1.14376 
0.0461458 0.230375 -0.271111 
5.98992e-18 -2.08791e-17 1 

-0.0355336 0.0383732 -0.0193931 
-0.0282189 -0.0740044 0.0811579 
3.26499e-18 -6.66892e-18 1 

-0.197742 -0.0889855 0.648777 
0.187326 0.0155786 0.123034 
1.01235e-17 8.52869e-18 1 

-0.0486302 -0.0603781 -0.182566 
-0.00261171 -0.109672 0.156618 
-2.11703e-19 2.88445e-18 1 

-0.181988 -0.0238555 0.083416 
0.0153407 -0.000205084 -0.415488 
1.47228e-18 -7.80875e-19 1 

-0.106055 0.00329696 -0.0485576 
0.00415815 -0.0510537 0.0582866 
9.34814e-19 -5.07539e-18 1 

-0.0594489 0.0712729 -0.103501 
0.0735418 -0.0210929 -0.0304406 
-6.75115e-18 1.45103e-17 1 

-0.173241 -0.0370662 0.125053 
-0.0627675 0.0228269 -0.386409 
-1.19741e-17 8.08775e-18 1 

-0.5985 -0.198497 -11.9257 
-0.100564 0.362646 0.407609 
-5.11034e-18 9.68331e-19 1 

0.563115 -1.15897 -0.0151648 
0.909722 0.838969 -0.531966 
1.84051e-18 -1.07599e-17 1 

-0.127178 -0.081248 0.0656083 
0.118037 -0.0311142 0.954475 
-5.27227e-18 -2.06319e-17 1 

-2.39826 -0.730816 11.8682 
-0.826156 0.308702 -0.714654 
5.31974e-18 -5.52973e-18 1 

-0.134806 -0.0245181 0.044925 
0.000263363 -0.0379921 -0.111392 
-9.57264e-18 -6.00076e-18 1 

0.0582267 0.129248 -1.38833 
-0.00475378 -0.0833723 1.39665 
-2.08026e-18 -6.03274e-18 1 

-0.285084 -0.058842 -0.206419 
0.0811253 -0.0252252 0.0503148 
-2.05818e-17 -1.07266e-18 1 

-0.192496 -0.0253615 -0.0221654 
-0.0892057 0.0885983 0.0871595 
-1.32966e-17 -8.94378e-18 1 

-0.395641 0.178771 -1.01785 
-0.203267 0.00156778 0.354841 
-3.57437e-18 -9.65624e-18 1 

-0.651636 -0.115114 0.0123534 
-0.0855174 0.277401 0.0368541 
6.74501e-18 -1.23868e-19 1 

-0.109842 0.00417035 0.671831 
0.0250444 -0.0472721 0.0178746 
1.47133e-17 4.32057e-18 1 

-0.18902 -0.103844 -0.0680104 
0.0198586 0.0068547 -0.552269 
-4.77012e-18 -1.11914e-17 1 

-0.158956 -0.00893915 -0.0225943 
-0.0415776 -0.073197 0.423173 
-4.06942e-18 8.11476e-18 1 

-0.0701921 -0.0516887 0.274778 
0.0520887 -0.0900781 -0.0552472 
4.54935e-18 -4.60356e-18 1 

1.52795 -1.05036 0.288445 
0.815171 1.37421 0.604857 
5.60271e-18 1.06278e-17 1 

-0.213449 -0.122501 0.611234 
0.107082 0.0399682 -1.87034 
-2.6116e-18 -3.91097e-18 1 

-0.279916 -0.185441 0.203147 
0.111145 0.0241354 0.224847 
-7.07073e-18 -1.52923e-17 1 

-2.54918 -0.244433 9.05649 
1.04145 0.839087 1.13666 
-1.38107e-17 9.01701e-18 1 

-0.145407 -0.0113017 0.0138419 
0.0933325 -0.046844 -0.616614 
-8.63446e-20 -7.1666e-18 1 

-1.91678 -0.174336 0.910545 
0.00486524 0.796299 -0.653475 
1.15172e-17 -7.40732e-19 1 

-0.892628 -0.398855 -2.28909 
0.34883 0.459443 -0.52651 
-8.79728e-18 6.63782e-18 1 

-0.87778 -0.0360285 -0.495159 
-0.314635 0.400659 1.16009 
-3.61138e-18 4.0628e-18 1 

-0.0947383 0.357516 -0.0269468 
-0.262304 0.030096 0.0438606 
1.40244e-17 8.06402e-18 1 

-0.219572 0.242502 0.808285 
-0.0143094 -0.0588045 -0.113751 
1.71941e-17 1.09589e-17 1 

-0.147268 0.197885 -0.21378 
-0.170195 0.0153011 0.013706 
-2.04364e-18 -8.18732e-18 1 

-0.178259 0.0269504 0.0276568 
-0.118337 -0.0231643 0.198024 
-4.16607e-18 6.2813e-18 1 

-0.145108 -0.504443 -0.0334765 
0.318666 0.141955 0.326801 
-5.41481e-18 2.24041e-18 1 

-0.365369 1.28761 1.81805 
-0.121077 0.268653 -0.189379 
-4.02697e-18 -6.71161e-18 1 

-0.0664794 0.0519385 0.0860172 
-0.0570518 -0.0464738 0.012948 
6.65716e-19 1.45999e-17 1 

-0.479582 -0.262261 -0.235952 
0.123463 0.183562 0.369779 
-1.74754e-17 -1.21147e-17 1 

-0.554517 0.639566 -1.9312 
-0.160555 0.556431 -0.308835 
8.60094e-18 1.9463e-18 1 

-0.356936 -0.135692 -0.74845 
0.0202313 0.162845 0.412179 
6.05513e-18 -2.58352e-18 1 

-0.143049 -0.0279588 -0.154866 
0.0611047 -0.00108611 -0.383509 
-4.30917e-18 2.48753e-18 1 

-0.0746786 -0.00928372 -0.240533 
0.00261158 -0.0398244 0.13402 
-9.9041e-18 5.32542e-18 1 

-0.063893 -0.0369169 -0.157299 
0.0726693 -0.0350608 0.172884 
2.10144e-18 -3.07843e-18 1 

-0.486906 -0.425299 2.07172 
0.188928 0.212742 2.14442 
9.51027e-18 -5.42208e-18 1 

-0.0327992 -0.524198 -0.316186 
0.428762 0.22412 -0.25248 
5.97343e-18 3.03129e-18 1 

-0.0928991 0.160606 -0.825791 
0.00499359 0.0955767 -0.544271 
-5.85848e-19 1.21197e-17 1 

-0.331946 -0.205102 -0.725206 
0.178846 0.126467 -0.808141 
6.79734e-18 -2.91315e-18 1 

-0.0679657 0.128232 -0.0865638 
-0.00243911 -0.117712 0.332131 
4.67075e-19 -2.74907e-17 1 

-0.0992872 0.0316815 1.69916 
-0.0172615 0.0129566 2.29112 
2.65189e-19 -3.68613e-18 1 

-0.725186 0.0909063 -0.975985 
-0.0316953 0.34996 0.506343 
-5.5803e-18 2.53841e-18 1 

-0.137232 0.0291889 0.297352 
-0.0543092 0.0893208 -0.569261 
3.13587e-19 4.939e-18 1 

-0.113528 -0.0326455 0.0709956 
-0.00298024 -0.128868 0.0117016 
-1.19935e-17 -5.92176e-17 1 

0.00695675 -0.438858 1.61905 
0.507274 0.225692 1.88281 
-9.73793e-20 9.90834e-18 1 

-0.176544 -0.210009 0.553474 
0.201134 0.0602128 1.04972 
9.25039e-18 -7.51159e-18 1 

-0.152025 0.164379 -0.789827 
0.0565794 -0.00586844 0.669605 
-1.70086e-18 -1.91346e-18 1 

-0.210588 1.35365 16.9776 
-0.00920499 -0.0378364 -4.20677 
1.43878e-18 -4.64461e-17 1 

-0.28677 -0.363569 -1.11157 
0.26485 0.0261168 -0.000192905 
8.93093e-18 -2.02976e-18 1 

-0.102766 0.0326272 -0.0710604 
0.0253921 -0.0452846 0.0134601 