# vtk DataFile Version 3.0
Output file generated by Yade's KinematicLocalisationAnalyser
ASCII
DATASET UNSTRUCTURED_GRID

POINTS 13483 float
510.58 47.1618 0.493952
611.136 74.1036 -0.48664
112.273 6.11602 -0.422111
632.886 10.5473 0.561178
449.629 9.40283 0.586189
298.697 38.7342 -0.38616
147.364 7.04346 0.487309
495.563 12.1152 0.209436
446.334 37.0848 -0.150725
580.077 18.6532 -0.526465
199.711 8.88311 -0.0914719
244.574 6.40827 -0.244644
539.595 61.9585 0.151482
530.669 25.3291 -0.172185
128.657 18.25 0.495532
210.038 35.2208 0.391413
206.939 13.1119 -0.312033
274.087 10.4403 0.47921
323.862 36.7268 0.505197
464.403 10.9227 0.539398
388.403 51.355 0.109914
495.095 67.8489 0.361952
630.782 50.2202 -0.500998
579.185 70.1446 0.375243
419.084 19.3763 0.306214
228.637 46.7254 -0.123616
443.139 40.991 -0.473036
507.495 23.0993 -0.272801
40.9069 16.2126 -0.473084
580.777 56.1614 -0.420592
438.752 5.81437 0.565604
15.566 24.989 0.33133
624.175 77.257 0.259075
447.676 2.28256 0.631977
72.6678 46.4636 -0.104403
459.768 45.6422 -0.339588
469.68 21.0965 -0.520004
323.431 24.3549 0.171409
467.611 36.5073 -0.313337
333.716 37.5771 0.53499
229.636 14.7354 0.310659
410.192 58.1546 -0.043241
547.469 7.60327 0.222277
182.421 6.2364 0.368627
50.9428 7.4127 0.0848773
62.98 8.94231 -0.138281
561.791 7.23442 0.575502
21.7794 12.2612 -0.319002
508.992 83.8499 -0.357516
557.77 61.3713 0.341084
162.029 33.4476 0.319022
612.493 59.8675 -0.134016
32.1572 30.776 -0.114863
470.622 3.43001 -0.447202
133.675 7.42608 -0.502258
503.988 60.628 0.406704
450.233 41.6269 0.114733
165.498 0.974745 -0.289213
30.2095 2.36717 -0.346206
329.401 17.8528 0.243203
523.135 89.1451 0.126066
413.971 37.2141 -0.219281
372.299 1.06469 0.202966
565.239 16.287 -0.638381
25.2159 47.7738 0.23574
243.957 33.7477 -0.362716
578.073 12.8207 -0.328508
550.94 91.4195 0.354541
386.752 10.4329 -0.62842
495.639 5.50707 0.628343
593.611 48.6526 0.506133
122.826 7.83728 0.286768
447.802 38.7891 -0.140048
434.613 18.2045 -0.117998
280.25 17.4854 -0.342822
19.1671 14.1431 0.329326
633.154 71.6576 0.383899
317.083 42.541 -0.319856
559.891 53.8024 0.381431
560.78 11.8395 0.401178
623.923 22.854 0.286651
417.18 39.5982 0.173331
87.2546 41.7657 -0.284094
567.537 77.2516 -0.264815
531.491 69.869 -0.112791
631.587 61.6172 -0.10719
622.798 2.71778 -0.652561
278.468 31.899 0.416965
536.655 9.32689 0.17762
23.0089 6.08958 -0.643959
126.276 40.0796 0.190862
458.489 20.0568 0.361629
616.511 48.2852 0.50017
185.341 29.653 -0.242858
41.0107 37.4222 0.310179
446.932 1.05248 0.160095
224.977 8.85912 -0.458079
591.055 59.6807 -0.345087
609.18 47.4345 0.227025
341.465 23.1112 -0.243057
153.089 29.3897 0.478537
476.002 55.6405 -0.432522
356.837 18.216 -0.562159
394.255 45.6991 0.118158
355.343 6.67169 0.496644
481.939 12.962 -0.183561
636.207 15.5897 -0.367805
75.1025 41.7567 -0.424058
316.85 5.47983 -0.33476
490.842 10.6679 -0.473651
343.86 49.2298 0.51214
23.1276 27.4204 0.515369
28.4946 5.96563 -0.325101
492.249 41.5829 0.399206
451.037 35.9428 0.171853
25.2568 41.4865 0.412841
88.8835 34.0158 0.243644
307.64 17.6524 0.316767
513.385 27.4019 -0.163805
427.482 45.4433 0.334287
590.213 8.21172 -0.676918
584.315 6.5709 0.254264
369.558 42.8636 -0.113059
529.15 48.6225 -0.115516
228.43 17.5769 0.489402
313.341 3.86906 0.591505
97.4465 33.7472 -0.395831
109.612 25.7331 0.26091
472.5 59.3968 0.084859
291.858 19.0714 0.520613
577.379 47.505 -0.108647
556.159 90.8702 0.110177
435.14 30.0985 -0.452394
609.141 10.6071 0.49196
395.152 29.4365 0.255822
265.6 25.2465 -0.324273
558.187 77.1835 -0.298916
266.665 30.4994 0.418729
503.351 15.0746 -0.250962
318.362 39.3681 0.224365
452.456 18.6605 0.617522
350.64 34.9697 -0.0892597
398.917 19.2067 -0.130646
304.581 45.5839 0.438115
181.583 31.1303 -0.138166
615.596 74.5589 0.174502
633.976 19.115 -0.332883
5.85467 12.9453 0.43598
397.799 27.5366 -0.450856
34.7774 25.2723 -0.0865006
361.152 36.2789 0.516088
374.042 30.5784 -0.266334
69.5708 11.8079 -0.525577
48.063 34.5854 -0.50537
216.925 13.7933 0.468553
523.062 79.9568 0.382361
503.492 25.0399 -0.511568
71.214 21.5661 -0.475959
583.642 69.1236 0.438135
604.248 7.09158 -0.647856
545.827 82.9015 -0.451292
567.673 5.04331 0.610551
480.408 38.1231 0.425844
496.194 67.1813 -0.646421
459.977 27.0428 -0.375316
630.847 5.60855 0.349105
214.995 25.3722 -0.127127
122.022 37.5676 -0.222573
237.732 6.75674 -0.449379
88.8896 4.78527 0.28562
59.5179 10.8073 -0.276142
264.81 37.8791 -0.361423
16.5729 26.826 -0.345122
489.933 25.5451 0.471397
511.213 79.4232 -0.205677
423.908 25.6489 -0.34384
633.517 93.9134 0.341227
380.42 11.226 -0.204585
416.208 60.4771 0.375903
478.159 3.0632 -0.442564
20.2327 27.3327 -0.376876
506.123 5.86081 0.580073
484.212 5.67936 0.636724
198.11 11.1963 0.508279
396.515 17.7562 -0.237952
298.031 6.51577 0.391579
366.495 20.9856 -0.413451
608.816 82.5484 -0.103689
184.757 26.4152 0.484229
617.422 10.6598 -0.430724
606.33 77.7699 0.335438
362.223 12.4372 0.362189
575.455 4.09761 0.455471
511.145 40.2997 -0.391481
588.025 29.5221 -0.472511
410.835 65.3996 0.265193
448.531 20.7856 0.532654
420.558 51.1253 0.27453
413.405 10.4905 -0.274145
548.47 85.2184 0.258367
548.177 78.2841 0.292124
184.166 40.2843 -0.347469
622.389 24.4874 0.128266
496.99 68.4572 0.282433
11.3346 17.6312 0.182285
383.026 30.4999 0.377367
180.008 23.8655 0.446678
88.8896 42.7778 -0.217327
615.245 40.4695 0.448452
540.615 84.0463 -0.224648
307.868 29.1861 0.371282
475.922 12.0693 0.586221
77.6949 46.7552 -0.203209
238.385 26.7818 -0.463678
487.662 31.6333 0.357083
442.643 29.0672 0.449777
253.709 0.889858 -0.362551
484.727 52.0565 -0.554593
472.185 67.0964 -0.448122
439.349 46.6464 0.390205
456.573 2.87611 -0.503028
568.233 31.294 -0.421551
172.104 12.6329 0.181257
452.512 59.4149 -0.431449
483.296 61.0207 0.130866
68.4888 0.977087 0.278622
242.834 4.90201 0.191556
633.313 20.9592 0.282633
625.262 23.894 -0.595562
637.031 23.3689 -0.623382
290.755 8.98638 -0.245738
596.323 36.2193 0.418684
386.268 57.3109 -0.309601
416.621 0.923622 0.511915
537.777 72.0024 -0.525595
25.5677 34.8575 -0.520266
318.916 45.4066 0.595214
243.628 3.04355 0.39859
628.682 79.4746 -0.189463
580.958 92.4438 0.223454
276.283 11.951 0.290242
552.324 68.2148 -0.0834242
492.696 2.6368 0.341264
482.716 9.11004 0.594094
90.98 19.0195 -0.503096
291.19 0.999763 -0.249126
327.009 2.26602 -0.372584
13.466 7.88388 -0.623414
4.47159 32.4564 0.300386
154.977 18.9901 -0.324115
64.6611 42.8765 -0.222702
63.4867 29.7373 -0.325993
396.41 15.9162 -0.615578
353.391 38.6658 0.45425
610.143 60.4971 0.121209
18.798 4.18184 0.291641
66.169 7.07934 0.193586
518.587 56.3921 -0.155589
283.046 1.04845 0.478359
346.514 17.8722 -0.107235
227.465 4.87795 0.378281
544.86 52.845 -0.184527
418.168 8.95434 0.676204
597.85 35.8434 -0.459905
529.008 52.8475 0.344721
563.69 46.0869 0.0825239
393.738 33.0321 0.472813
97.8981 48.33 -0.311519
477.586 59.1324 0.0702346
590.799 18.4744 0.277161
229.929 32.8572 -0.252505
29.3871 18.773 0.179327
321.357 14.8535 0.478431
102.668 43.1414 0.468113
259.056 44.8553 -0.213426
399.021 2.08583 -0.360454
618.326 53.1156 0.380603
563.399 0.781382 0.592254
317.366 3.96421 0.57522
289.554 28.9016 0.146343
420.355 47.5109 0.212814
77.2243 8.24506 0.505738
190.166 46.2208 0.382734
611.406 53.4794 -0.416394
447.007 58.3722 -0.0743416
192.509 42.097 -0.308296
154.121 44.6598 0.226581
634.374 56.8873 0.419509
635.342 17.9576 -0.596028
530.935 5.49576 -0.705323
183.013 26.3627 -0.0877815
478.894 39.388 0.105294
482.208 38.4063 0.258127
384.351 7.49947 -0.14429
442.084 1.42477 0.428639
607.255 62.5072 0.478482
81.4998 33.3369 0.22774
549.078 50.1836 -0.607535
264.267 16.3886 -0.357386
8.86204 2.4124 0.313272
120.596 39.1653 -0.195226
63.8555 24.0107 0.465749
575.631 56.6245 0.334961
623.677 86.8117 0.180214
177.755 29.8802 -0.175707
629.041 18.6826 0.376187
42.7081 39.2305 -0.258177
87.7329 32.3899 0.15931
537.085 31.445 -0.48871
388.794 18.1822 -0.536177
468.026 21.6386 0.158168
230.466 30.9653 0.191254
539.066 13.7186 0.542772
637.531 14.5081 0.48812
27.8294 35.0731 -0.326454
261.382 7.58625 0.174582
214.852 15.801 -0.282971
1.07949 36.5902 0.15567
217.971 14.5505 -0.465024
204.503 11.1322 0.122674
206.602 26.6193 0.27125
127.79 29.4264 -0.124353
485.241 20.9721 -0.457194
160.144 14.7213 0.325323
623.929 75.2542 0.235849
167.374 3.92848 0.505948
45.2332 39.9562 -0.419073
615.825 89.1239 -0.426304
271.881 33.27 -0.397367
563.063 56.4352 0.473638
623.689 54.2074 -0.514468
288.986 9.94415 0.137536
584.919 47.8664 -0.332173
315.266 2.40129 -0.43233
390.082 29.064 0.475223
558.875 33.8187 -0.562648
100.729 12.4571 -0.442146
444.773 4.07427 0.571361
599.236 32.0212 0.212052
83.9507 7.78794 -0.319831
271.903 15.6229 0.174018
396.985 12.7097 0.289133
631.185 7.33678 0.605315
377.023 1.95497 -0.566059
169.642 40.2427 -0.355437
592.428 19.1485 -0.488349
123.822 38.5295 0.21716
254.571 32.7617 -0.394528
379.055 25.2053 -0.223126
505.673 16.7886 -0.494209
366.4 10.5468 -0.510504
418.711 32.4752 -0.458125
610.846 75.6023 -0.380794
44.2916 12.0788 0.136534
288.777 42.5743 -0.343702
363.524 30.6687 -0.431563
385.367 23.7151 -0.332863
467.763 78.671 -0.356943
600.593 58.6556 0.264062
553.483 79.4587 -0.339522
217.847 35.9809 0.401081
13.0944 35.3207 0.152346
546.571 79.4536 -0.146665
456.381 71.173 -0.438995
221.647 41.1806 -0.148431
565.297 71.0563 0.105973
144.666 9.52543 -0.199317
350.647 24.1657 0.266901
421.567 49.2011 -0.156311
390.139 20.7327 0.191573
607.69 74.0414 -0.364765
399.911 4.55753 0.657501
45.5302 27.6918 -0.322481
430.059 39.9198 0.390164
419.153 65.0152 -0.347123
629.867 73.4093 -0.233998
587.767 65.843 0.218933
480.901 23.686 -0.152592
620.151 69.0488 -0.477388
282.831 2.30759 -0.534698
365.666 34.5441 0.482061
28.2953 43.5641 -0.296213
583.099 54.4208 0.176151
520.781 31.6263 -0.58236
428.957 0.727792 0.521703
120.056 4.8002 -0.373014
409.106 62.4112 0.0945822
11.1808 0.882921 -0.321506
629.43 11.3271 -0.176056
356.484 43.709 -0.451759
[...]
POINT_DATA 13483
TENSORS Strain_matrix float
-0.11704 -0.264585 -0.160297 
-0.176264 0.0573504 0.396427 
0.0130005 -0.0100882 -0.00319405 

0.00155568 -0.00861327 0.886771 
0.0115243 0.00354884 -0.691489 
0.000808398 -0.000256587 0.0380154 

-0.0162365 -0.0104376 0.00906661 
0.0102204 0.00958609 0.0382731 
0.000211873 -0.00330205 0.0309034 

-0.0897112 -0.0554301 -0.25572 
0.021789 0.0579732 -1.52503 
0.00476007 0.00103952 0.132086 

-1.06794 -0.321286 -1.12514 
0.307094 0.313888 -0.175556 
-0.0140605 -0.023199 0.0834895 

-0.0261816 0.0714116 -0.0216778 
-0.0493826 0.0123475 -0.0339771 
0.00972277 -0.00935898 0.137759 

-0.00914793 0.0029603 -0.135246 
-0.00187176 -0.00612771 -0.0269744 
0.00118986 0.00020886 0.0627891 

-0.0190068 -0.0303923 -0.0363677 
0.00233172 0.0136051 -0.103648 
0.0110377 0.0157662 0.0367447 

-0.0643885 -0.201337 -1.02507 
-0.260571 0.0546662 0.364564 
0.00343364 -0.0189589 -0.0952974 

-0.0192172 0.0147193 0.0410611 
-0.0950656 0.00662078 -0.0567026 
-0.0077345 -0.00558377 0.000858484 

-0.00732731 -0.00439664 -0.00161763 
0.00664091 -0.00445071 -0.0046329 
0.000130338 -0.000588328 0.0203864 

-0.0158774 0.0299087 -0.000597894 
-0.0154944 0.0160969 0.0196551 
0.000466385 0.000224097 -0.00341298 

-0.0337682 -0.131454 0.0115272 
0.0689808 0.0299682 0.0615213 
-0.00039402 0.033671 0.132394 

-0.0328011 -0.125561 -0.105771 
0.0799336 0.0476983 -0.0738309 
-0.00394182 0.000724439 0.00117675 

-0.00526969 -0.000881153 -0.0595519 
0.00420522 0.000676907 0.0148402 
-0.000271154 0.000145633 0.0116648 

-0.0109134 -0.00466427 0.150299 
0.00745863 0.0108479 -0.0502469 
0.00253557 0.00108648 0.00727197 

-0.00598894 -0.0109856 -0.00125805 
0.00654443 -0.000676576 -0.00360832 
0.000456778 0.000176449 0.00882194 

-0.0897903 -0.0231495 0.00301639 
0.155674 -0.013427 -0.0817823 
-0.0727582 -0.0795805 0.264453 

0.00686376 0.036446 -3.56175 
0.00791791 0.0103371 -1.07854 
-0.000168555 -6.67906e-05 0.0329128 

-0.0275152 0.203404 0.17135 
-0.202931 0.0583173 -0.113264 
0.0624246 -0.0376793 0.137644 

0.0175098 -0.0945798 0.0887003 
0.113038 0.0408238 0.0694455 
0.03185 0.0969718 0.425637 

-0.0108868 -0.087681 0.0174495 
0.0960176 0.00526557 -0.126686 
-0.000356781 -0.00224425 0.0322256 

-0.00790827 -0.0140086 -0.204934 
0.045947 -0.0128835 -0.156233 
-0.0014695 -0.00265482 0.0232813 

-0.0188489 0.0172319 0.019947 
-0.0113366 0.028859 -0.137516 
0.000945301 -0.00332993 0.0117873 

-0.15143 -0.291192 0.0416454 
0.315353 0.139865 0.382805 
0.00777585 0.00103844 0.0585483 

-0.018262 -0.0272094 0.0516541 
0.0218913 0.0193207 -0.0155786 
2.69642e-05 0.000653002 0.00832828 

-0.145551 0.0660887 -0.465005 
-0.0129015 0.221734 1.47571 
-0.0166784 -0.00179142 -0.133389 

0.0313944 -0.129441 0.0612441 
0.117267 -0.0437561 0.0866725 
-0.00284599 -0.00614726 0.0167959 

-0.01706 -0.0122438 -0.321376 
0.0108225 0.00546958 -0.0051116 
0.027398 -0.0089688 0.322796 

-0.195824 0.0662795 0.12687 
-0.0833484 0.275521 0.600478 
-0.0376942 -0.04395 0.0637198 

-0.0913506 0.0435202 0.175651 
-0.0450869 0.0506106 -0.594318 
0.0167277 -0.0216587 -0.315463 

-0.0499352 0.0438879 -0.206037 
0.0524561 0.0948415 -0.137617 
0.00256632 0.0123828 -0.0750526 

-0.0128013 -0.0776446 0.10521 
0.0726664 0.0205573 0.076388 
-5.96454e-05 0.000759109 -0.0164624 

-0.358637 -0.162308 0.0755606 
0.0433116 0.406324 -1.14966 
-0.0106085 -0.0325857 0.243204 

-0.0188493 -0.0410263 -0.102443 
0.058696 -0.0554244 0.297306 
-0.00375741 -0.00282028 0.0140974 

0.028357 0.274416 -0.573267 
-0.423263 0.204504 -1.15359 
0.0106291 -0.0255791 -0.149604 

-0.27194 -0.232886 1.52193 
-0.121095 0.12212 -0.0234603 
0.00303502 0.00723881 0.110422 

-0.0907763 0.176011 0.511115 
-0.0982548 0.0834709 0.0259631 
0.000246487 -0.00532879 0.0271003 

-0.255073 -0.519038 -1.3794 
-0.15763 0.0238188 -1.44114 
0.0148624 0.0266044 -0.189081 

0.0201982 0.0996797 -1.82442 
0.0548213 0.0206227 -1.50201 
-0.00128974 -0.00201351 0.216992 

-0.00745484 -0.0130832 0.00172826 
-0.000374544 -0.000997568 -0.000251425 
0.0013429 0.000816381 0.0139817 

0.0625634 -0.0436362 -0.0746675 
0.144246 0.00846592 -0.108473 
-0.0357287 0.0225052 -0.0356476 

-0.412578 0.132969 0.189324 
-0.406829 0.303294 -0.115171 
-0.0145867 0.0723272 0.177536 

-0.010264 0.00544188 0.00670073 
-0.00287323 0.00337235 0.024903 
-0.00017575 0.000583385 0.0110966 

-0.0116968 0.0307959 0.00614134 
-0.0196019 0.012662 0.00642551 
0.000498591 -0.00099808 0.00109797 

-0.0282695 -0.0502106 -0.218348 
-0.0598829 0.0245331 0.156842 
0.0132822 -0.00399827 0.178379 

-0.0670586 -0.0973841 0.0133824 
0.0436481 0.0714283 0.30405 
0.00237611 -0.00588712 -0.0236706 

-0.0040671 0.0262562 0.00115441 
0.00199335 -0.00821484 0.00794934 
-0.00064052 -0.000766589 0.00897027 

-0.0577648 0.203687 -1.49728 
-0.0402366 -0.0256418 -0.456147 
-0.00706785 0.00234015 -0.0127754 

0.0775431 -0.123228 0.638107 
0.135258 0.0081918 0.281642 
0.00476525 0.0275388 -0.0738691 

-0.00103306 0.0468936 0.0437316 
-0.0272141 0.0191916 0.0179223 
0.00274828 0.000956358 0.0164968 

-0.00110153 -0.016246 -0.116421 
0.0420649 0.00166461 0.096773 
-0.00210198 -0.00155573 -0.00382955 

-0.0245937 0.0836758 0.101261 
-0.0362884 0.0156737 0.0873742 
-0.00535186 0.000317767 -0.000504636 

0.0308992 0.129164 -0.252942 
-0.0694019 0.0640862 0.052707 
0.00871372 -0.0234342 0.00630169 

-0.0135772 0.00241079 -0.0310774 
-0.000755637 -0.000331957 -0.0099119 
0.00037296 -0.000128346 0.00763944 

-0.111183 0.107952 -1.68101 
-0.161072 0.18118 -1.1897 
-0.0266528 -0.0130797 -0.396641 

0.0408174 -0.226489 -1.23347 
0.0134562 0.11328 0.952364 
-0.00352862 0.0032413 0.083842 

-0.0195157 -0.00122309 -0.0347651 
0.00514482 0.0110981 0.000851139 
0.00119793 0.0066513 0.0333898 

-0.0142655 0.0329647 0.0292 
-0.00264852 -0.0242384 -0.0619346 
-0.00266403 -0.00395712 0.0624638 

-0.198554 -0.058747 -0.231372 
0.0959948 0.177032 0.338855 
0.0176638 0.0182783 0.176806 

-0.277243 0.77772 1.56155 
-0.0291286 0.145817 0.433118 
0.000913265 -0.00605264 0.0526186 

0.0396911 -0.218995 -1.04765 
0.198089 0.00269385 0.269561 
0.0023853 0.02355 -0.0406173 

-0.0129858 -0.176096 0.182794 
-0.028905 0.00385639 -0.140617 
-0.0204981 0.0216214 -0.0291564 

-0.0128914 -0.0515911 -0.0689558 
0.0179978 0.0339221 0.0650868 
-0.00471395 -0.00255691 -0.0129293 

0.0151613 0.00778165 -0.032718 
0.00068271 -0.0136077 -0.0932088 
-0.00305161 0.00638899 -0.0325494 

-0.0199686 -0.0257195 0.246007 
0.0672737 0.0178617 0.108181 
-0.00092256 -0.000367858 0.00536789 

-0.001899 -0.00596185 0.00579946 
-0.0632762 -0.00272976 0.0175166 
-0.00910178 -0.000663238 0.00579353 

-0.160217 0.44793 2.01103 
-0.00299872 0.0141569 -0.0226427 
0.00343858 -0.0242161 -0.135777 

-0.0700104 -0.00794958 -0.717968 
-0.103408 0.0385987 -0.372441 
-0.0138364 0.00892877 0.15743 

-0.0219947 0.0201502 0.000486288 
-0.0296257 0.0205304 -0.0075127 
0.00239453 -0.00222059 0.00967141 

-0.0682896 -0.192629 -0.768941 
-0.138469 0.0175772 -0.0159322 
0.0254167 0.0329737 0.0293118 

-0.0100181 0.0017559 0.00295917 
-0.00121347 0.00376863 0.0173536 
0.000252622 0.000429849 0.0123654 

-0.129178 -0.358644 -1.14539 
-0.216443 0.121209 -0.403429 
0.0253965 -0.000443905 0.163775 

-0.294333 -1.01763 1.03831 
0.19815 0.489141 0.526273 
0.0314096 0.0280715 0.131651 

-0.0283923 -0.00983477 0.287899 
-0.0255967 0.0171789 0.0431522 
-0.00139375 0.00262752 -0.0141294 

-0.00709912 0.0215805 -0.00645899 
-0.00622688 -0.000107311 -0.0159218 
-0.00256623 -0.000642276 0.0139468 

-0.187741 0.211726 -0.786658 
-0.143564 0.182532 -0.626254 
-0.0021484 -0.00349115 0.0218474 

-0.00122533 0.00353082 -0.0010087 
-0.00552025 -0.00141995 8.32342e-05 
0.000105566 -0.000338247 0.00603814 

0.0971747 -0.365366 0.72604 
-0.00739914 -0.113981 0.282177 
-0.0221049 -0.0216864 -0.169914 

-0.0840615 -0.186903 0.169238 
0.0778293 0.102131 -0.0226617 
-0.00121986 0.0171251 -0.0608791 

-0.0496944 0.332322 -0.0981569 
-0.377592 0.0694222 -0.312854 
-0.0299833 0.0206526 0.085983 

0.0195887 -0.174572 -0.113774 
0.162775 -0.00100296 0.0403564 
0.000620531 -0.00163325 0.0461283 

-0.00991536 -0.0077373 -0.0778086 
0.0222937 0.00701736 0.0936557 
0.00395566 -0.00200101 -0.00637306 

0.00590065 -0.00597593 0.0105206 
-0.00427083 -0.00434065 -0.00324266 
-0.00209383 -0.000690803 0.00191318 

0.00416699 -0.133827 0.0173225 
0.143876 0.00616444 -0.0243163 
-2.41649e-05 0.000127362 0.0138995 

-0.0175701 -0.0053608 -0.0522279 
-0.0109701 0.00264803 -0.0031438 
-0.00143628 0.00178184 0.0177261 

-0.0538342 -0.0252911 -0.745401 
-0.182107 0.17476 0.855833 
0.0343157 -0.026284 -0.0666512 

0.0055266 0.00923136 -0.00783588 
0.0280421 0.00129069 -0.0886167 
-0.000582893 0.00139651 -0.0115951 

-0.0979675 -0.0271545 0.0420723 
0.138872 0.0324025 -0.0819235 
-0.0161275 0.00341008 0.103121 

-0.0230766 -0.00176847 -2.55051 
-0.014332 -0.00229805 -3.00573 
-0.0018211 -0.00552767 -1.27515 

-0.0116257 0.0181946 -0.00334697 
-0.0291309 -0.00229624 -0.0356353 
0.000437883 0.00215806 0.0211045 

0.0318619 0.143228 -0.486459 
-0.306644 0.0237463 0.216521 
-0.000458058 -0.00109502 0.0460068 

-0.0592143 -0.0570598 0.391957 
-0.0257471 0.0150768 -1.19666 
-0.00216996 0.00181158 0.178671 

-0.000255434 -0.0094142 -0.0399412 
-0.00301595 0.00346063 0.0152494 
-0.000630122 3.46105e-05 0.00293331 

0.00901677 0.0653683 0.115363 
-0.0624512 -0.000362823 -0.00952521 
-0.00458836 -0.00144013 0.0140141 

-0.0762273 0.488065 -0.547159 
-0.0510897 0.252293 -0.0547354 
-0.00181526 -0.0232245 0.0920807 

-0.00863426 -0.0126002 -0.0194184 
-0.00132537 -0.00656471 -0.16268 
-1.71922e-05 0.00123324 0.0139381 

-0.00651111 0.0154725 -0.0309181 
-0.00140979 -0.00643761 0.00894356 
0.000104884 -0.00164762 0.0197272 

-0.0818627 -0.0937795 -0.0195605 
0.0773722 0.0916895 -0.0630441 
0.00195221 -0.0103005 0.0371604 

-0.0906407 0.160853 0.185949 
-0.12122 0.111488 -0.344679 
0.0425511 0.057637 0.1255 

-0.0160038 -0.109192 -0.249883 
0.00330763 0.0843665 0.361521 
0.000656734 0.000502941 0.201243 

-0.0227054 0.010225 -4.18747 
-0.123029 -0.0243101 0.615137 
-0.00171753 -0.0157445 0.0798298 

-0.136915 0.067286 -1.18037 
-0.0320206 0.0458184 1.73278 
-0.00693321 -0.00378914 0.0605444 

-1.04195 1.76698 -7.10479 
-0.601963 1.26261 -1.49775 
0.0342872 0.0223407 0.419941 

-0.0787084 -0.0148565 0.399937 
-0.0928783 0.019541 -0.191613 
0.0250669 -0.0239941 0.635686 

-0.0930462 -0.194455 -0.0671737 
-0.105331 0.123864 0.0635212 
0.00735046 0.0135421 -0.10488 

0.00036392 -0.0290943 0.0245389 
0.0202721 0.000319484 0.0490849 
0.00257688 -0.00137469 -0.00149607 

-0.0582623 0.0244876 -0.224969 
-0.0190689 0.0395936 0.682739 
-0.0241562 0.0111721 0.0349737 

-0.140458 -0.0459324 -0.105473 
0.017081 0.0249072 0.248032 
-0.0138301 0.00338612 0.0916188 

-0.0152334 0.012494 -0.0360901 
-0.0206878 0.00156013 -0.0719157 
0.00558284 0.00609996 0.00968485 

-0.0638096 0.0585952 3.00274 
0.107955 0.231867 2.18341 
0.00526214 -0.00533119 -0.84762 

-0.0809189 0.0371839 0.127641 
0.0131394 0.0846365 -1.82159 
0.0100511 -0.00479474 -0.0158636 

-0.0601519 0.095023 -0.084543 
-0.0452974 0.0114531 -0.0848207 
0.00535959 0.00609579 0.0213819 

-0.0367947 0.115943 0.798271 
-0.120147 0.0319338 0.224348 
-0.0326182 -0.0435644 0.0944945 

-0.283048 0.142341 -0.714399 
-0.140024 0.141986 -0.122656 
0.00689354 -0.000338966 0.0166387 

0.00287594 -5.07135e-05 -0.16922 
-0.0126408 -0.00493565 -0.203862 
0.002433 0.000675438 0.099228 

-0.0158957 -0.0284282 -0.00898175 
0.0211912 0.00104307 -0.00556617 
0.000982634 0.00273567 0.0198366 

-0.0274028 0.0607821 0.2873 
-0.0365548 0.0216652 0.1593 
0.00224341 -0.0330744 -0.20269 

-0.150953 -0.0319076 0.620191 
-0.0799913 0.20658 -0.508817 
-0.012091 0.00409697 0.064453 

0.0564355 -0.21526 0.0613383 
0.244954 0.0182014 0.262809 
-0.00650356 -0.0111512 -0.0857538 

-0.03819 0.0304819 4.42857 
-0.034967 0.0266915 -4.41709 
-0.00158502 0.0027969 0.0880607 

-0.0373758 0.078909 0.0191431 
-0.110657 0.00870729 -0.0138156 
-0.000510311 0.000298331 0.0309679 

0.0396459 -0.186902 -0.000433917 
0.212344 0.0167139 0.00846378 
0.0063479 0.00715785 0.108081 

0.00410923 -0.142065 0.0272564 
0.141282 0.00796199 0.00740473 
-0.00184716 0.00182326 0.0297199 

-0.0146855 -0.0259084 -0.00253165 
-0.0307328 -0.00728774 -0.0220428 
-0.000382326 -0.000141768 0.0135205 

-0.090864 0.058656 -0.871432 
0.0148813 0.00190191 1.11254 
-0.0176309 0.0260764 0.286648 

-0.0313678 0.0290261 0.109324 
-0.0257384 0.000931057 -0.0128968 
3.93866e-06 0.00245851 0.0403799 

-0.00421138 0.0588514 -0.0191898 
-0.0564163 0.0161599 -0.0383932 
0.00219316 -0.000277625 -0.00692003 

0.00741604 0.113409 0.0414354 
-0.191684 -0.0252107 -0.106646 
-0.0619065 0.0380162 0.321136 

-0.0791573 -0.0346778 0.116224 
-0.0426428 0.065078 0.727392 
0.00244801 -0.00149345 0.198747 

-0.138145 -0.195821 -0.967697 
-0.245487 0.0812615 0.91711 
0.0147944 0.0141079 -0.170928 

0.0284183 -0.0332648 -0.170388 
0.0260823 -0.0322739 -0.0490538 
0.0108455 0.0429183 0.044764 

-0.130527 -0.0344278 -1.31868 
0.131607 0.101612 3.61111 
0.011498 0.0285326 0.659906 

-0.334016 0.204919 -0.140796 
-0.469351 0.233651 -0.355052 
0.0196654 -0.00939533 0.017823 

-0.411466 0.547071 -0.984015 
-0.379971 0.423955 -0.8683 
0.0340971 0.0112099 0.199284 

-0.0444768 0.0248447 0.374166 
-0.0471951 0.0399752 0.266641 
0.00215461 0.00261417 0.00747135 

0.0200636 0.0357985 0.0101879 
-0.0747739 -0.0205058 0.00529095 
0.000777076 0.014065 -0.0240971 

0.00485729 0.0342113 -0.0967372 
-0.0253851 0.012011 -0.0568635 
-0.00109105 0.0126454 -0.188521 

-0.0387829 -0.118331 0.0252306 
0.0788623 -0.00791903 -0.122055 
0.00632628 -0.00193807 0.0408261 

0.00322745 0.00265033 -0.00450138 
-0.00316 -0.00285518 0.00794023 
0.00030902 0.00049119 -0.00335063 

-0.0258466 0.124904 -1.66534 
-0.256999 0.0481002 0.0673188 
-0.0064987 -0.00565534 0.371957 

-0.0225935 0.0913314 -0.0329323 
-0.0483448 0.0776936 -0.0710905 
0.0608412 0.0395611 0.388168 

0.0106446 -0.223982 0.253089 
-0.245319 -0.11557 0.0167582 
0.021693 0.00728291 0.198646 

-0.00162075 -0.0101835 -0.0244218 
-0.0212694 -0.007053 -0.0885628 
0.000854281 -0.0018522 0.0209788 

-0.00131413 -0.0034937 -0.00509618 
-0.00202597 -0.000408648 -0.0034732 
3.87483e-06 3.63251e-05 0.000660707 

0.00697201 -0.0165829 -0.00924713 
0.0289444 0.0104457 0.0332272 
-0.00126882 0.00113078 -0.0222747 

0.011415 0.0228209 0.00770695 
0.00265084 0.00785385 0.00494754 
-0.00580061 0.00215187 -0.0287899 

-0.012188 0.00545664 -0.184429 
-0.00134341 -0.000852376 -0.0886571 
-0.00162004 0.00150032 0.0878205 

-0.022076 0.0131375 -0.73321 
-0.109925 0.0985358 -1.46861 
0.0092844 0.00671798 0.0723466 

0.0289349 0.0702057 0.0659823 
-0.144863 -0.0138948 0.123844 
0.000411673 0.000640838 0.0160762 

-0.0646807 0.153301 -6.20814 
0.104476 0.0441847 1.14698 
-0.0113516 0.00123258 0.55638 

-0.269698 0.523938 -2.67961 
0.175958 0.228591 1.38389 
0.00299762 0.0215172 -0.00912934 

-0.0190133 0.0174993 -0.423752 
-0.00344509 0.0137218 0.388876 
0.00342761 -0.00074118 0.130115 

-0.0673584 0.0237617 0.714158 
-3.93201e-05 0.0341422 -0.641311 
-0.00871244 -0.0065735 0.184741 

-0.0121457 -0.00245324 -0.0742384 
-0.00367873 0.00375939 -0.0968889 
-7.63687e-05 -0.000496962 0.0162028 

-0.125184 -0.0255795 0.769614 
0.28977 0.113462 0.430234 
-0.00587024 0.00795021 0.354793 

-0.223981 -0.11957 1.2194 
-0.149889 0.0675922 0.0105776 
-0.00610479 -0.021944 0.121064 

-0.000149855 0.0238773 0.704289 
-0.000119627 0.00200735 0.64389 
-0.000919721 -0.000335759 0.154616 

-0.0140906 0.0315132 0.0139098 
-0.0363911 0.0204808 -0.227559 
-0.00072964 -0.00210195 0.0152767 

-0.0904261 -0.172659 0.517901 
0.0725874 0.0260169 2.03274 
-0.0149322 0.00307233 -0.0140315 

-0.0505958 0.107854 -9.98805 
0.0786023 0.021819 -1.52567 
-0.000170403 0.00532618 0.00305337 

-0.0217628 -0.156217 0.0193139 
0.13532 0.0641416 0.0967474 
0.00688655 -0.00423424 0.0019467 

0.013588 -0.179503 0.517644 
-0.0826971 0.0066031 0.476255 
-0.00511767 -0.0043073 0.192865 

-0.0768411 -0.390028 69.1001 
-0.00309554 0.0296731 12.1889 
0.000246019 0.00586946 -1.07149 

-0.252966 -0.421309 1.28136 
-0.125843 0.195767 -0.351425 
0.00919983 0.0231938 0.242512 

-0.0489916 -0.0237731 0.137564 
0.478233 0.0330191 0.154441 
0.0698048 0.0290377 0.134672 

-0.00701331 -0.00769857 -0.0141216 
0.00813521 -0.00279751 0.00933249 
0.000835077 0.000222002 0.0141951 

-0.005713 0.0167577 -0.00130398 
-0.00912503 9.44708e-06 0.000340966 
0.000187424 -0.000801725 0.0144603 

-0.0080007 -0.00468361 -0.00350693 
0.0143707 0.0104155 0.0186669 
-0.00264306 0.0018608 -0.0360116 

-0.0135735 -0.0147535 -0.0270291 
0.00553989 0.00198279 0.0103816 
-0.000176593 0.00145235 0.00726457 

-0.0771793 -0.0339968 -0.54533 
-0.0217315 0.0829171 0.982333 
0.0340169 0.0751276 0.252144 

-0.0092942 0.0381922 -0.03949 
-0.0380017 0.0109717 -0.065213 
0.00180297 0.0110746 -0.0265144 

-0.0890386 0.0321428 0.061136 
0.00777414 0.0878173 0.231386 
-0.0159146 0.00818119 0.0825252 

-0.0256911 -0.114172 1.3478 
0.00909552 0.0190368 1.6189 
0.00508076 -0.0138108 0.250736 

0.0136009 0.0377815 -0.0119139 
0.0467699 -0.06461 -0.0615773 
-0.000142176 0.010054 0.0562098 

-0.370778 -0.435646 2.85409 
0.0287706 0.354574 2.43306 
-0.0309558 0.0689842 -0.558643 

0.0165001 -0.04187 0.0125095 
0.0758247 -0.00921933 0.00138033 
0.00666609 -0.000846728 0.332054 

-0.180102 0.265852 0.113292 
-0.104537 0.157218 0.125083 
0.0218841 0.0832966 0.436467 

0.0291499 0.252044 -36.908 
0.0659331 0.126195 -16.318 
0.0127049 0.0711946 1.92972 

-0.0223907 0.0462655 -0.0379537 
0.0178875 -0.037441 0.0332028 
-0.00487204 -0.0103047 0.0283557 

-0.0937793 0.0528847 0.052957 
0.0341991 0.0705909 0.62004 
-0.000649187 -0.00230398 0.0425745 

-0.0490562 0.0774939 -0.119208 
-0.0318783 -0.0038216 -0.0925496 
-0.00245025 0.00218224 -0.0443729 

-0.031699 0.0485368 -0.104965 
0.0126116 -0.011663 0.18009 
-0.00366783 0.0034584 0.0187287 

-0.00702308 -0.0160716 0.304449 
0.0109677 -0.00252849 0.399403 
-0.000305737 0.000444005 0.0400106 

-0.0811459 -0.155942 0.047093 
-0.13902 0.0592735 -0.0809188 
0.00292808 0.0103516 0.0913386 

-0.0145379 -0.0142189 0.00120239 
-0.00579743 -0.00628187 -0.0071019 
-0.00258325 0.00428625 0.0470621 

0.0152366 0.100165 0.349053 
-0.0707182 0.0702032 -0.0548859 
-0.00475832 0.000474661 0.040404 

-0.019431 -0.0429526 0.0418902 
0.0215701 -0.00249283 0.00558435 
0.00057065 0.000103663 0.0363488 

0.000402658 -0.0283388 -0.906127 
-0.00148353 0.012468 0.506971 
0.0011956 0.000623509 0.0811831 

-0.141002 -0.00454934 0.144589 
0.124993 0.0271357 0.0774531 
-0.0676992 0.000197541 0.538064 

-0.0050017 -0.0192654 -0.0506706 
0.011152 -0.00699926 -0.0458651 
6.90076e-06 8.44457e-05 0.00210323 

-0.24458 -0.169533 0.0742064 
0.150243 0.179742 0.0351305 
-0.00364921 -0.0190488 0.437079 

-0.177052 0.122043 -0.435784 
-0.183014 0.173665 -0.15442 
-0.0386269 0.0214977 -0.162745 

-0.0103409 -0.0893684 -0.261559 
-0.14769 -0.0597546 -0.360803 
0.0160544 -0.0274455 -0.133763 

-0.1263 0.0892333 0.293348 
0.0100488 0.0948725 0.284701 
0.019801 -0.00305773 -0.0387166 

0.0097414 -0.0599726 -0.120621 
0.0824135 -0.022436 -0.0681479 
0.0510447 0.06719 1.65879 

0.0829411 0.0720846 0.0933338 
0.0123067 -0.0241692 -0.277817 
0.0168357 -0.00179128 0.0427327 

-0.995099 2.90996 6.41421 
-0.164551 0.890762 1.52416 
0.0194104 0.0492111 0.190394 

-0.0409858 -0.0493733 0.027643 
0.00761096 -0.00700158 -0.0124378 
-0.00327594 -0.00570776 0.0291905 

0.0348485 0.029658 0.217949 
0.0362345 -0.0305179 -0.39776 
-0.0143423 -0.012268 -0.283737 

0.0024712 -0.0707002 0.0301234 
0.0644718 0.0160331 0.0388677 
-0.0131514 -0.0206802 -0.0341152 

-0.00660016 0.00315118 0.0058513 
0.00504429 0.00227441 0.0071233 
-0.000362369 0.000975274 0.00708442 

-0.199505 0.261973 -0.384287 
-0.428596 0.207032 -0.68188 
0.0374105 -0.0228735 0.240243 

-0.00111615 -0.0549378 -0.0351744 
0.0571415 -0.00349305 -0.0378039 
-0.00137774 -0.000657922 0.0295103 