# vtk DataFile Version 3.0
Output file generated by Yade's KinematicLocalisationAnalyser
ASCII
DATASET UNSTRUCTURED_GRID

POINTS 13483 float
473.386 47.8261 0.467378
570.111 77.8522 -0.488935
108.981 6.1407 -0.419033
592.569 10.811 0.566487
419.228 10.7763 0.464336
285.945 42.8609 0.0684649
143.686 7.11027 0.489689
461.719 12.0501 0.205412
415.995 41.6107 -0.158466
543.813 18.3246 -0.56212
194.819 8.93723 -0.0873586
238.331 6.87754 0.320552
501.409 63.0435 0.15742
495.749 26.0713 -0.176077
125.504 18.1674 0.505148
204.483 35.3613 0.410483
201.879 13.2576 -0.311077
263.917 12.4171 0.48723
310.194 38.9791 0.504636
430.837 11.2663 0.675663
372.151 60.2233 0.118965
459.941 73.81 0.347845
589.867 54.3267 -0.510981
539.837 73.8777 0.218989
394.199 19.5005 0.317741
219.915 49.2113 0.138034
412.889 45.1501 -0.496208
472.444 23.0788 -0.328598
39.0722 17.8725 -0.494931
541.127 59.2641 -0.546366
410.352 6.84746 0.51759
15.6681 25.2514 0.316864
583.17 81.1566 0.257056
417.66 2.68642 0.599433
70.191 46.941 -0.10622
427.773 48.5371 -0.402577
436.971 21.9862 -0.588444
309.097 26.6095 -0.172436
436.638 38.0975 -0.299655
319.807 41.0685 0.566772
223.924 14.7055 0.369939
393.061 68.5419 0.0654286
511.878 7.7761 0.177903
177.873 6.20511 0.40524
48.9001 7.39231 0.0941368
59.9627 9.48766 0.288974
526.051 7.26907 0.576415
21.0966 12.6586 -0.330705
474.149 86.7669 -0.325871
519.042 64.3806 0.339672
157.69 33.7187 0.317369
571.878 63.5739 -0.117864
29.1222 32.9205 -0.10757
436.841 3.63002 -0.42447
130.219 7.2686 -0.545421
467.818 65.7589 0.552509
418.067 45.7311 0.123315
161.824 1.01907 -0.311212
28.7884 2.482 -0.287657
313.168 19.1475 0.327114
487.635 92.8333 0.131597
385.049 40.3334 -0.223558
349.578 1.05477 0.217799
529.175 16.455 -0.629576
22.8903 50.3991 0.23574
236.734 37.524 -0.421403
541.993 12.8664 -0.36374
510.163 93.4873 0.361014
363.308 10.5612 -0.648513
461.757 5.46725 0.63301
553.961 51.3624 0.450408
119.521 7.85049 0.285722
417.59 43.4767 -0.142123
406.067 22.0546 -0.150064
269.936 19.5472 -0.356898
18.5828 14.6579 0.340563
592.171 75.5789 0.391631
303.615 44.9715 -0.360635
521.91 57.0455 0.367729
524.928 11.868 0.414647
585.488 25.7631 0.262055
387.68 43.4117 0.191309
84.6794 42.1291 -0.284445
527.943 80.9716 -0.265713
492.859 70.2859 -0.114723
590.566 65.6579 -0.10894
582.147 2.79868 -0.660953
268.882 34.3107 0.521651
502.699 10.0903 0.302726
22.1928 6.62285 -0.654065
123.441 40.225 0.185254
426.956 24.1315 0.257577
575.802 51.4881 0.496284
180.727 29.8572 -0.256669
38.5318 38.9914 0.296319
417.511 0.989404 0.320558
219.178 8.89276 -0.469147
550.87 62.783 -0.375302
568.76 49.9696 0.252985
323.236 26.9601 -0.246254
148.842 30.774 0.502046
444.245 58.6758 -0.448877
337.821 23.8654 -0.505024
375.327 51.0017 0.0992794
336.667 10.8984 0.515062
447.997 13.0824 -0.160792
596.172 16.1069 -0.283816
72.5677 42.2062 -0.426685
302.791 5.66405 -0.180259
456.937 10.694 -0.467352
327.519 54.8837 0.476655
22.6649 29.0472 0.459156
27.6637 6.2649 -0.321872
458.832 43.2885 0.399267
420.584 40.3483 0.177525
23.0387 44.445 0.405163
86.1723 34.3222 0.250552
294.912 18.9484 0.328573
478.558 26.9113 -0.218669
397.215 50.8424 0.324313
554.256 8.20398 -0.67359
548.324 6.52002 0.257978
353.793 51.8992 -0.127749
492.366 49.0142 -0.115619
222.001 17.846 0.576627
299.881 4.56955 0.474413
94.6737 34.0591 -0.398362
106.615 25.7899 0.261889
440.778 62.327 0.08212
281.233 20.0463 0.489783
538.188 50.8799 -0.145151
515.628 93.2371 -0.106074
404.656 33.9802 -0.44519
570.581 13.3038 0.481053
369.148 29.3237 0.246833
255.86 27.4831 -0.295264
518.727 80.602 -0.318291
257.435 32.8522 0.375501
469.621 14.8885 -0.259238
304.7 41.638 0.232582
420.718 22.7355 0.56551
336.474 41.6873 0.0940126
374.151 19.227 -0.185618
292.122 49.6666 0.440071
176.887 31.3015 -0.140482
574.588 78.2585 0.172792
593.19 19.4029 -0.33052
5.76524 13.1884 0.417899
373.492 28.8994 -0.496828
33.608 27.0184 -0.0858562
346.396 44.5182 0.532011
353.763 37.4033 -0.260525
66.4299 12.0682 -0.531865
45.3667 35.548 -0.505711
211.451 14.1637 0.484203
488.203 84.1428 0.41179
468.783 25.1955 -0.577589
68.6372 22.1259 -0.504034
544.237 73.0521 0.44665
566.849 8.4374 -0.580401
505.892 84.8361 -0.450011
532.351 4.82058 0.507453
447.931 40.1963 0.497589
460.943 72.9339 -0.647622
428.6 30.2121 -0.36644
589.867 6.0625 0.379464
210.065 25.6456 -0.113512
119.179 37.6546 -0.223284
231.565 6.617 -0.473265
85.5933 4.79018 0.281351
56.4984 11.4117 -0.207539
255.81 40.1597 -0.418101
16.2558 26.8828 -0.377795
456.831 25.5247 0.445559
476.588 81.9494 -0.189489
394.499 28.9862 -0.361914
592.519 97.9316 0.342371
357.226 11.4338 -0.195764
398.623 71.3975 0.396301
444.224 3.07951 -0.422812
19.7071 28.3569 -0.372438
472.347 5.72889 0.596572
450.241 5.7646 0.637729
193.174 11.2426 0.509609
371.123 17.274 -0.227283
285.666 6.28312 0.492635
345.453 26.6719 -0.351433
569.441 88.1215 -0.0359189
180.397 26.7339 0.481737
579.209 13.7617 -0.291204
567.213 83.0302 0.308183
342.429 16.9478 0.270259
539.49 4.07004 0.456184
474.453 40.207 -0.490219
549.25 32.3281 -0.493888
392.995 75.8368 0.273208
416.415 25.2107 0.491371
389.274 55.3943 0.25592
388.237 10.6942 -0.334301
508.165 87.3159 0.260509
508.723 80.6063 0.286632
178.983 40.481 -0.374263
584.027 27.4181 -0.126226
461.904 74.0455 0.296184
10.9185 18.3733 0.182445
356.728 32.8433 0.35652
175.62 24.224 0.457745
86.322 43.1345 -0.219399
575.543 43.3256 0.450275
500.598 85.346 -0.221595
295.072 31.5687 0.398382
442.184 12.3508 0.619522
75.1945 47.1763 -0.206909
231.046 27.0709 -0.478479
454.501 32.0953 0.417312
411.721 34.1791 0.480046
245.549 0.872925 -0.54322
452.149 54.0039 -0.515709
440.092 69.9791 -0.450592
409.395 52.2364 0.381125
424.002 1.90571 -0.611282
531.385 31.5358 -0.378791
167.841 12.8231 0.208433
422.17 66.0675 -0.443443
448.886 66.8308 0.149492
65.6082 0.965358 0.331973
236.579 5.31556 0.232872
592.3 21.1456 0.225702
586.898 26.601 -0.593166
596.119 24.1463 -0.678904
279.617 10.1255 -0.251931
557.058 38.6517 0.443063
369.725 66.087 -0.31423
391.389 1.29435 0.588004
498.988 73.0474 -0.549024
23.3069 37.7529 -0.539761
305.977 47.7837 0.534342
237.401 3.53905 0.467523
587.694 83.3757 -0.202035
541.18 96.2295 0.224935
266.115 13.8177 0.285925
513.455 70.8401 -0.0892132
458.733 2.64987 0.33184
448.76 9.1687 0.596942
87.9828 19.0351 -0.525851
278.876 0.99491 -0.277607
313.215 2.23964 -0.376623
12.6988 8.22866 -0.631758
4.5359 32.5849 0.277876
151.716 18.737 -0.314293
62.2037 43.4816 -0.221639
60.8535 30.5139 -0.346275
371.465 15.5116 -0.626077
338.552 45.8761 0.465051
569.447 64.2766 0.133652
18.2322 4.51901 -0.262644
62.9639 7.42029 0.224977
480.805 55.8808 -0.159265
271.679 2.44123 0.421258
328.606 22.7714 0.0870777
221.541 4.93643 0.388633
507.269 54.4714 -0.199162
392.811 9.13279 0.68047
558.573 38.3241 -0.460677
491.901 53.1599 0.320994
526.653 48.883 0.110951
366.329 33.4796 0.580985
95.3218 48.6369 -0.311732
445.988 62.1085 0.0848336
554.465 18.6527 0.184028
224.303 34.6509 -0.251091
28.1105 18.9233 -0.167126
307.355 14.2831 0.637501
100.013 43.3934 0.46884
250.843 47.6728 -0.225722
375.246 2.23489 -0.352573
577.22 56.4557 0.381781
527.507 0.788614 0.595889
303.474 4.00317 0.537025
279.158 30.1551 0.120509
389.801 51.8793 0.13154
73.9772 8.36988 0.50806
185.171 46.9898 0.398309
570.43 56.4248 -0.40821
416.832 64.4859 -0.0777985
187.237 42.6439 -0.318987
150.906 45.8696 0.38998
593.366 61.0312 0.424055
594.681 18.4648 -0.606488
496.714 5.30968 -0.525617
178.676 26.5249 -0.105712
446.878 41.8276 0.121193
449.738 39.8638 0.259103
361.035 7.58682 -0.133972
412.974 0.958341 0.480504
566.535 66.28 0.495055
78.8243 33.7032 0.231062
511.827 52.2541 -0.58077
254.237 17.8399 -0.312008
8.46759 2.55758 -0.389202
117.743 39.2254 -0.194227
61.4336 25.6121 0.470551
536.405 60.1016 0.327598
582.864 90.6829 0.185024
173.013 30.2867 -0.170398
588.325 18.2502 0.491515
40.2712 40.606 -0.254335
85.0123 32.6917 0.157443
501.728 32.5344 -0.483646
365.847 19.6059 -0.568826
435.601 22.9444 0.164942
225.097 32.8451 0.194583
504.726 14.9908 0.54946
597.616 15.0355 0.517163
25.329 37.7291 -0.358665
253.728 7.90903 -0.202804
209.573 16.2403 -0.309461
1.10012 36.8677 0.164415
212.534 14.8147 -0.474866
199.494 11.2692 0.121392
201.744 26.9607 0.274966
124.783 29.6673 -0.126095
451.671 21.3085 -0.448028
156.027 14.6888 -0.426575
582.957 79.1439 0.235445
163.61 4.30073 0.568366
42.8592 41.1062 -0.408646
575.64 95.8428 -0.426724
262.578 36.0046 -0.385162
524.733 59.828 0.498304
582.495 57.9787 -0.507505
277.957 11.1969 0.236199
545.105 49.9933 -0.382406
301.539 2.37219 -0.393059
364.302 31.1885 0.440599
522.479 35.859 -0.554107
97.482 12.5166 -0.439228
414.492 3.9361 0.449383
560.066 34.5152 0.209819
80.6771 7.81772 -0.318163
261.661 17.6291 -0.222464
372.625 12.7017 0.351126
590.513 7.75175 0.6067
354.13 1.97592 -0.580038
164.751 40.8436 -0.28798
554.314 21.0223 -0.566885
120.972 38.6424 0.211863
245.94 36.0906 -0.381364
355.588 27.9498 -0.212906
472.01 16.5173 -0.488742
344.435 10.4838 -0.665615
391.045 35.7594 -0.569096
569.763 79.3695 -0.40342
42.736 12.0811 0.207104
276.502 47.346 0.350302
344.648 36.6916 -0.46672
361.522 23.9668 -0.327116
437.851 82.313 -0.356864
560.152 62.068 0.292343
513.912 82.3192 -0.350692
212.107 36.5548 0.406997
12.6312 36.36 -0.198488
506.971 81.4906 -0.146845
424.871 78.2972 -0.458388
215.602 42.1608 -0.162463
525.821 74.7106 0.112285
141.012 9.61813 -0.195118
334.097 29.2969 0.275548
390.788 53.8206 -0.111427
366.432 22.6374 0.213752
566.751 77.8579 -0.344191
375.527 4.85445 0.67435
43.4234 29.1606 -0.29233
400.16 45.486 0.405564
401.251 76.0855 -0.323267
588.905 77.3107 -0.236823
548.371 68.8321 0.239552
447.771 24.2675 -0.185658
579.278 72.8676 -0.477054
271.974 3.72385 -0.618657
350.941 43.4966 0.510632
26.3033 46.229 0.312178
543.405 57.2897 0.192353
485.361 31.6121 -0.562647
402.592 0.74227 0.544409
116.702 4.82353 -0.381375
391.566 72.6644 0.0996154
10.9113 0.884245 -0.297911
589.018 11.7555 -0.163906
340.843 51.3006 -0.457799
500.326 13.6046 0.396759
[...]
POINT_DATA 13483
TENSORS Strain_matrix float
-0.147652 -0.0677789 0.620774 
-0.424071 -0.0740163 0.0131507 
-8.70366e-05 -0.00582936 0.00787699 

-0.00858032 0.0542959 -2.46996 
-0.0115272 0.0617892 -2.50892 
-0.00356449 -0.00797524 0.110643 

-0.00331947 0.00243053 0.00728995 
0.00159478 0.00351994 -0.00245438 
-0.000343452 -0.000398027 0.00178471 

-0.0339676 0.0766172 -0.304415 
-0.10467 0.00991558 -0.275574 
-0.00378921 -0.00476275 0.0654008 

-0.187775 0.0714848 0.385909 
0.231927 0.209111 0.774994 
0.00309587 -0.00585739 0.0239178 

-0.0138355 -0.0166204 -0.0358127 
-0.0201922 0.0402758 -0.0150925 
0.039672 -0.0688003 0.0114517 

-0.00602605 -4.9113e-06 0.0209615 
-0.00311902 0.00560627 -0.369211 
-0.000452657 -0.000905911 0.0256743 

0.0116609 0.01385 0.00792239 
-0.0152726 -0.00929049 0.0118427 
0.00088334 0.000471484 0.000393531 

-0.0485583 0.0397701 0.256591 
-0.0545597 0.00222673 0.435077 
0.00102387 0.00122719 0.0128339 

-0.00524123 -0.0170325 -0.233887 
-0.0438323 -0.0318166 -0.232361 
-0.00417236 -0.00682329 0.0623601 

-0.013375 -0.0356922 0.0163771 
0.0221857 0.00721266 -0.00583042 
-0.00199571 -0.00025243 0.0123083 

-0.144305 0.0176797 -0.718268 
-0.00318563 0.0938452 -0.845568 
0.0108533 -0.0218568 0.229468 

0.00905781 -0.091423 0.0855998 
0.123157 -0.0106468 -0.0638383 
-0.0043988 0.00183703 0.0156231 

0.00681994 -0.0599179 -0.0137185 
0.0588037 -0.00992578 0.0297379 
0.0223472 -0.0206681 0.0245192 

-0.00202543 0.0416599 -0.235988 
0.0215148 0.0258707 0.193174 
0.00292514 0.00284275 0.042657 

-0.0421695 -0.0305211 0.23325 
0.00304441 0.00573264 0.757296 
-0.00289911 0.00616995 -0.0738276 

-0.00622137 -0.0232237 0.0118643 
0.00924664 -0.000874444 -0.0196564 
0.000988345 -0.00168136 0.0150389 

-0.00307163 0.00905371 -0.0410351 
-0.0563336 0.000904844 0.0338885 
0.00166923 -0.00509908 -0.00154868 

-0.0289311 -0.0205831 0.753731 
0.0424684 -0.0149454 2.58609 
0.00256939 0.00166263 -0.118173 

-0.09967 -0.0163802 3.33852 
-0.110182 0.0765236 -0.525304 
-0.00287603 -0.0032767 -0.25317 

-0.0228203 -0.0283256 0.0220728 
-0.0197129 -0.00855717 0.00558104 
-0.000198117 0.000847306 0.0462852 

0.0192842 0.135331 -0.0568391 
-0.163176 0.0121224 0.0127589 
0.00320621 -0.000580891 -0.0146363 

-0.00800202 -0.0535681 -0.560161 
0.0388753 0.0110251 0.320022 
-0.00134345 0.00150818 -0.0098335 

0.00714916 -0.00255085 -0.0133387 
0.018627 0.00534411 -0.0292402 
0.0109841 0.00118542 -0.000248295 

-0.176448 -0.098878 -0.105396 
0.0164512 0.230243 0.50246 
0.00223348 -0.00609736 0.00085322 

-0.0868801 -0.430145 0.553663 
0.210256 0.228939 -0.345142 
-0.0289733 0.00615183 0.244528 

-0.0632023 0.0373071 1.58251 
-0.0934288 0.0731279 0.212189 
0.000743214 0.00141744 -0.00418676 

-0.0610944 -0.282932 -0.488878 
0.146002 0.00884041 -0.513037 
0.000887769 -0.00401257 0.000620539 

-0.114239 -0.166369 0.802972 
0.0504729 0.126844 -3.26551 
-0.0287249 0.0133324 -0.100018 

-0.160727 0.0564047 -0.636662 
-0.162154 0.0732396 -0.0748 
0.00776853 0.0108267 0.0555512 

-0.193902 -0.463589 0.209832 
0.53291 0.272697 -0.0575018 
-0.0135092 -0.01304 0.255472 

-0.000792815 -0.226174 -0.70944 
0.0456754 -0.0359247 -0.00588845 
-0.00850013 0.00565609 0.0516486 

0.0105497 -0.00136636 0.00881153 
0.0208831 -0.00390793 -0.096849 
0.042059 0.0292555 -0.337449 

-0.276476 0.0403205 -0.230805 
0.0813453 0.267666 0.662098 
-0.00719565 0.00126446 -0.225408 

-0.0050822 0.013502 -0.0032394 
-0.0125275 0.00300774 -0.00415119 
-0.000563005 -0.000525916 0.00459307 

-0.117092 0.0597879 -0.933404 
-0.120765 0.0290917 -0.994889 
-0.0100676 -0.0146072 0.153117 

-0.0489052 0.152409 -0.635433 
-0.0603257 0.0673593 -1.8873 
-0.00302971 0.00656902 0.14212 

-0.183989 -0.228966 -0.291897 
0.0557046 0.0703149 -0.325158 
0.000249078 0.005256 0.0564002 

0.00914558 -0.105681 0.0545241 
-0.101369 -0.0170767 0.477916 
0.0256674 0.0456716 0.213138 

-0.0565109 0.0384007 5.63979 
0.102289 0.0905883 8.66267 
-0.00132632 0.000682442 0.733381 

-0.0748778 -0.0586478 -0.00712351 
0.0255647 0.0517 -0.195799 
-0.00453615 -0.015394 0.00232617 

-0.0375876 -0.143814 0.00107454 
0.181979 0.0424013 -0.121024 
-0.00067567 -0.00056639 0.0735862 

-0.122783 0.220127 -0.124197 
-0.244125 0.147494 -0.179728 
0.00410705 0.0131336 -0.0688288 

-0.0168455 0.0377858 -0.0652032 
-0.0273363 0.00409582 0.138065 
0.00232597 0.00403633 -0.0150457 

-0.0538407 -0.0443598 0.0614063 
0.0625248 -0.000310765 -0.0397055 
0.00295651 0.00204437 0.0704091 

-0.0609304 -0.0459318 0.246137 
0.010436 0.0844259 -0.0711007 
-0.0064485 -0.0118884 0.286692 

-0.00111014 -0.0214325 -0.107449 
0.0165224 0.000489794 0.0410097 
-0.00263344 -0.000128125 -0.0382567 

-0.00200492 0.0188672 0.0259543 
-0.0336112 -0.0318614 -0.011353 
0.000846117 -0.0006263 0.0461535 

-0.0307044 -0.208525 0.193237 
-0.0062472 0.0861482 -0.325832 
-0.00137064 -0.0145585 0.185826 

-0.0289453 -0.0966336 -0.030282 
0.0702737 0.0123537 0.00845729 
0.00027055 0.00155528 0.0428189 

-0.0426531 0.0391428 0.295822 
0.00381677 0.071377 0.415052 
-0.0002033 -0.00524411 -0.0116951 

-0.0181401 -0.00696281 0.0755548 
-0.0140715 0.0208003 -0.0928021 
0.00106703 0.00299245 0.059889 

-0.0111701 -0.333732 -1.03656 
-0.0214403 0.011095 0.398781 
-0.00513663 -0.00750673 -0.0380141 

-0.0495407 -0.0522008 -0.0171758 
0.0441913 0.0408832 0.255268 
0.00396224 -0.013307 0.107997 

-0.014808 0.0187728 0.295481 
-0.00500372 -0.0100057 -0.0747078 
-0.0012073 0.00174859 -0.0307117 

-0.118629 0.0541532 4.03072 
-0.294534 0.0854357 1.19096 
-0.00797816 0.00177477 -0.210975 

-0.115417 0.0916101 -1.15844 
-0.362791 0.22908 -1.00058 
0.000878602 0.00429665 -0.0259856 

-0.0158958 0.0613492 0.611171 
0.0192807 0.0194278 -0.50446 
-0.0269854 0.0565911 1.21334 

-0.0190224 0.0838605 0.0932958 
-0.0406377 0.0211729 0.0677927 
-0.0136129 0.0392606 0.236253 

-0.119236 0.0280279 1.62422 
0.114585 0.186149 0.485411 
-0.0267719 -0.0110056 0.0268186 

-0.239145 0.788641 0.580677 
-0.0886407 0.418903 0.330781 
0.000806802 -0.00771591 -0.0153699 

0.0113414 -0.234668 -0.239295 
0.282261 0.0470034 0.521932 
-0.00432309 0.0140144 0.181573 

-0.0246709 -0.024846 -0.0147539 
0.0150894 -0.0144859 0.0456218 
-0.00381919 0.0104572 0.01941 

0.000938092 -0.0316504 -0.00723258 
0.0129059 -0.00136358 0.0210738 
-0.00124338 0.000996766 -0.0305092 

0.0847418 0.00959014 -0.165751 
-0.0207785 -0.0705388 -0.341806 
-0.0161733 0.0589818 0.00651561 

-0.198924 -0.131141 0.361012 
0.341342 0.230852 0.415853 
0.111795 -5.26963e-06 0.739392 

-0.0150753 -0.0649617 -0.0364043 
-0.00462364 -0.00424158 0.0034622 
-0.0100938 0.00056024 0.0151462 

-0.224072 0.13996 2.17036 
-0.0739467 0.167282 1.52818 
0.000452099 -0.0114849 -0.182492 

-0.0608271 0.0187917 -0.0714397 
-0.02177 0.00530851 0.142786 
-0.00199488 -0.00252687 0.0328844 

0.00842953 -0.00113261 -0.00241144 
-0.00992721 0.00207193 -0.0111096 
-0.000222165 0.00130335 -0.00643533 

0.00538122 0.0656213 -0.276657 
-0.0625662 0.0484861 -0.0057771 
0.00175188 -0.00878483 -0.0583998 

-0.00490473 0.0187544 -0.00818658 
-0.0050789 0.00159488 -0.0121768 
0.000702951 0.000205349 0.00240543 

-0.105968 -0.21997 -1.02265 
-0.0853384 0.0341932 -0.112897 
-0.00241531 0.00141999 0.00137513 

-0.247079 -0.76612 0.69776 
0.189404 0.199078 -0.381051 
-0.0400233 0.0049639 0.0806279 

-0.00673623 -0.0140023 0.199839 
0.0228184 -0.0124473 0.686735 
0.00202101 0.00380698 -0.0263779 

-0.00859122 0.0411958 0.0130843 
-0.0418815 -0.00571719 0.00696178 
-0.00103605 0.00150407 0.0110945 

-0.00239576 -0.00225244 0.0153404 
0.00764378 -0.00551279 0.0184725 
0.000344223 -0.000816297 0.00526286 

-0.0330687 0.0600954 -0.392656 
-0.0698529 0.012151 -0.112281 
0.00441144 0.00537372 0.000882405 

0.00133863 -0.0851179 -0.0864765 
0.0615208 0.0146297 0.0195367 
0.00103612 0.00288889 0.064596 

-0.0107143 -0.0359314 -0.0231613 
0.0333543 0.00252684 -0.0130178 
-0.0023401 0.000311457 -0.00482749 

-0.0199157 -0.0385617 0.193283 
-0.0544038 0.0821642 0.122813 
0.00443033 -0.0293924 -0.0234378 

0.0253941 -0.167417 -0.0402519 
0.228203 0.024969 -0.128512 
-0.0148969 0.000940244 -0.0371402 

-0.0052481 0.00762274 0.00646523 
-0.00782148 0.00463487 0.0328473 
0.000393793 0.000774504 0.00613199 

-0.00353089 -0.00318805 -0.0103343 
0.004993 -0.000461178 -0.0171286 
0.000502086 0.000104091 -0.000406762 

0.00994046 -0.0656245 0.00229835 
0.0742259 -0.00687947 -0.0268384 
0.000343093 -0.0120926 -0.0335448 

-0.00218424 -0.0187332 -0.00691634 
0.0296239 -0.00252302 0.0266585 
-0.000619636 -0.000533803 0.0149076 

-0.00272858 -0.0951564 -2.8052 
0.0298705 0.0350714 0.344335 
-0.0364894 0.00511859 0.137897 

-0.131625 0.0464846 -5.22307 
-0.112704 0.130703 -1.4331 
0.0216393 -0.00199034 0.365468 

-0.139425 -0.102765 -0.308257 
0.0731451 0.0740449 0.126086 
-0.0176121 -0.024777 0.11576 

-0.0382761 0.00171658 4.41581 
-0.00416416 0.0177506 -9.31308 
0.00238578 0.00290287 0.32785 

0.00360915 -0.00277833 -0.00507261 
0.00984363 -0.0023064 0.00730369 
-0.000339923 -0.00043568 0.00228486 

0.0412874 0.0503915 -0.00781921 
-0.0256363 0.0296835 0.0767139 
0.0414292 0.00161705 0.0235799 

-0.0062465 -0.0829115 0.0966382 
0.0850226 0.0150199 -0.127041 
0.000517177 0.00068668 0.00381978 

0.00777981 -0.0443792 -0.0441034 
0.0219638 0.00533243 -0.0360504 
-0.000753704 -0.00251718 0.00271447 

-0.000567147 0.0594713 -0.018572 
-0.093004 0.00118689 0.00182733 
-0.00265777 -0.00152462 0.00525995 

-0.334376 0.132901 -0.344311 
0.132174 0.311548 -0.219859 
-0.0968453 -0.0297145 0.196854 

-0.0195053 0.0304362 0.0701152 
0.0122636 0.000647419 0.102367 
0.011374 -0.00808608 0.0485817 

-0.0358345 -0.0904201 -0.0386989 
0.0731573 0.0592448 -0.0138208 
0.000630523 0.00980754 -0.0141857 

-0.0545197 -0.26838 0.376049 
0.0219821 0.0396359 -0.0338136 
0.00449809 -0.00881478 0.0432403 

-0.0889171 -0.270204 0.211888 
0.661813 0.128987 0.46921 
-0.0162554 -0.039138 0.0953171 

-0.0537964 -0.0209414 1.96795 
-0.0598374 0.035573 -0.360849 
0.00837207 0.0061909 0.0753595 

-0.023212 -0.000305966 0.838766 
0.00292223 0.0481922 -0.788889 
0.00140758 -0.000346536 -0.013005 

-0.0661202 0.0655794 -0.332569 
-0.0191048 0.0921738 1.20998 
-0.00227371 -0.00129754 0.140449 

-2.17978 2.4893 1.84992 
-1.33735 1.52582 2.45201 
0.0170042 0.0128124 0.0947187 

-0.349669 0.349374 1.63105 
-0.320442 0.35539 0.722419 
-0.0298978 0.0535801 0.389763 

-0.00809623 0.0577006 0.031321 
-0.0452805 0.00364502 0.0604365 
-0.00486725 -0.0116027 0.0137651 

-0.0825257 -0.112667 0.0878126 
0.0972646 0.178525 -0.04039 
-0.0122849 -0.0163456 0.0567434 

-0.00508638 0.00866216 0.00559914 
-0.0106761 0.00152261 0.0129222 
0.00075624 -0.000421669 0.0115395 

0.0378077 -0.0566062 -0.146442 
-0.0203978 0.0196248 0.042206 
0.000161983 0.00145317 -0.00739072 

0.01112 0.00813627 0.0132786 
-0.0221073 -0.00060489 -0.010937 
0.00127801 -0.00018587 -0.003387 

-0.0477911 0.0541408 8.82676 
0.110595 0.0538511 5.37623 
0.000458478 0.00286574 0.438578 

0.0102843 -0.180836 -0.584063 
0.189385 0.0763423 0.0612113 
0.000832344 -0.00862522 0.0573509 

-0.105069 0.124078 -0.204407 
0.00183797 0.0966657 0.00156423 
0.0292281 -0.0531064 0.128576 

0.00922162 0.0653721 -0.183737 
0.00617802 -0.0265215 0.00260854 
0.0309242 0.0342194 -0.0226164 

-0.0283874 0.0621083 0.0544145 
-0.0863763 0.0299427 -0.0976476 
0.0166672 0.0237486 0.154408 

-0.00159576 -0.0154528 -0.116405 
-0.0500839 -0.00336913 -0.276435 
0.0189918 -0.0117687 -0.203221 

-0.000453473 0.00317143 0.0145733 
0.0119061 -0.00850788 -0.00848991 
0.000383433 0.000893359 0.00894727 

-0.0317295 0.134612 -0.190802 
-0.181875 0.00805865 0.0155758 
-0.0767183 0.0151908 0.172853 

-0.0135425 0.0121492 0.195254 
-0.0302169 -0.0429672 0.0127534 
-0.0287434 -0.0232309 0.0123362 

0.0203387 -0.0801283 -0.00887306 
0.0929804 0.0125696 -0.0031568 
0.00108323 -0.003451 -0.0458493 

-0.0241106 -0.0257685 2.10788 
0.0161566 0.0339499 -1.76347 
-0.0020206 -0.000178404 0.113189 

0.00318545 -0.0135543 0.000245269 
0.0211513 -0.00453561 0.00999393 
-0.00111228 -0.000346543 0.00385663 

-0.011144 -0.079101 -0.0149144 
0.0853101 0.0134957 0.0440252 
0.00338186 0.0306046 0.518466 

-0.0130696 -0.0590491 0.0119541 
0.0445998 0.00204899 0.0180109 
0.00023091 -0.0336837 0.0487535 

-0.0589685 -0.0265912 -3.21781 
0.0766817 0.0755531 2.07275 
0.00082016 0.00110106 0.319092 

-0.162513 -0.129657 -0.127243 
-0.118797 0.0507532 -0.627219 
-0.0429911 -0.0456848 0.0219247 

-0.00493021 0.0104423 -0.0177437 
-0.0123906 0.0010847 0.0104327 
0.000116265 0.000188045 0.00702036 

0.00472915 0.0422996 0.0099508 
-0.0176091 0.000578986 -0.0105216 
-0.00199476 0.0013636 -0.0103071 

0.0132174 -0.0173668 0.00340951 
-0.0103156 -0.0149976 -0.0156468 
-0.00490521 0.0031189 -0.00658789 

-0.114053 -0.0542552 -0.560053 
-0.0352063 0.0205917 0.230036 
-0.00340769 0.0110121 0.0625032 

-0.111044 -0.0196482 -0.368824 
-0.0177761 -0.00250127 -0.135644 
-0.000911849 0.00622679 0.132875 

0.0423251 -0.20387 -0.303442 
0.149572 -0.0268302 -0.295333 
0.0335214 -0.00886685 0.0290932 

-0.0648157 0.146335 0.960768 
0.0261575 0.0504423 -0.455764 
0.00113057 0.00687491 0.178952 

0.0271404 0.00306821 0.0885135 
0.00465061 -0.0116524 0.00843452 
0.0255978 0.0070062 0.0445611 

0.0405023 -0.552248 0.124795 
0.0417801 -0.100502 -0.254594 
-0.0323169 0.029799 0.019753 

-0.0679835 0.0475845 0.749853 
-0.0485189 0.0549914 -0.16168 
-0.00238261 -0.00176672 0.0285808 

-0.0216889 -0.0739317 0.00264779 
0.0903212 0.0159912 0.00824157 
-0.000862078 0.000774446 0.0185321 

-0.01884 0.102854 -0.488254 
0.0415527 -0.0014155 -0.340278 
0.0118111 -0.00686089 -0.0559447 

0.00830485 0.0190444 -0.0291778 
-0.0215435 -0.0151979 -0.00218493 
-0.00110686 0.00125736 -0.000828713 

-0.0270739 0.0137558 0.0691483 
-0.0758876 0.00151071 0.0161456 
0.000197404 0.00538293 0.0553034 

0.0633682 0.0701905 0.036256 
-0.0680382 -0.0133985 -0.180239 
-0.00192635 0.000131024 0.0361066 

-0.0474916 -0.186479 -0.142699 
0.211788 0.0206887 0.092917 
0.0132094 -0.0184304 0.288987 

-0.0695468 -0.0127488 0.116379 
0.114421 -0.0491771 0.4949 
0.00882301 -0.0221309 0.010648 

-0.027133 0.0109974 -1.62552 
-0.069834 -0.000805958 -1.53977 
0.00581103 0.00556267 0.252438 

-0.0040564 0.00169301 0.0360737 
-0.036573 0.0100948 -0.0603317 
0.00529507 -0.0445598 0.149706 

0.0150723 -0.0227093 -0.013705 
0.0115864 -0.0210023 -0.00465979 
0.00038146 0.000650438 0.00982555 

0.00169258 -0.140224 0.033934 
0.147484 0.0134418 0.0187706 
0.0043541 0.00829891 0.0122188 

-0.0104159 -0.0567797 -0.193892 
0.0928481 0.0106027 -0.02705 
0.0423841 -0.0110292 -0.102573 

0.141512 -0.31328 2.31536 
-0.194096 -0.129046 -0.565539 
-0.00167665 0.00946142 0.117737 

-0.0266874 0.128231 -0.10045 
-0.0670463 0.12558 -0.36895 
-0.000262114 0.00118782 -0.0184282 

-0.14473 0.163921 -0.975234 
0.029136 0.109239 -13.6806 
0.00236573 -0.00120149 0.148995 

-0.602851 0.533234 -1.39026 
0.0366257 0.728372 -0.731637 
-0.0157233 -0.0592753 0.559011 

-0.0258763 0.0445969 -2.5615 
-0.0126778 0.0320435 1.45951 
0.00135735 0.000909681 0.00679212 

-0.00505358 0.0350223 -0.258463 
-0.0458641 0.0101136 -0.954918 
0.00588308 0.00391325 -0.202151 

-0.0406463 0.0226635 0.0101133 
-0.0775995 0.052542 -0.203627 
0.000594574 -0.00242327 0.0882831 

-0.0207883 -0.0972401 -0.0973682 
0.0307615 -0.137995 0.0393453 
0.000729413 0.016613 0.171663 

-0.0918907 -0.192085 0.248952 
-0.0306294 0.0512556 0.27506 
0.00451563 -1.58873e-05 0.117086 

-0.0300094 0.00479295 1.95206 
-0.0153069 -0.000795711 3.64546 
-0.000555849 0.0021285 0.144577 

-0.0482721 0.0784003 0.430296 
-0.00563436 0.125831 -0.0829805 
-0.000951071 -0.00123686 0.0715405 

-0.226174 -0.542809 0.668631 
0.2564 0.448328 -0.27697 
-0.0488144 -0.0149086 0.0876202 

-0.0566688 -0.0816357 -3.10927 
0.0759496 0.0263604 -1.56379 
0.0278482 -0.00601506 0.408288 

-0.0462354 0.015144 0.0711698 
0.0026385 0.15396 -0.302206 
-0.00885127 -0.00137516 -0.0273861 

-0.0416461 -0.0610781 -0.687837 
-0.23213 0.0877103 0.255733 
-0.0143383 0.0151685 -0.232827 

-0.075084 -0.227461 39.0999 
-0.00556151 0.0249524 -2.99642 
2.50288e-05 0.0076446 -2.07668 

0.0594801 0.0796415 0.841197 
-0.160648 -0.0307882 0.591595 
0.0106149 0.0073852 0.218184 

-0.31734 0.0615982 -0.255847 
-0.0266465 0.236376 0.0025892 
0.027851 -0.0146147 -0.142705 

0.00821631 -0.0165457 0.0593315 
0.0157867 0.00158388 -0.0403555 
-0.0029321 0.000751186 -0.0184268 

-0.000427218 -0.00214483 -0.000774557 
0.0168154 -0.000125939 0.00268377 
-0.000117902 -0.000525015 0.00113654 

-0.0131318 -0.0495761 0.10961 
0.0877785 -0.026717 -0.624702 
0.0014743 0.0032584 0.0916441 

0.00332739 0.00692097 0.00485291 
0.000292266 0.00331346 0.0108565 
0.000174585 1.04875e-05 -0.00507872 

-0.0134169 -0.0245648 -0.446384 
-0.121669 0.0428818 -0.0726549 
0.0323291 -0.0127035 0.798979 

-0.0301215 0.0862283 -0.191371 
-0.00624847 0.0357338 -0.670096 
-0.00610677 -0.00531008 0.0746418 

0.00307984 -0.221342 -0.465204 
0.0264131 0.029404 -0.395045 
0.00043779 0.00101582 -0.0274722 

-0.00507796 0.0847868 -0.0631659 
-0.0447127 0.0271231 0.776721 
-0.00224602 0.0102207 0.177182 

-0.0893701 -0.0397464 0.0226973 
-0.11161 0.128082 0.0294038 
-0.00294673 -0.0138719 -0.0894882 

-0.399758 -0.249053 1.312 
0.336341 0.197452 0.283769 
-0.00172868 -0.00482221 0.0708171 

-0.00226187 0.0034232 0.00194378 
0.00180207 0.00228188 0.0262689 
5.24782e-06 0.000715826 0.0208194 

-0.0181728 0.0339566 -0.030575 
-0.0250192 0.00921985 0.0395783 
-0.00302317 0.00458517 4.52932e-05 

-0.0826497 0.018833 -0.133359 
-0.0274141 0.121632 0.00230037 
0.0189419 0.000693832 0.0296329 

-0.00414443 -0.0161143 -0.012468 
-0.0116437 0.015694 -0.01215 
-0.00145046 -0.00681122 -0.0034017 

0.00470351 -0.229707 0.181811 
0.24702 -0.0650772 0.783152 
-0.0211718 0.000603019 -0.17348 

0.0133196 -0.00343589 0.111844 
-0.0413069 -0.00685441 -0.0514576 
0.00374643 0.00397178 0.0486481 

0.00120961 -0.00382502 -0.054962 
0.00217072 0.00248892 -0.00379236 
0.0005119 -0.00191049 -0.00557698 

-0.0139179 -0.00936262 0.253367 
0.0243417 0.00238436 1.29846 
-0.00702748 0.00586426 0.227939 

-0.0226708 0.108136 0.312412 
-0.328086 0.0992399 -0.415721 
0.0197775 -0.0130298 0.0282588 

-0.0480707 0.120786 0.434352 
-0.134008 -0.0403479 0.060327 
-0.0323019 0.0154895 0.197401 

0.19464 0.0510892 -1.81414 
-0.388068 0.116949 0.618765 
-0.00304685 0.00241724 0.216016 

-0.0181456 -0.0955621 0.415579 
0.164269 0.0382217 -0.0326602 
0.0241641 -0.0287537 0.401395 

0.00827161 -0.0728911 -1.16804 
0.00365476 -0.0114129 0.444926 
-0.00501473 0.0101132 1.37336 

-0.274483 0.0847511 0.397335 
-0.306208 0.0825191 0.869888 
-0.0289549 0.000527675 0.0206276 

0.00695761 -0.0309952 0.266001 
0.0705806 0.0669613 -0.429456 
0.0409689 -0.000976954 0.387061 

-0.1849 0.110615 -1.00182 
-0.104111 0.285688 -2.44257 
-0.0396958 0.0344846 0.134454 

0.00285206 0.0176507 0.0440735 
-0.0151212 -0.0103123 0.042852 
0.00300711 0.00337032 0.00972737 

-0.0432868 -0.0552978 -0.306318 
-0.280795 0.0517068 0.204484 
0.0444306 0.0897935 0.0226425 

-0.242833 -0.199899 -0.0138238 
0.167227 0.245635 0.259293 
-0.0262011 0.0334693 0.143627 

-0.0047885 -0.130134 -0.127454 
0.0936718 0.0123238 -0.0116084 
0.0116657 0.0103346 0.367296 

0.0628252 0.0637479 0.0532733 
-0.0650175 -0.00843556 0.111157 
-0.00460992 0.000432689 -0.078802 

-0.612961 1.08156 -1.36068 
0.0181665 0.400147 -0.480486 
0.035004 0.0622232 0.44869 

-0.073884 -0.0129657 0.0612413 
0.0279382 0.00771085 0.0326057 
0.000520294 -0.00461412 0.0654605 

-0.00795755 -0.121673 0.349316 
0.12681 -0.033587 -0.340802 
-0.00694072 -0.00537906 0.0247075 

0.00502646 -0.141825 -0.0121594 
0.157071 0.00248968 -0.0626693 
0.0037964 0.0194652 0.0574546 

-0.217728 -0.055667 -0.0705817 
0.00680671 0.215541 0.529741 
0.00965869 0.000363263 0.139466 

0.0108769 0.0696274 0.0134153 
-0.0853584 0.0216658 0.109119 
-0.00771754 -0.0105307 -0.0711502 

0.00515073 0.132637 -0.0212391 
-0.163002 0.0189221 0.0350789 