# vtk DataFile Version 3.0
Output file generated by Yade's KinematicLocalisationAnalyser
ASCII
DATASET UNSTRUCTURED_GRID

POINTS 13483 float
436.095 47.6125 0.481437
529.651 80.0345 -0.501155
107.246 6.24415 0.491879
551.682 11.394 0.56813
385.249 10.1503 0.534201
264.446 52.0511 0.591598
141.037 7.70903 0.466785
424.919 11.8185 0.233879
381.479 43.2248 -0.161223
505.852 17.78 -0.556144
185.751 9.01344 0.119889
224.62 7.54725 0.384482
462.647 64.0037 0.164904
458.365 25.9571 -0.182289
123.82 18.1967 0.502357
192.114 36.0997 0.396352
193.055 13.1536 -0.284074
248.576 15.1215 0.517065
287.862 44.2859 0.479656
395.544 12.7875 0.672938
349.326 66.7736 0.121288
423.687 75.5722 0.377274
548.752 56.1247 -0.512616
499.681 75.6869 -0.180107
361.778 20.5117 0.291567
205.775 52.5816 0.134114
377.638 47.1362 -0.558892
435.149 23.1966 -0.30839
38.861 17.9642 -0.482722
500.91 61.2905 -0.442657
376.136 8.24568 0.484263
15.5969 25.3006 0.317903
542.526 83.4901 0.257023
383.652 2.71895 0.602231
68.8741 47.5441 -0.106434
392.789 50.1996 -0.462785
401.761 22.7268 -0.695434
286.419 31.7502 0.194962
401.232 39.6867 -0.333903
298.153 48.0854 0.448463
212.977 16.1404 0.480411
369.32 76.608 0.0725973
474.369 7.79652 0.169286
169.578 6.1225 0.444475
48.6365 7.36973 0.0958134
59.6298 9.55908 0.29125
488.332 7.30557 0.575164
20.945 12.6576 -0.32702
437.31 89.3112 -0.352911
479.42 64.7022 0.329246
154.618 39.8796 0.302392
531.894 65.907 -0.147616
29.0252 33.1965 -0.109374
400.081 3.60639 -0.392721
128.21 7.21625 -0.56427
431.463 68.2953 0.497694
383.221 47.4485 0.129314
156.427 2.23718 -0.597908
28.6267 2.48623 -0.287186
292.315 21.7068 0.264238
450.703 95.9057 0.127595
350.903 41.9767 -0.243327
317.054 1.03965 0.210727
491.471 16.5903 -0.670956
22.8281 50.7163 0.235773
223.465 41.9231 -0.378192
504.068 12.6293 -0.418438
470.063 95.1799 0.367423
331.107 10.2674 -0.648772
424.848 5.3754 0.658083
514.591 53.2841 0.473399
117.758 7.9878 0.282135
382.899 45.2119 -0.147136
372.106 23.0183 -0.105115
254.011 22.9335 -0.403672
18.466 14.6939 0.345145
551.241 77.587 0.407588
281.625 51.1589 -0.32426
484.554 56.8555 0.344686
487.293 11.8902 0.418861
545.242 27.0795 0.291571
353.49 44.9996 0.184703
83.4704 43.377 -0.307311
487.703 82.6181 -0.26567
453.978 70.7142 -0.110501
549.64 67.565 -0.105362
541.969 2.7765 -0.668062
253.849 36.18 0.494426
465.297 10.0435 0.32734
22.0606 6.62583 -0.655703
121.589 39.8017 0.180689
391.943 25.658 0.265171
535.098 53.0073 0.586727
173.936 36.9348 0.223191
38.3808 39.3945 0.303508
383.446 0.921134 0.405082
208.588 10.1771 -0.455417
510.893 64.7763 -0.376769
528.247 51.4358 0.217242
298.729 33.1081 0.263309
145.959 35.3914 0.44023
408.774 60.6724 -0.437419
312.657 33.6399 -0.492113
342.999 53.4375 0.0972889
314.234 20.3103 0.479036
411.447 13.0184 -0.160962
555.267 16.7869 -0.306125
71.4265 42.8931 -0.423854
284.882 5.59332 -0.182109
420.175 10.5552 -0.485375
300.452 63.8029 0.451061
22.6339 29.1822 0.46798
27.4977 6.27004 -0.325555
422.065 44.8005 -0.488011
385.393 40.8491 0.193874
22.8358 44.6326 0.407665
84.664 34.7319 0.247603
277.867 18.7667 0.300523
441.418 26.7252 -0.209097
362.824 52.542 0.334145
516.032 7.97688 -0.673538
510.269 6.29622 0.289305
328.649 64.2393 -0.108132
454.807 49.3775 -0.116255
212.043 20.0105 0.52989
281.791 4.50641 0.488942
92.8778 34.8453 -0.415626
104.702 25.9095 0.263387
405.708 64.3644 0.0764972
264.543 21.3259 0.4753
498.136 52.8285 0.110101
475.56 95.0562 -0.105087
370.214 35.3955 -0.466225
530.84 14.4364 0.480527
337.826 30.393 0.268325
240.385 30.9362 -0.350069
478.637 82.3965 -0.336954
242.63 35.8183 0.378527
432.667 14.8324 -0.26937
282.302 47.8094 0.227874
385.662 24.3542 0.606493
312.238 53.541 0.0925773
341.475 19.7771 -0.185763
271.691 58.8889 0.454378
171.496 38.5228 0.109906
534.017 80.5795 0.184594
552.412 20.2627 -0.330057
5.72932 13.2191 0.417431
341.448 28.993 -0.380482
33.3969 27.0603 -0.0776355
320.789 56.7744 -0.459229
327.699 48.2563 -0.274221
66.0899 12.2462 -0.525553
45.0185 35.7296 -0.544361
201.182 16.0217 0.488983
452.087 86.9733 0.375526
431.595 25.1556 -0.576207
68.1213 22.6113 -0.470678
504.019 74.9704 0.445285
527.801 9.40472 -0.546764
466.119 86.1488 -0.457839
494.506 4.79301 0.506456
412.303 41.7108 0.514556
424.702 74.7948 -0.649487
393.597 31.6888 -0.389907
548.79 6.62278 0.264001
199.542 27.6019 -0.120475
117.512 36.9061 -0.215782
218.758 8.2962 -0.635418
84.0736 4.76036 0.279691
56.1706 11.4622 -0.221097
241.633 43.3279 -0.388021
16.1635 26.9421 -0.3781
419.941 25.8054 0.562196
440.01 84.6559 -0.19124
361.142 30.7045 -0.422436
551.579 100.338 0.332096
324.89 11.0936 -0.197305
374.992 79.058 0.386018
407.579 3.05665 -0.432128
19.6097 28.4609 -0.370015
435.309 5.64166 0.618346
413.718 5.79533 0.667272
184.3 11.4906 0.526201
338.47 17.6424 -0.230256
267.956 6.98216 0.500549
320.75 37.4016 -0.375333
528.793 90.3763 -0.041351
172.464 33.3997 0.488747
539.37 15.1585 -0.444837
526.621 85.2192 0.303403
319.204 28.4502 0.262365
501.575 3.9863 0.479353
436.403 40.4397 -0.532818
509.36 33.6816 -0.377893
369.44 83.5549 -0.259973
381.76 26.6951 0.518909
356.06 56.9591 0.224843
355.817 11.7918 -0.167698
468.196 88.9205 0.251997
469.249 82.2259 0.378819
175.293 50.4186 -0.348406
543.828 28.7427 -0.145023
425.588 76.008 0.279287
10.8467 18.4167 0.183757
329.704 41.6274 0.358687
167.983 31.481 0.401478
85.126 44.3426 -0.217945
535.198 44.2965 0.442816
461.056 86.208 -0.2328
275.403 35.2021 0.378761
405.522 12.1998 0.554791
73.863 47.9643 -0.207126
217.534 29.5279 -0.485402
418.48 31.9401 0.455512
377.043 36.453 0.428764
231.944 0.850964 -0.516197
416.242 55.5391 -0.51878
405.2 71.7329 -0.479676
374.809 54.0544 0.4001
390.351 1.95478 -0.622275
493.192 31.6376 -0.402594
161.598 15.5308 -0.287748
387.587 67.6945 -0.443313
411.528 69.543 0.112825
65.1167 0.976665 0.346476
222.865 5.21212 0.255846
551.566 22.0294 0.239476
546.622 27.8325 -0.620215
555.222 25.2298 -0.654138
262.149 11.5563 -0.24245
517.595 39.8519 0.483482
346.963 72.5885 0.343381
358.178 1.52154 0.631819
460 73.8447 -0.549951
23.1824 37.9654 -0.540711
284.117 54.0417 0.476471
224.21 3.85676 0.566101
546.975 85.6564 -0.201816
500.791 98.0238 0.23059
250.686 16.6223 0.281064
474.643 71.7506 -0.0877919
421.89 2.61223 0.351618
412.092 9.14969 0.599803
86.5847 19.168 -0.510107
262.562 0.971029 0.261865
294.975 2.46482 -0.317837
12.5942 8.24937 -0.632467
4.52944 32.6507 0.279869
147.23 20.998 -0.356632
60.8312 43.8786 -0.217681
60.1464 30.6937 -0.345088
338.836 15.9017 -0.627281
313.659 58.0115 0.466205
529.597 66.4704 0.131661
18.1086 4.53465 -0.265322
62.6077 7.51676 0.226941
443.145 55.7481 -0.17428
255.272 2.40694 0.409369
303.916 30.5649 -0.0759627
210.777 6.10147 0.539141
469.56 54.975 -0.172814
359.619 9.02628 0.702126
518.839 39.2266 -0.474956
454.413 53.5941 0.305557
488.981 47.9782 0.0853132
333.195 33.6666 0.526183
94.3624 49.3403 -0.310867
410.852 63.9943 0.0855949
516.245 18.2485 0.253488
211.486 38.5002 -0.255745
27.9236 18.9434 -0.171989
288.15 15.8417 0.623541
98.7391 43.7836 0.47079
237.185 51.2328 -0.219867
343.242 2.41875 -0.336373
535.939 57.7533 0.374313
489.636 0.796642 0.600037
285.552 3.98775 0.541727
263.863 31.2732 -0.150943
355.323 53.0818 0.224253
72.9448 9.02306 0.544539
182.734 55.9371 0.376662
529.119 57.3076 -0.357578
382.365 66.0926 -0.0763436
183.923 52.4413 -0.248219
146.14 51.0092 0.392428
552.386 62.9363 0.418748
553.826 19.2545 -0.609857
459.338 5.27563 -0.527666
169.86 32.0859 -0.086939
411.518 43.5209 0.139403
414.112 41.2913 0.290665
328.781 7.34787 -0.167915
379.556 0.797958 0.508243
526.609 68.3975 0.495019
77.9514 34.5823 0.236328
474.133 52.387 -0.556643
238.7 19.2162 -0.362138
8.39566 2.56772 -0.391687
115.995 38.3904 -0.197379
60.9702 25.883 0.473821
496.674 62.0882 0.345877
542.017 93.0137 0.18748
169.337 38.5809 0.190122
547.613 19.4842 0.572224
40.1586 41.0117 -0.253968
83.851 32.9295 0.153687
463.849 32.4949 -0.461954
333.021 19.1925 -0.661986
400.711 24.0698 0.140537
212.35 36.701 0.183322
467.265 14.933 0.561071
556.657 15.7214 0.519896
25.1961 37.9866 -0.359082
239.235 9.29692 0.208678
199.282 18.0818 -0.303362
1.09867 36.9167 0.165272
202.317 16.5971 -0.471919
190.568 11.2459 0.121662
190.773 27.4147 0.307818
124.245 29.5762 -0.121134
415.351 21.1741 -0.464405
151.021 16.4425 -0.478845
542.295 81.4703 0.248279
157.468 5.6549 0.614515
42.825 41.4863 -0.381234
534.843 98.183 -0.426721
248.171 38.9955 -0.376553
485.525 60.1867 0.471228
541.26 59.8787 -0.5248
260.537 12.7955 0.113209
506.361 51.0684 -0.412515
283.513 2.3661 -0.402374
331.209 31.9441 0.402668
484.587 36.3807 -0.569354
95.9618 12.5037 -0.448467
381.035 3.96795 0.557552
520.031 35.4123 0.216255
79.4046 7.99587 -0.352021
245.878 19.9833 -0.221689
340.235 13.3466 0.367913
549.62 8.28811 0.594941
321.679 1.91637 -0.591021
160.711 47.8705 -0.266202
514.298 22.0781 -0.370159
119.258 37.9974 0.208189
231.22 39.572 -0.377978
327.449 35.7435 -0.239968
434.928 16.5709 -0.474926
312.998 10.8741 -0.664997
356.896 37.4986 -0.479719
529.21 81.5477 -0.405103
42.5042 12.0774 0.210684
257.087 55.9506 0.272427
318.798 47.8894 -0.391153
329.542 23.9399 -0.334717
404.221 84.2797 -0.356341
520.248 64.1547 0.287214
473.958 84.1822 -0.359956
199.232 38.891 0.434113
12.5942 36.4615 -0.200796
467.461 82.869 -0.138681
391.416 79.6925 -0.456589
201.84 44.9653 -0.153957
485.458 76.2622 0.110308
138.451 10.2874 -0.267112
310.976 39.0812 0.271151
356.409 54.8158 0.11286
333.612 22.8659 0.196303
526.36 79.9092 -0.352913
343.072 5.35473 0.468998
43.0839 29.3465 -0.292589
365.757 47.1353 0.393674
377.913 83.4741 -0.347635
548.09 79.4521 -0.23665
508.169 70.8419 0.230202
412.127 24.6475 -0.15688
538.795 75.26 -0.500474
255.313 3.70932 -0.592834
325.665 54.8463 0.483559
26.107 46.455 0.30878
503.414 59.2902 0.165002
448.187 31.6293 -0.558251
369.565 0.742196 0.537219
114.83 5.25819 -0.410006
368.196 80.4085 0.101785
10.8328 0.882579 -0.296303
548.199 12.4718 -0.145116
315.189 63.707 -0.417345
462.924 13.5652 0.41437
[...]
POINT_DATA 13483
TENSORS Strain_matrix float
-0.0139921 -0.0129971 -0.188662 
0.0281239 -0.0226162 -0.140385 
8.06758e-05 0.00323601 0.0719723 

-0.0103827 -0.0615653 -0.209835 
0.0380021 0.00860372 -0.154739 
-0.000342734 -0.00115436 -0.018601 

-0.0334098 0.033834 -0.451093 
0.0399965 0.0178203 -0.142597 
0.00387758 0.00814064 -0.0251836 

-0.0160504 0.00792575 0.00866887 
-0.0179082 0.0332425 0.135956 
0.000536338 -0.00158442 -0.000770043 

-0.284432 -0.168221 0.342292 
0.482151 0.326947 0.422001 
0.0849799 -0.0637775 -0.345444 

-0.126211 -0.0758784 -7.16607 
0.0134656 0.134899 -0.993033 
-0.00587592 0.00762118 -0.985 

-0.0907318 -0.172025 -0.752185 
0.187468 0.137456 0.102777 
-0.0121229 0.0103391 -0.0476579 

-0.0243899 -0.00600833 -0.0077861 
0.00565423 -0.0120546 0.0198449 
-0.00325342 0.000565228 0.0529378 

0.00761438 0.0155706 -0.0958056 
0.0412089 0.00027876 -0.0240209 
0.00614943 -0.00324309 0.0391324 

-0.0104932 0.0372958 -0.0302298 
-0.00415751 -0.0287582 0.0211537 
0.0116092 0.00516181 0.0470151 

-0.0467837 -0.0181338 0.0890722 
-0.0217838 0.0622003 -0.209709 
-0.0065281 0.0119574 0.10233 

-0.110129 0.0649797 0.45627 
0.0750832 0.0912899 0.256608 
-0.0534839 -0.0403492 0.203416 

-0.0184718 -0.0707299 -0.250934 
0.060155 0.0403604 0.151464 
-0.00199978 0.0027245 0.00607431 

-0.00727409 0.026951 0.00637333 
-0.00243421 -0.0151111 0.00512575 
0.000610771 0.00137308 0.0265396 

-0.00193734 0.0148919 -0.123591 
-0.057654 -0.0258397 0.262846 
0.00327808 -0.00414394 0.0337912 

0.024414 -0.18289 0.187451 
0.290006 0.0433259 0.149449 
-0.00862899 -0.000769566 -0.0593124 

-0.0329673 0.00800315 0.0769825 
-0.011322 0.0298111 -0.0794149 
0.0037791 -0.000160946 0.000363548 

0.0304448 -0.0827407 -0.192755 
0.0558237 -0.0284562 -0.0213854 
0.00485671 -0.00593505 0.142649 

-0.0243253 0.0473151 -1.65585 
-0.109642 0.0139462 -0.0860993 
0.00509815 -0.0057254 0.209468 

-0.0572374 0.0549253 1.28931 
-0.0120104 0.0158536 -0.640395 
-0.00446622 -0.0332523 -0.418387 

0.0545423 0.121729 -0.172864 
-0.197415 -0.0302351 0.246105 
0.00679116 0.0063367 -0.0146595 

-0.0186868 -0.0255824 0.0272378 
0.0617324 -0.00189662 0.00933232 
-0.0026981 0.000381797 0.0533544 

0.00148487 -0.0145156 -0.247876 
0.00269678 -0.00201881 0.0809018 
0.00272957 0.0019574 0.0504178 

0.0321389 -0.0412069 -0.0507188 
0.0261281 -0.0179468 0.064386 
0.00287569 -9.26086e-05 -0.0270807 

-0.0169302 0.0720792 -0.42206 
-0.129446 0.0430897 0.107215 
-0.00534708 -0.00205814 0.00219706 

0.0336889 -0.0319443 -0.0929071 
0.12681 0.00358524 0.103002 
-0.0185905 0.0188026 0.0938061 

-0.0273128 -0.0194015 0.0459345 
-0.0399007 0.0267312 0.525132 
0.00184307 0.00586153 0.304764 

-0.0450912 -0.0757941 0.311827 
-0.0328173 0.0403035 -0.361098 
-0.00470421 -0.00927613 0.00133465 

-0.0186603 -0.0139805 0.0796182 
0.000413347 0.0261324 0.377665 
-0.00154246 -0.000141182 0.00838696 

-0.0528223 0.0382616 0.132794 
0.0501658 0.0511681 -0.055636 
-0.00537484 -0.000749949 0.00897359 

-0.16732 -0.0441788 -0.189665 
0.0672118 0.180899 0.199785 
0.00303134 -0.0189556 -0.0621228 

-0.00297726 0.00496883 0.0874851 
0.0119967 0.0027324 0.0164679 
-0.000260287 -8.34251e-05 0.00394793 

-0.0131651 -0.00805685 -0.0960342 
-0.0169353 0.00333767 0.0567113 
-0.00125076 -0.000310429 0.039447 

-0.00755445 0.0407428 0.172522 
-0.100568 -0.046069 -0.0375338 
0.00674635 0.00144651 0.182278 

0.000470696 -0.0340856 -0.00395847 
0.0323079 0.00501356 -0.00829263 
0.000122375 0.000228425 -0.00303302 

-0.0382255 0.0866702 -0.192902 
-0.0199097 0.0161161 0.416261 
-0.0020498 -0.00187111 0.16021 

-0.0565604 0.0156337 1.89039 
-0.0112171 0.0200194 1.93781 
-0.000909468 -0.00232593 0.575818 

-0.416904 -0.25989 -0.437383 
0.59976 0.513547 0.824626 
0.00654736 3.50655e-05 -0.0313987 

-0.0218404 0.0419567 -0.0243727 
-0.050332 0.00830189 -0.0956151 
0.00386228 0.000367457 0.0284122 

-0.116781 -0.144788 -1.08629 
0.303625 0.172054 -1.24084 
-0.0158812 -0.0499181 0.223897 

0.00408242 -0.185572 0.168974 
0.183726 0.0141859 0.661274 
0.00588808 -0.00467792 0.155063 

-0.0653561 0.00853323 0.148565 
-0.0581764 0.0723034 0.353699 
-0.0596462 -0.0614489 0.593275 

-0.0120694 -0.00453709 0.00639318 
0.0110732 0.00732383 -0.00141606 
-0.00114739 0.000300052 0.00809235 

-0.0293337 -0.00515621 -0.227393 
-0.0156591 -0.0147181 0.282394 
0.000152662 0.000954309 -0.00898473 

-0.00338307 -0.0028453 0.00476049 
0.00301367 -0.00236557 -0.000317601 
0.000476254 -0.000700078 0.00416721 

-0.00657226 -0.00338691 -0.0154031 
0.012338 0.00348552 0.00568847 
-0.000668351 -0.00165109 -0.00313697 

-0.0147653 0.0102628 -0.0142105 
-0.00315507 0.00112148 -0.0586595 
0.000799737 -5.08133e-05 0.00975348 

-0.00446862 -0.000299217 0.00625698 
-0.0086609 0.000551872 -0.00380848 
0.000909577 0.000446788 0.00524527 

-0.000358442 -0.0432742 -0.0161083 
0.0607108 -0.00482803 0.0417848 
0.00366909 -0.00761782 0.0103597 

-0.0497346 -0.126901 -0.292566 
0.0587834 0.0702885 0.0450202 
-0.00393618 -0.000167986 -0.0341285 

0.0534538 -0.139243 -0.0321781 
0.128796 -0.0164349 0.0116026 
-0.00171276 0.00060695 -0.0578407 

-0.140125 0.158332 -0.0255415 
-0.0679916 0.0492407 -0.300683 
-0.00853055 -0.0026715 -0.0475433 

-0.00995393 -0.00996773 -0.0511255 
0.0131799 0.013359 0.0954421 
-0.00036068 -0.000565231 0.000461379 

0.0350377 -0.0784647 0.00627349 
-0.0863301 -0.0161402 -0.0893348 
0.00909466 0.0102994 0.0599769 

-0.0376772 -0.0298098 0.850358 
0.001657 -0.000974101 0.356017 
-0.00131621 0.00165705 0.209151 

-0.0442149 0.0458704 -0.662068 
-0.0196532 0.0633215 -0.840393 
0.00415944 -0.00694834 -0.211576 

0.0124775 -0.0222487 0.108544 
0.0188669 -0.0143202 -0.0119685 
0.00193987 -0.000217882 0.0278445 

-0.324385 0.14484 1.8391 
0.0329427 0.196151 -0.318397 
0.00995571 0.0125503 -0.0293872 

-0.00420441 0.00094764 -0.000370846 
-0.000340564 0.00169393 0.00131329 
2.74973e-05 0.000757773 0.00329084 

-0.322335 -0.637907 -0.375712 
0.125422 0.215803 0.850828 
-0.0393095 0.0190712 -0.111626 

-0.240052 0.866695 0.96068 
-0.0932566 0.384729 0.115377 
-0.00532488 0.024035 0.034273 

-0.012392 0.00764129 0.03443 
-0.0399603 0.00807381 -0.233407 
-5.89204e-05 0.00374672 -0.0807681 

0.0266554 -0.0361479 -0.073137 
0.00464288 -0.0200728 0.0680194 
0.00450636 -0.0085747 -0.0602671 

-0.0167816 -0.00103356 0.358738 
0.0074448 0.022168 0.530739 
9.97306e-05 -0.00178541 0.0786601 

-0.0349936 0.041072 0.110785 
-0.0144438 0.033038 0.179443 
0.00580419 -0.0213504 -0.00185554 

-0.0035333 0.0514535 1.24182 
-0.0315948 0.0765499 0.817243 
0.0150717 0.0320552 -0.193139 

-0.0201351 0.00358001 0.0423747 
-0.0244483 -0.0437107 0.0708869 
0.00106062 -0.00364859 0.0713694 

-0.175201 0.153669 1.06506 
-0.0670636 0.113397 0.656776 
0.000660515 0.000649648 0.0260951 

0.024775 -0.0217359 0.118266 
0.0175408 -0.0219326 -0.178965 
0.00204028 -0.00282825 -0.00487061 

-0.00970079 0.00320468 0.11593 
-0.00873442 -0.0269532 0.0528907 
5.89959e-05 0.00076418 0.0132064 

-0.02231 -0.0290651 -0.146001 
-0.0316224 0.0224976 -0.061814 
-0.00193194 0.0029203 0.00646863 

-0.041515 0.0283038 0.126934 
-0.0509756 0.0125446 0.203763 
-0.0113321 -0.00732894 0.0546456 

-0.011629 -0.0627415 0.0219068 
0.0483452 0.00099898 -0.000769626 
0.000716396 -0.00240387 0.0310172 

-0.122946 -0.125239 0.02137 
0.0504666 0.0978196 -0.147523 
0.0290975 -0.00643254 -0.042135 

-0.0838797 0.0263921 -0.482338 
-0.0824894 0.00613711 2.2853 
-0.008969 0.00184769 -0.018433 

-0.00707163 0.00573846 0.00520554 
-0.00178681 0.000598577 -0.000406829 
-0.00160555 0.000104443 0.00168187 

-0.0223601 0.0288251 0.00274491 
-0.0259854 0.0207048 0.0367697 
-0.00166762 0.00113859 0.016866 

0.0300429 0.163298 -0.481976 
-0.152248 0.0383013 -0.481302 
-0.0217429 0.00129358 0.0591307 

0.0620473 -0.204118 -0.455494 
0.0752488 -0.0130179 0.159694 
0.00225441 -0.00645589 -0.106989 

-0.0056298 0.0108295 -0.0195832 
-0.00104966 -0.00188843 0.0151479 
0.000594809 -0.00147199 -7.77086e-06 

-0.01785 0.0148648 0.0358613 
-0.0188901 -0.00605481 0.021582 
-0.00241202 -0.00312117 0.021943 

-0.0101615 -0.00517408 -0.130191 
-0.0336535 -0.00824541 -0.0646246 
-0.00512827 -0.0162024 0.11573 

0.0080493 -0.0399005 -0.0453946 
0.0431612 -0.0223284 0.0523546 
-0.00150516 0.00174957 0.0358022 

-0.00957456 0.0101612 -0.00496804 
-0.00688955 0.0108754 -0.00863687 
0.000847689 -8.71233e-05 -0.0020451 

0.0137865 -0.0504136 -0.0237215 
0.0713285 -0.00926828 -0.0190934 
-0.000847669 0.000129186 -0.013385 

-0.00881451 -0.0158451 -0.0224842 
0.0260945 0.0210444 -0.00652316 
-4.591e-05 -0.00181045 -0.0145915 

-0.0159904 -0.0178248 0.251816 
0.0488119 -0.0163619 -1.17447 
-0.00120194 -0.00687415 0.268211 

-0.0653409 0.236511 -0.255784 
-0.0666176 0.13024 -0.329029 
-0.027671 0.0116548 0.249501 

-0.0160824 -0.00545497 0.00297849 
0.010186 -0.00411717 0.0017397 
0.000683504 -0.000558422 0.0222518 

-0.00512638 0.00257479 0.460433 
0.00161598 0.000911744 -1.76762 
-0.000107022 0.00093249 0.306445 

0.0100819 -0.0911627 0.0380142 
0.101492 -0.00575373 0.0624877 
0.0174291 0.0123333 0.0485097 

0.00813485 0.0173603 -0.0013048 
-0.00365683 -0.0244573 0.00648975 
-0.0138596 0.00486552 -0.0556587 

-0.0108347 -0.0561648 0.430202 
0.0852608 -0.0168614 1.487 
-0.00157172 -0.000706285 0.15793 

-0.433054 0.221939 -0.83106 
-0.119595 0.264439 0.69792 
0.0220031 -0.00953949 0.465531 

0.00425672 0.0142258 0.0125228 
0.00611792 -0.00339855 -0.0102827 
0.000647708 -0.000413949 0.0102987 

-0.0528009 -0.185232 0.236925 
-0.016341 -0.0120204 0.0881128 
0.0114219 -0.0446755 0.145369 

0.00334428 -0.0159316 -0.797907 
-0.0179682 -0.0456464 -0.51385 
0.00263131 0.00370954 0.163169 

0.0104119 0.00364573 0.0052913 
-0.0085859 -0.00555319 0.0148807 
-0.000730093 0.000369385 -0.00364348 

0.0326327 -0.1067 0.647891 
-0.0542214 -0.0414616 0.129915 
0.00783501 0.00763141 -0.0356042 

-0.261274 0.00167139 -1.00045 
0.623017 0.215048 0.94504 
-0.00170794 -0.00188004 -0.0185159 

-0.0592212 -0.255572 -0.324875 
0.250755 0.175244 -4.6969 
0.016243 0.00943697 1.97649 

-0.0523394 0.0651307 0.789291 
-0.0176349 0.0477925 0.0235904 
0.0176272 0.0220573 -0.0842041 

-0.0530843 -0.199605 0.879617 
0.196033 0.0489074 -0.19508 
0.00170925 -0.000566875 -0.0387924 

-0.292741 1.69975 -2.28158 
-0.592767 1.40754 0.0356259 
0.0175089 -0.116319 0.091741 

-0.633281 1.0017 0.0140495 
0.0940873 0.523229 -0.407054 
0.046374 0.0770113 0.221299 

-0.0216877 0.041389 0.0105145 
0.00956279 0.0069988 0.00608203 
0.00291784 -0.00173401 0.0195931 

-0.0411843 0.00623078 0.0235906 
-0.00537369 0.0305573 0.0086924 
0.000888005 -0.00103188 0.000381268 

0.00739467 -0.0357698 0.0240784 
0.0362921 -0.00141813 -0.0450609 
-0.00147045 0.000205182 -0.0130903 

0.0383448 0.0290991 -0.0156674 
0.0151937 -0.0231267 0.0091268 
0.00477171 -0.00165109 -0.00630564 

-0.0140845 0.0174347 -0.0375486 
-0.011732 -0.0144617 -0.0185347 
-0.00567391 0.00050906 0.0145193 

-0.0140787 -0.0710413 5.25515 
0.146465 0.278582 2.74711 
0.00233906 -0.000923753 0.0011114 

-0.0062891 0.00601774 -0.048391 
0.0103845 0.005718 0.0444098 
-0.000729722 0.000104623 0.00262851 

-0.00611499 -0.00105807 -0.000760229 
0.00129863 0.00136657 0.00304167 
0.000550041 -0.000698051 0.00713779 

-0.0917613 0.0486675 0.13264 
-0.100892 0.0364751 1.26857 
0.0030259 0.00378355 0.0486761 

-0.173855 -0.0464367 -0.235974 
-0.207443 0.0933384 0.271194 
-0.00464311 0.004935 0.0509516 

-1.09273e-05 0.00789137 0.256776 
-0.00115939 0.00673377 0.308774 
-0.000179118 0.000632268 0.0131828 

-0.127532 -0.0402927 0.0768957 
0.0248274 0.0939834 -0.132153 
-0.0121013 0.0536878 0.130826 

-0.309185 -0.17803 -0.514816 
0.138166 0.240595 -0.0318859 
0.0524857 -0.00962509 -0.19015 

0.0177907 0.119256 0.0856167 
-0.0521332 -0.0107469 0.0151271 
-0.000910947 -0.00381368 0.0299707 

-0.00888294 -0.00947719 0.00746178 
-0.011499 -0.00550632 0.0393024 
0.00085249 -6.53879e-05 -0.00806966 

-0.0225571 -0.0205287 0.307352 
0.0119165 -0.0250282 -0.0752164 
-0.00303296 0.00211071 0.156175 

-0.00148639 -0.0157893 0.0150642 
-0.00198127 -0.0299539 0.0190246 
0.00132193 0.00206276 0.0197753 

0.035396 0.0459326 -0.0807821 
-0.107226 -0.0269705 -0.190549 
0.000868559 -0.0038221 0.0333615 

-0.0196499 0.0111772 -0.0017348 
0.00202185 0.0153391 0.0130022 
-0.00234204 0.000713215 0.00499445 

-0.146296 -0.0815155 0.554509 
0.112568 0.133618 -1.51041 
-0.0134544 -0.0117322 0.0157776 

0.0422953 0.0192435 -0.026019 
0.0119593 0.00904211 0.00772308 
0.00201182 -0.00304881 -0.0161615 

-0.00627472 0.0435188 0.00101776 
-0.0493373 -0.00877803 -0.114478 
-0.00119311 0.00262196 0.0437673 

0.0619635 -0.156691 0.016267 
0.010402 -0.0775615 -0.0433946 
0.0038507 0.000270397 -0.0051318 

-0.0152836 0.0656925 0.0263538 
-0.0180444 0.00389031 -0.0539767 
0.0112012 -0.0429152 0.104924 

-0.000602181 0.0909758 -0.0992929 
-0.109576 0.0372802 -0.0115927 
0.019407 0.00338883 0.076624 

0.0636449 -0.655705 0.0280036 
0.252594 0.156486 -0.565191 
-0.0343544 -0.0414464 0.149441 

0.00783988 -0.0172878 0.0229689 
0.0183523 -0.00623198 0.0190698 
0.000733962 0.00848704 0.00677984 

-0.0279125 0.0115141 -0.0977058 
-0.00223791 0.0165236 -0.523078 
0.00118827 -0.00355623 0.111869 

-0.00447549 -0.0671176 0.0104865 
0.0401512 0.0169609 0.00341726 
0.00890261 -0.00346197 -0.0180535 

-0.089183 0.275206 -0.81242 
-0.146708 0.136374 -0.855837 
0.0110324 0.0143604 0.185578 

-0.093415 0.0815924 1.24476 
-0.00752967 0.0813656 0.707012 
0.00118322 0.00856998 -0.0744898 

-0.063454 -0.00478778 -0.289719 
0.0225377 0.0587296 0.375636 
-0.00826031 -0.0018863 -0.0671215 

0.00428355 0.16308 -1.11449 
-0.0455647 -0.0143773 -0.58306 
0.000377133 -0.000589682 0.0459613 

-0.0317905 -0.0250012 0.0198316 
0.0469837 0.0182857 -0.0131677 
0.000943469 0.00148788 0.00145363 

-0.010097 0.103998 0.0810734 
-0.108154 0.0489603 0.0170433 
-0.00241591 -0.0153783 -0.0403396 

-0.0432346 0.00108073 -0.0627914 
0.0286639 0.00126918 0.332212 
0.00302862 -0.00285293 0.0442839 

0.0123619 -0.145915 -0.0136179 
0.172939 0.0176244 -0.0350648 
-0.000811953 -0.000593728 -0.00522387 

0.0202268 -0.0297226 0.000621872 
0.0430544 -0.0201484 0.110918 
-0.00140668 0.000699591 0.0357249 

-0.19545 -0.13317 -2.51299 
-0.14502 0.245927 0.909791 
-0.00812639 -0.0283464 0.1381 

-0.615147 0.518069 -0.462694 
-0.175357 0.512515 1.16476 
-0.0766906 -0.00170683 0.680363 

-0.0153012 -0.039797 0.0237015 
0.0234392 -0.00813519 -0.00861343 
0.00015205 -0.000594148 0.0401103 

-0.0384613 0.01384 -0.00281125 
-0.00923995 0.024761 -0.0183795 
-0.00152426 0.00216648 0.0190343 

-0.00652232 -0.00128526 7.99213e-05 
0.00260017 0.000984518 -0.00672482 
0.000226157 -6.01066e-05 0.0104572 

-0.248567 -0.0099406 -1.11562 
-0.0180693 0.180673 0.276819 
0.0275849 -0.0207959 -0.10091 

-0.0283533 -0.0456332 0.035497 
-0.0171047 0.009108 -0.138645 
-0.00193472 0.00383806 0.00562413 

-0.0739213 -0.164576 0.586924 
-0.0728022 0.063538 -0.245543 
0.041839 -0.0271299 0.244406 

-0.184129 -0.0130222 -0.0821491 
0.0794579 0.126939 -0.73131 
-0.00304173 -0.00731942 0.0537955 

-0.00141568 -0.0267197 0.476602 
0.0262347 0.0293669 -0.684342 
-0.00289628 -0.00336938 0.200004 

-0.0296108 0.0340723 0.119121 
-0.0370999 0.0387448 0.549659 
-0.00500988 -0.00321751 0.165029 

0.00213796 0.01274 0.409112 
-0.0531714 0.0137886 -0.885047 
-0.00642576 -0.0327167 -0.304345 

0.117978 0.0317123 -0.534145 
-0.130896 -0.0302484 -0.227524 
-0.045701 -0.00470741 0.0343459 

-0.00877396 0.00124158 -0.648591 
0.0275887 -0.0302129 -0.412435 
-0.00116697 0.00723905 0.00623281 

0.000545794 0.00455201 0.434713 
0.0340218 0.00633793 -0.224508 
0.000530392 -0.000733594 0.177838 

0.00311938 -0.0228338 0.0946169 
-0.0111154 -0.01267 0.0168699 
0.000697064 0.000501213 -0.0474631 

-0.108973 -0.190072 0.0276729 
0.0878916 0.146081 0.0441051 
0.0157581 0.016136 0.0521999 

-0.0705539 -0.00797346 -3.18762 
0.063231 0.0629145 -1.75806 
0.00502801 -0.021086 -0.276218 

-0.0161048 0.00383071 0.00184799 
-0.00506552 0.00586359 0.0119968 
0.000365528 0.000260271 0.00706431 

-0.0237622 0.0133376 -0.212543 
-0.0120194 0.00530621 -0.0447581 
-0.0014973 -0.00244597 0.126186 

-0.082025 0.156609 -38.0771 
0.0026441 -0.156676 44.9845 
3.87758e-05 0.00223935 -0.669202 

-0.0256939 -0.00486631 0.0205311 
0.00481945 -0.0199345 -0.0748186 
-0.00102685 -0.000931165 0.0614623 

-0.029481 -0.106911 0.171102 
0.093717 0.12414 0.305029 
-0.0136286 -0.0566246 0.119557 

0.0139655 -0.0641593 -0.0237694 
0.0826588 -0.0111732 0.00363222 
0.000607596 0.00141795 0.0257479 

0.0128767 -0.0445381 0.00554935 
0.0503139 -0.00159459 -0.00612189 
0.00144513 -0.00151231 -0.00396265 

-0.226184 0.110957 -0.144859 
-0.0237533 0.159708 -1.79948 
-0.0426813 -0.00461364 0.0365491 

0.000239761 0.0308458 -0.000219526 
-0.0129198 0.00452123 0.0268549 
-0.000329891 0.00265536 0.0204542 

-0.010703 -0.00763295 -0.0102136 
0.00968861 0.0027514 0.00417837 
-0.00149415 -0.000851213 0.0136761 

0.0151989 0.0700039 -0.0964026 
-0.0890879 0.0165311 0.0283026 
-0.00253727 -0.00104319 -0.0613984 

-0.00460523 0.0105865 0.0451845 
0.0120221 0.00206615 -0.041444 
1.60588e-05 3.7223e-05 0.00656622 

-0.0751624 -0.067597 1.47625 
0.0194583 0.0604802 -2.26097 
0.00198712 -0.00116761 0.162116 

0.00216056 -0.0491071 0.00925205 
0.0691659 -0.00705526 -0.0358087 
-0.00295957 -0.00158378 -0.00234433 

-0.045106 -0.194916 -0.353386 
-0.0407686 0.0487993 0.320561 
0.00540539 0.00479713 0.0611483 

0.00408821 -0.00702684 -0.0668477 
0.000949053 -0.00293622 0.0375481 
0.000198756 -0.00100774 0.0083503 

0.00897032 0.0104258 0.0206331 
-0.0198606 -0.0147673 0.00318302 
-0.00442968 -0.00839281 0.0291068 

-0.008135 0.193708 -4.1274 
-0.0739048 0.132071 -2.03501 
0.0366064 0.0101946 1.92183 

-0.0133555 0.0113984 -0.0170005 
0.00780616 -0.00501957 0.0461398 
-0.0011428 -0.00205548 0.0333553 

-0.00251456 0.012337 0.0276189 
0.00603101 0.00668121 0.019644 
-0.000118946 -0.000352035 -0.00697961 

-0.0366881 0.00428865 -0.00402701 
0.00887215 5.88265e-05 0.0406664 
-0.00484686 0.00017269 0.00379618 

-0.022037 0.0240371 0.128492 
-0.00359164 0.00170709 -0.013099 
6.85583e-05 -0.000643491 -0.0132011 

-0.010626 -8.19577e-05 0.010997 
-0.0286669 -0.00267766 -0.539756 
0.00461674 -0.00268465 0.0807648 

0.00597008 -0.0461885 0.0508113 
0.087382 -0.00275314 -0.00242517 
-0.00377069 -0.000590524 -0.00911051 

-0.064834 0.167981 -0.118062 
-0.176703 0.0511979 -0.0138029 
0.0280662 -0.0170979 -0.0920989 

0.0311665 -0.375296 7.60134 
0.130995 0.126237 4.70812 
-0.0121571 0.000445716 -0.063221 

-0.010961 -0.0268349 0.052206 
0.0190489 0.00521386 -0.00771855 
-0.011265 0.0159612 -0.0882707 

-0.46043 0.772042 -1.1165 
-0.564228 0.61141 -5.3266 
-0.00123293 -0.002411 0.222399 

-0.0152301 -0.100584 -0.135303 
0.0241089 0.00149189 0.00501595 
-0.00890103 -0.0149668 0.152875 

-0.0186178 -0.0222278 0.0228212 
0.0270299 0.0125221 -0.0278608 
-0.000417956 -0.00163543 0.0202638 

-0.00770052 -0.170879 -2.55731 
0.127404 0.00638788 -2.48337 
0.0189655 -0.0872623 0.3104 

-0.0213529 -0.0179711 0.126162 
-0.0299682 -0.0196014 0.0389858 
0.000598685 -0.00181651 -0.00352462 

0.0317916 0.0108117 -0.794162 
0.0788688 -0.0716857 -0.353699 
0.00335373 0.00587371 -0.0791079 

-0.151025 0.0535396 -0.656285 
0.0182023 0.18185 0.422653 
0.00998783 0.00366623 0.0328604 

0.0608568 0.0222084 -0.0680307 
-0.0673298 -0.0652948 -0.0212164 
-0.034221 -0.066131 0.892058 

-0.0419977 0.00342201 -0.0787041 
-0.0132631 0.00403037 0.0206909 
0.00253818 0.00137566 0.065102 

-0.201799 1.11973 -2.31891 
-0.129121 0.239916 1.26318 
0.0116502 -0.040358 -0.0335538 

-0.119761 0.144522 0.0688732 
-0.251524 0.13731 0.475842 
-0.00462745 0.0173352 6.27759e-05 

0.00248776 -0.0295864 -0.120962 
0.069932 0.00806295 -0.405054 
0.00717737 -0.000589435 0.117988 

-0.0922833 -0.077774 -0.0487303 
0.0742576 0.0328731 -0.0553163 
-0.0404711 0.0566562 0.224906 

0.0799283 -0.0313344 -0.12933 
0.0418216 -0.0577559 -0.0189245 
0.0138696 -0.042863 0.732875 
