# vtk DataFile Version 3.0
Output file generated by Yade's KinematicLocalisationAnalyser
ASCII
DATASET UNSTRUCTURED_GRID

POINTS 13483 float
430.171 47.224 -0.436641
527.928 95.6246 0.44751
102.042 6.07289 -0.437355
548.784 8.55042 -0.407903
375.253 8.4144 0.514218
253.357 58.5511 -0.46499
135.474 7.2343 0.482431
414.452 15.4492 0.24327
371.626 28.4393 -0.150544
505.37 17.7178 -0.715134
176.205 16.5059 0.20082
208.855 7.86055 -0.422122
453.94 63.6327 -0.149207
451.445 27.139 -0.105461
118.612 17.8959 -0.469445
183.725 46.6213 -0.400163
181.85 18.0606 0.262914
232.572 13.2494 0.526639
269.875 46.3085 0.452474
393.902 8.65718 -0.549842
322.798 59.0717 -0.0961814
418.701 55.8716 0.294686
549.304 65.1839 -0.494599
486.093 65.1135 -0.431492
347.666 25.9259 0.298812
200.603 56.1183 -0.159656
365.515 40.2161 -0.469256
426.429 22.0484 0.240347
38.0413 18.4111 -0.50152
495.412 55.4498 -0.39196
362.278 7.96336 0.475797
14.7159 25.9686 0.312029
542.158 97.0916 0.24861
371.222 2.51006 0.525044
66.5104 49.0213 -0.10823
380.707 44.3696 0.388895
389.172 25.1186 -0.520427
273.678 24.3479 -0.208987
387.827 39.9836 -0.367969
276.492 49.9459 -0.420562
195.82 17.7125 0.301571
326.463 56.1117 0.0659061
476.275 12.1816 -0.152103
164.816 6.52235 -0.556682
46.3084 7.2445 -0.0784822
57.0733 10.6631 -0.254042
481.048 10.6369 0.680073
19.5389 15.1815 -0.280751
420.905 73.1459 0.374731
469.627 54.2834 0.348409
143.593 38.4526 -0.301145
524.264 79.0447 -0.120798
29.5444 32.5912 0.124138
401.564 4.51948 0.631242
122.478 8.42239 -0.684616
425.054 46.478 0.388192
370.132 34.6594 0.125047
152.174 0.995892 0.3405
26.6784 2.46706 -0.2719
278.267 19.035 -0.346743
424.563 88.7795 0.131779
349.389 56.7256 -0.181474
309.451 1.05745 0.275735
489.281 13.0649 0.722629
19.4493 49.9776 -0.243761
215.887 41.9113 0.308358
504.024 10.6037 -0.378335
472.022 96.7902 -0.351744
323.833 11.6036 -0.65235
414.434 9.84468 -0.397267
512.876 46.3028 0.42197
112.515 7.84404 0.279084
367.795 43.3916 -0.181895
360.764 19.6984 0.111103
238.598 18.7166 -0.41827
16.8965 17.237 0.313777
534.469 73.3818 -0.307851
272.293 53.1609 -0.289672
469.137 48.1273 0.359138
485.099 22.4699 0.243702
544.948 25.4943 -0.226241
350.738 60.8412 -0.161211
80.4426 45.8748 -0.124899
475.192 73.0054 -0.214369
453.427 75.1589 0.105145
554.56 71.6834 -0.114948
538.449 1.56782 0.677043
235.663 38.5547 0.424291
459.742 5.89029 0.148065
21.0336 7.48957 0.625561
113.686 48.735 0.146558
385.152 17.5317 0.284994
532.687 60.9498 0.480607
164.349 39.8841 -0.228173
37.4411 44.1805 0.26365
370.727 1.01137 0.243371
193.844 8.72176 -0.499685
510.741 85.1684 -0.245065
526.413 57.5946 0.29508
285.055 32.2118 -0.268494
137.049 31.6328 0.469897
395.207 69.9283 -0.399585
298.645 26.7703 -0.480228
318.513 47.7621 -0.105548
297.433 14.7962 0.419814
402.57 25.068 -0.0915685
553.886 12.4821 -0.372655
68.834 44.1735 0.384279
266.484 6.00642 -0.217322
409.864 16.7191 -0.495905
296.685 68.9095 -0.29006
20.9331 28.769 0.448091
26.2188 7.01273 0.467226
404.611 62.0412 0.411948
371.012 36.706 0.145872
16.2293 45.632 0.436826
81.4727 35.4912 0.22076
260.58 19.4791 0.36062
434.541 26.4849 -0.200185
356.321 67.7924 -0.33366
518.093 6.59071 -0.527324
509.5 5.94226 0.282522
303.661 57.2137 0.0980371
450.021 47.9505 -0.12294
196.665 21.7606 0.580916
263.192 5.95472 0.618223
88.738 35.1638 0.312784
99.7982 26.6922 0.255533
391.873 65.1381 -0.0716735
245.876 23.2605 0.554827
494.203 73.3105 -0.108211
479.362 93.3413 -0.103722
363.549 33.3899 -0.381361
537.971 42.1919 0.316349
327.712 35.6426 0.247567
227.935 28.9016 -0.315377
471.27 72.6399 0.285662
229.87 39.2013 0.400631
422.944 13.797 0.28202
272.573 49.8931 -0.183844
383.194 13.177 0.651327
288.636 45.3375 0.0857153
331.016 25.9583 0.103284
262.084 60.3806 -0.448581
160.777 38.8607 -0.118495
532.188 94.3114 -0.14163
552.062 14.7904 -0.36787
5.89308 12.6949 -0.40917
333.315 31.8443 -0.429522
33.7516 26.4354 -0.0844836
297.731 47.3578 -0.48078
310.984 36.3831 -0.252146
62.6168 14.1748 -0.630833
43.442 41.4828 -0.434142
188.381 16.5803 0.456184
423.924 80.955 -0.382681
423.143 23.1725 -0.60062
64.1572 23.4764 0.469988
485.755 69.4976 0.434591
532.297 23.6884 -0.644903
466.579 89.5277 -0.521992
488.851 2.15793 -0.555895
401.938 45.6258 -0.470426
419.203 57.4607 0.554968
382.555 24.8545 -0.408844
546.613 6.64385 0.373988
189.338 31.5315 -0.116916
116.707 40.354 -0.212572
202.4 9.04718 -0.661601
79.186 4.89108 0.286054
53.6322 12.7098 0.261552
234.151 46.574 -0.315362
14.2861 27.6251 -0.373798
410.622 38.2304 0.529592
425.669 73.3283 0.2092
355.019 30.7218 -0.396857
539.506 75.8783 0.354738
317.65 10.2984 -0.164522
332.914 49.1902 0.405476
403.838 11.26 -0.237459
18.1022 28.1246 -0.447427
423.649 6.04725 0.589513
406.089 18.251 0.475331
175.531 20.0949 0.484614
329.732 22.8733 0.231675
251.61 6.62815 0.61979
306.202 25.4433 -0.473174
513.659 73.7561 -0.107763
163.944 34.9083 0.490349
536.189 14.8875 0.45304
517.034 72.7474 -0.312323
303.294 15.9125 0.204121
500.619 3.3672 0.541994
432.679 42.6683 -0.386684
514.733 25.0798 -0.483416
333.728 56.9518 0.272371
378.51 13.423 0.674584
349.415 73.5828 0.225676
344.622 14.9449 -0.220706
470.028 90.8736 0.268339
463.028 77.5133 -0.307668
161.142 52.0298 -0.364813
542.893 24.8842 -0.229324
420.586 56.7767 -0.283324
9.34536 21.0288 0.195055
317.977 36.5134 0.419815
159.587 30.9403 -0.418322
81.7675 47.2571 0.258387
533.004 53.4871 0.439688
461.845 90.2797 0.240668
258.801 32.7376 0.375609
397.02 21.61 0.43797
71.1181 50.0808 -0.172919
210.852 33.1949 -0.502885
409.554 43.7362 0.362856
370.062 23.8553 0.447659
214.983 0.836448 -0.399857
398.458 76.8439 -0.390679
385.791 63.442 -0.578713
361.928 63.265 0.392813
380.723 2.26712 -0.655724
494.695 28.0131 0.496974
156.376 14.6637 -0.206345
368.866 66.176 -0.408853
409.208 75.0569 0.154289
61.1545 0.9296 0.407161
207.374 6.4532 -0.210531
551.506 18.4483 -0.26202
544.095 27.3151 -0.577338
556.631 28.6052 -0.533487
244.926 8.94751 -0.284356
514.579 34.9946 -0.528644
322.437 64.6934 0.32072
345.898 0.802768 0.644946
458.036 77.1471 -0.435327
21.7717 35.149 -0.319264
271.831 56.5359 -0.536455
208.142 4.59527 0.480588
543.587 93.6532 0.174319
495.602 87.6002 0.216917
234.587 14.7642 0.366252
467.095 62.1086 -0.0831217
409.28 9.98062 0.263693
403.264 20.2469 -0.522109
82.4485 19.1734 -0.489297
245.712 0.96761 -0.257916
276.372 2.18291 -0.418117
12.719 7.69664 0.626287
4.48987 36.865 0.255879
141.873 20.276 0.358763
57.8785 48.0096 -0.247018
55.9902 33.4988 0.296435
329.608 21.1756 -0.427352
289.447 48.8094 -0.479389
523.052 80.9358 0.114331
18.4155 4.376 0.331828
58.6322 7.83878 0.262625
431.159 76.078 -0.149423
237.974 0.857912 0.483176
287.692 26.1833 -0.118765
195.924 4.58296 -0.432153
460.765 50.1023 0.174954
347.043 8.73132 0.594773
516.26 31.0966 0.434214
445.78 52.6275 0.340643
473.061 41.9484 -0.0931405
324.88 39.4054 0.529899
92.1685 50.9577 -0.304322
391.334 70.6099 -0.0944451
518.092 13.0587 -0.26785
203.551 41.5494 -0.241369
27.9201 21.0959 -0.16515
271.442 15.0404 0.528676
95.9317 44.8894 -0.451509
230.737 55.6539 -0.21631
333.168 4.72098 -0.379442
535.451 65.064 -0.405415
484.003 3.30507 -0.670244
266.667 4.1801 0.525242
247.161 36.6492 -0.139467
349.169 70.2304 0.221849
68.3665 8.64339 0.631313
166.007 58.5316 -0.379816
528.141 57.5582 -0.404757
380.926 78.9254 -0.0642176
168.661 55.0601 0.254261
132.909 51.6055 0.0612399
554.525 60.2007 -0.405813
553.812 14.3701 -0.571029
451.516 5.00803 -0.53956
163.27 32.0671 -0.098981
399.387 51.3238 -0.115049
403.155 50.4245 0.288677
322.338 7.95888 0.156482
366.595 0.846134 0.41896
517.795 86.4269 0.483093
75.782 36.018 0.226504
466.575 40.021 0.514865
224.106 21.5581 -0.387935
8.82927 2.3718 -0.326584
114.8 37.9031 -0.190607
58.5299 27.3174 -0.449666
492.318 64.1294 0.354496
549.181 95.3907 -0.1695
159.197 37.3075 -0.193807
553.428 23.8553 0.488121
36.8152 46.0206 -0.253004
80.4623 33.8455 -0.15707
459.964 28.4368 -0.440889
321.671 23.6232 -0.537962
387.83 26.4203 0.104796
203.887 38.9558 -0.189021
452.086 14.0753 -0.588025
555.504 12.3746 0.586897
24.4416 36.2958 -0.281911
221.085 9.14585 -0.259959
187.793 19.1659 0.265101
1.09861 40.9133 0.145954
189.201 17.9364 0.383625
179.546 17.6769 0.198136
181.82 35.8869 0.299817
117.675 30.3169 -0.14048
407.164 31.2431 -0.326344
146.573 16.0908 0.358672
539.83 94.5264 0.237646
153.243 5.20375 -0.684298
38.8538 47.237 -0.358131
505.379 78.2694 0.436089
233.226 40.8599 0.382988
473.166 52.6314 -0.443439
540.647 59.2543 0.504954
244.32 10.9341 0.269372
506.519 47.2554 0.340451
264.896 2.665 0.688481
323.201 33.6025 0.434917
479.715 35.6121 -0.529293
90.9295 11.9079 0.570961
368.423 4.24552 0.584819
520.019 32.2329 -0.198448
74.3113 7.92454 -0.32531
230 18.1409 0.207481
330.745 16.3585 0.368448
549.277 2.9139 -0.526712
313.945 1.63018 -0.664642
148.115 45.8905 0.288838
521.718 11.8851 -0.651308
116.901 42.4014 0.200568
221.114 42.4713 -0.377939
314.624 27.9255 0.250139
425.212 15.9178 -0.319484
306.444 12.813 -0.553206
352.764 39.6049 -0.485436
528.204 97.1376 0.395095
40.8976 13.2855 -0.113177
247.619 65.2836 -0.25754
303.628 42.4382 -0.392436
316.242 26.9411 -0.268398
376.123 60.7851 0.409104
519.812 79.4094 -0.197833
466.28 74.8297 -0.347893
190.646 42.5793 0.396213
13.0693 38.9763 -0.154968
464.991 78.1881 -0.119655
379.601 68.0041 -0.372865
197.757 46.9739 -0.0926974
475.985 58.9272 0.123032
132.936 9.91554 -0.316176
293.055 34.1222 0.306188
350.595 71.7277 0.121848
321.961 26.6943 0.235899
524.343 97.0084 -0.289919
333.838 6.1947 0.617376
41.5842 32.3888 -0.316644
356.607 51.0617 0.348851
335.516 51.8829 0.365009
532.772 74.7285 0.24604
505.753 50.7908 0.291613
403.412 35.7993 -0.137426
527.252 85.4765 -0.415407
238.002 2.09606 -0.552298
304.006 44.8982 -0.499664
19.8655 44.8899 0.318316
511.329 49.3707 -0.14726
440.511 35.0721 -0.518714
354.287 1.73291 0.60865
109.736 4.77182 -0.384388
330.479 58.1897 -0.130496
11.1943 0.868937 0.35683
544.607 9.8759 0.143031
291.07 52.9893 0.413586
[...]
POINT_DATA 13483
TENSORS Strain_matrix float
-0.129367 0.184328 0.482329 
-0.162225 0.127514 0.549457 
0.00139255 -1.05287e-05 0.0357711 

-0.00909363 -0.0343589 -0.404075 
0.0402061 -0.0056008 -0.146907 
-0.00949858 0.00392564 0.0182289 

-0.0206357 -0.000823732 -0.0348296 
0.0105145 -0.012533 0.104921 
-0.0225753 -0.021599 0.0985106 

-0.0426361 -0.124455 -0.0215057 
0.0952013 -0.00911666 0.189114 
0.00793877 -0.0114404 0.0569888 

-0.0369105 0.0866594 0.161118 
-0.0652261 0.0568885 0.205879 
-0.000377651 0.0126177 0.00391539 

-0.219686 -0.48501 9.51022 
0.459415 0.517266 -3.51534 
0.00948987 0.0202595 -1.15388 

-0.00811043 0.0176017 -0.0485553 
-0.0195714 -0.0151687 -0.0673299 
-0.00350542 -0.00378629 0.0300027 

-0.00630157 0.0380726 0.013785 
-0.0647218 -0.0130929 0.0439297 
-0.00386171 -0.00058614 0.0323913 

0.00970403 -0.0932238 0.0968811 
0.0503383 0.00403315 -0.0701402 
0.00307418 0.00460755 0.0581157 

-0.0659016 -0.0849376 3.11462 
0.029607 0.0833533 -9.47078 
-0.00189286 -0.0017107 -0.32669 

-0.147769 0.0536593 -0.571908 
-0.0235495 0.122307 -1.22949 
-0.0085832 -0.116883 0.344095 

-0.0529868 -0.140548 0.0822137 
0.0654066 -0.0143014 -0.317955 
-0.00135277 0.000806316 -0.014034 

-0.053558 -0.0963305 -0.419841 
-0.0407169 0.069028 -0.176114 
0.00100219 0.000652635 -0.0165552 

0.0176295 0.0185023 -0.00110309 
0.0112421 -0.0223781 0.028703 
0.000393429 -0.000119623 -0.0037874 

-0.0156 -0.0242216 -0.10141 
0.0167265 -0.0112112 0.105895 
0.00112576 -0.0015669 -0.00934603 

-0.0653867 -0.0485178 -1.1698 
-0.227779 0.029898 -0.50349 
0.000158803 0.00103064 -0.0267602 

-0.349182 0.688811 -0.585258 
-0.678554 0.542785 0.430656 
0.0168337 -0.00209178 1.1704 

-0.0211828 0.051196 -0.0317015 
-0.0316752 -0.0446011 -0.0248868 
0.0054227 -0.00622527 0.0550032 

-0.454995 0.238345 0.197258 
-0.110058 0.389966 0.344495 
0.0190476 -0.0233333 -0.143758 

-0.0631971 0.0221342 -0.112888 
0.0487662 -0.00885281 -0.0642283 
0.0514226 -0.0137526 0.109104 

-0.322626 0.0391134 -1.14465 
-0.345273 0.222892 -0.857166 
0.0348154 -0.0392465 0.231432 

0.0517029 0.0721571 0.264306 
0.067322 -0.00293195 -0.0511594 
0.00446917 0.00207247 0.00970165 

0.00212579 0.00410283 0.0218873 
0.0180457 -0.0099616 0.0494125 
-0.00232708 -0.00101414 -0.00189605 

0.0228952 -0.160832 -0.446302 
0.026175 -0.0104481 0.590282 
-0.00301883 0.00109483 -0.00305961 

-0.0225962 -0.108728 -0.273014 
0.0543489 0.0145807 0.186888 
0.0281002 -0.00552264 0.0959354 

-0.187603 -0.319588 0.181188 
0.0657254 0.28838 -0.5272 
-0.0233214 0.0222388 0.335436 

-0.134174 0.0765344 -0.737353 
-0.0913348 0.12665 -0.645369 
-0.00292342 0.000618022 0.130557 

0.0143049 -0.0866633 0.0183859 
0.14205 -0.0261336 -0.0175538 
-0.00368428 0.00687893 0.0527768 

-0.0218139 0.0580049 2.22277 
-0.0582812 0.0474441 -1.02418 
-0.00190613 -0.000444421 0.214459 

0.0138574 -0.078297 -0.235368 
0.108208 -0.0165248 0.492035 
-0.0134613 -0.00786948 -0.0334192 

-0.0972736 0.0534956 0.0683514 
-0.0898486 0.143793 -0.1722 
-0.00123139 0.014543 -0.0495843 

0.00982278 0.000865999 -0.191581 
0.0424776 -0.00687791 0.0173671 
-0.00433825 -0.00185682 -0.0255469 

-0.0071981 0.0528168 0.0845892 
-0.0713986 0.00969001 -0.23418 
0.000927681 -0.000101045 -0.0156839 

-0.0836104 -0.0180732 0.0257184 
-0.0370573 0.191152 0.332497 
0.00236192 -0.0161422 0.619433 

-0.0161469 0.00658454 0.00367121 
-0.00182425 0.00783874 -0.0084781 
0.000418578 0.000433039 0.00830056 

-0.0694246 0.102148 0.168778 
-0.119463 0.0715118 -0.427072 
-0.00997791 -0.0109411 -0.00820044 

-0.120818 0.119957 -0.952568 
0.0252195 0.0894166 -0.0869133 
0.000838574 -0.0174795 0.338441 

0.0274008 -0.391794 0.475123 
0.276139 0.0470858 -0.264459 
-0.054183 -0.021585 0.355784 

0.0112568 0.0385349 0.0157206 
-0.0289292 -0.00844068 0.110884 
0.00111198 -0.000995788 -0.0144475 

-0.362101 0.262903 -2.97614 
-0.430051 0.394871 -4.81072 
0.00807946 0.0189294 0.0275282 

-0.0987028 0.15514 -0.254834 
-0.149159 0.179417 0.468934 
0.0128109 -0.0266438 -0.13664 

-0.154062 -0.0848304 0.409514 
-0.423404 0.0260306 -0.426309 
0.0287064 -0.00684513 0.369536 

-0.0571258 0.0716048 0.0141031 
-0.0316652 0.0745055 -0.194951 
0.0317092 -0.0358039 0.112619 

-0.198282 -0.0704529 0.0405757 
0.341067 0.106443 -1.93064 
-0.0259936 -0.00188302 -0.743393 

-0.00859041 -0.00884071 -0.0078452 
0.0345504 0.00377646 0.0230832 
0.000811885 0.00671394 -0.00145744 

-0.0277983 0.0949651 0.250044 
-0.0309679 0.0502148 -0.108546 
-0.0191084 -0.0134414 0.106494 

6.77415e-05 0.0154111 0.348313 
-0.00374337 0.00719851 0.428428 
-0.00327745 0.00280474 0.0562102 

-0.220815 -0.144166 0.0145647 
-0.203035 0.11619 -0.129371 
0.0289331 0.108673 0.246127 

-0.00937419 0.0580802 0.0961806 
-0.064233 0.0191563 -0.093042 
-0.0252875 0.0651773 -0.00639272 

-0.00868911 -0.0799857 0.80593 
0.0942331 0.0619759 -1.18072 
-0.0113158 0.00569876 -0.145752 

-0.287656 -0.325389 -0.523302 
0.304921 0.309217 -0.0552766 
0.0145305 0.0787511 -0.0298149 

0.0987727 -0.101958 -0.326898 
0.165623 -0.0455929 0.332577 
-0.0071763 0.0304303 0.164113 

-0.133271 -0.0317089 0.0456792 
-0.140845 0.168524 -0.0114516 
0.0198059 0.00566607 0.0916052 

-0.0334754 -0.00801376 -0.00812717 
-0.00757289 0.0144211 0.0222767 
0.00161944 -0.00365464 -0.0135083 

-0.0464482 -0.132094 19.0805 
0.0138365 0.0837849 -13.898 
0.00127286 -0.00064705 0.919575 

-0.0218633 0.0106746 -0.00863173 
-0.0539478 -0.00318046 -1.15157 
-0.00875952 0.00817637 -0.129848 

-0.182001 0.0251975 0.0621802 
0.0896715 0.117783 -0.225295 
0.00392329 -0.0168363 0.00560212 

-0.28098 0.506181 -1.03518 
0.0225067 0.143334 -0.147886 
-0.000740905 0.0666717 0.165478 

-0.306878 0.42029 0.128073 
-0.441412 0.375309 -0.0313654 
-0.00297809 0.0603379 0.376225 

-0.208477 0.0872019 -0.703913 
-0.029271 0.210226 0.368645 
0.00073748 -0.00433747 -0.0198358 

-0.103606 0.596676 1.2005 
0.0353961 -0.0267533 -0.0103372 
0.00209079 -0.0152658 0.0399941 

-0.0250036 -0.219677 -0.704384 
0.172107 0.0610285 -0.635181 
-0.00203108 -0.000237005 0.0151099 

-0.0175751 0.0474749 -0.100167 
0.000112552 -0.00133554 0.0677673 
0.00409273 0.0174301 -0.0495407 

-0.0100542 -0.0262552 2.82568 
-0.00550701 0.0241325 3.53101 
-9.18322e-05 0.00211963 0.14309 

-0.00850588 0.00304319 0.0171347 
0.00436418 0.000904965 -0.0314399 
-0.000208958 0.000268059 0.0301785 

-0.295838 0.203588 0.35496 
-0.280076 0.384067 -0.125785 
0.00500054 0.0104812 0.0301884 

0.0170934 -0.00960479 0.0117458 
-0.0286663 -0.0201386 3.56351e-05 
0.000371364 -0.00202124 0.00507553 

0.0134004 -0.000994476 0.213997 
-0.00121573 -0.012242 0.116995 
-0.000968154 0.00640008 -0.0603601 

-0.0245743 -0.0414633 -0.308784 
0.0985234 0.0316558 -0.621442 
-0.000690259 0.00180282 0.153756 

-0.0064255 -0.0162778 0.0373053 
-0.0327394 -0.0215498 0.00441591 
0.00222994 0.00343459 0.0184867 

0.00132109 -0.0891092 -0.151311 
-0.00479366 -0.0400637 0.151885 
-0.00263575 -0.0128906 -0.0203942 

0.00300385 -0.0102213 0.00798891 
-0.00806035 -0.0124256 -0.0382986 
-0.000839452 -0.000815746 0.00863525 

-0.269436 0.210027 0.421899 
0.016931 0.146649 -0.25595 
0.00664181 0.00294688 0.0543787 

-0.0112939 0.0178692 -0.0486566 
-0.018926 -0.0183999 0.0148215 
0.00132694 0.00365918 0.0632625 

-0.127281 0.0178389 0.0494491 
-0.053443 0.0525278 -0.753952 
0.00888957 0.00239805 0.233973 

-0.0600756 -0.0235915 0.312792 
0.230741 0.0317711 -0.74965 
0.0078422 -0.00726161 0.0669125 

-0.0371971 0.0222125 -0.317729 
-0.0158003 0.0297415 -0.355487 
0.0184244 -0.0164956 0.107685 

-0.0128316 0.184387 -1.04257 
-0.00153686 -0.0332611 -0.267149 
-0.0760459 -0.0325711 -0.165162 

0.00753498 -0.156773 -1.08521 
0.0540524 -0.00440814 -0.893026 
-0.00258457 0.00384244 0.00155199 

-0.0319168 0.113298 0.26896 
-0.108406 0.0152796 0.113712 
-0.0105464 -0.0121749 0.0149592 

0.0271858 -0.0992789 0.0483768 
0.0765421 -0.00236147 0.0849945 
0.00783629 -0.000922344 0.0203315 

-0.287369 0.00449677 -0.588712 
-0.00209596 0.205279 -0.0867136 
-0.00213661 0.00188756 -0.027932 

0.00210214 -0.0396022 0.0502975 
0.0485445 0.0129642 -0.0544395 
0.000587381 0.000291449 -0.0261325 

-0.33538 0.0585367 0.0394609 
-0.214648 0.132528 -0.172172 
0.00126493 0.000651423 0.0111104 

-0.0192453 -0.0839981 -0.235102 
0.146119 0.0443301 0.0828491 
-0.0118976 0.0290616 -0.0652504 

-0.0119835 0.0180307 -0.00711708 
0.0246986 -0.000305603 0.000559089 
0.000299058 -0.000494991 0.0163573 

-0.534165 -0.0309954 1.48289 
-0.0862286 0.378766 -3.9187 
0.00843783 0.0138713 -0.0152943 

-0.188289 0.466385 0.171823 
-0.13602 0.238515 -0.247802 
0.0401314 0.028998 0.0581947 

-0.43155 -0.564384 0.268408 
0.218307 0.390506 0.134938 
0.0164696 -0.00984345 0.148907 

-0.103172 0.0396794 5.65081 
-0.0556302 0.105396 -3.41653 
0.0217964 -0.020145 0.293225 

-0.0462631 -1.71877 -1.37807 
0.2786 0.257824 -0.852137 
0.0157084 0.0286481 0.289945 

-0.187382 0.0232354 0.0629687 
-0.185322 0.135349 -0.047296 
-0.00567135 0.000409051 0.0136239 

-0.0889167 -0.0219304 2.7515 
-0.0158892 0.0341899 0.771698 
-0.0153324 0.00460651 -0.0019588 

-0.168611 -0.323084 0.430042 
0.365261 0.302946 -0.205836 
0.000331685 -0.000856659 0.0124168 

-0.0635272 -0.0948716 -0.0375172 
-0.133166 -0.00510963 -0.103423 
-0.0174377 -0.0415272 0.292005 

-0.140195 -0.150945 -0.349489 
0.00774159 0.136702 0.0240358 
0.0408168 -0.00751943 -0.0576954 

-0.10342 0.0389515 -0.646178 
-0.00191713 0.0707374 0.134892 
0.0477971 -0.028062 0.520012 

-0.0228077 -0.0574119 0.0277716 
0.117476 0.0423428 -0.133205 
0.0048689 -0.00216882 0.000136078 

-0.129559 -0.03683 0.207376 
0.169614 0.0504092 -0.0608814 
0.00594687 0.0024167 0.111014 

0.0289883 -0.142157 -0.0866153 
-0.0264191 -0.0355982 0.141626 
-0.00177348 -0.00200125 0.0183677 

-0.115996 -0.158314 -2.30685 
0.129175 0.065858 -1.97285 
-0.0114765 0.0203391 -0.032625 

-0.129479 -0.203253 -0.741521 
0.0161182 0.0963962 -0.544362 
0.00676575 -0.00491462 -0.147967 

-0.0281444 -0.0659178 0.504729 
-0.125184 0.0817339 -2.22215 
-0.00782099 -0.000365161 -0.00492157 

-0.162332 0.152672 -0.0358341 
-0.179955 0.188841 0.222676 
-0.000713538 -0.00214523 0.00116934 

-0.0693883 -0.0376001 0.00988806 
0.100956 0.0773301 -0.0391445 
0.0090511 0.00376096 0.0641787 

-0.00582627 0.0508975 0.00550723 
-0.0306916 0.00860871 0.0139323 
0.000575369 -0.000514432 0.000867297 

-0.0542035 0.0204619 -0.0528605 
0.0134435 0.00640543 0.0122392 
0.00902041 -0.00782728 0.0407763 

-0.000217546 0.0110684 -0.169566 
0.0186043 0.0118734 0.316415 
-0.000602339 0.00265216 -0.012751 

-0.0217276 0.00391585 0.0040332 
-0.00102571 -0.00229739 -0.00431121 
-0.0014487 0.000315812 0.0217759 

-0.0129168 0.0186938 -0.0749069 
-0.0112253 0.00172132 0.0671758 
0.00166728 -0.000600083 0.0123993 

-0.059907 0.168735 4.43105 
0.121325 -0.0701584 0.785204 
0.0394422 0.0302514 1.95974 

0.0251644 0.091714 0.110818 
-0.0399723 -0.0160736 -0.240955 
-0.00109338 -0.00115192 -0.0513888 

-0.235127 -0.03121 -0.509115 
0.016816 0.120107 -0.638645 
0.0427108 0.114352 0.195528 

-0.242576 0.15478 -0.0677558 
-0.147358 0.216321 -0.777625 
-0.00300333 0.00158925 0.0269347 

-0.198204 -0.101889 0.313828 
0.12375 0.112092 -0.503634 
0.00599894 0.0819168 0.158814 

-0.0461473 0.00294603 1.48753 
0.0190662 0.0280584 -1.55209 
0.00377759 -0.000169773 0.01374 

-0.287557 0.201882 0.313355 
-0.105518 0.159189 0.457989 
0.126951 0.018115 0.020934 

-0.0188343 -0.106087 -0.219384 
0.0555347 0.0176018 0.065347 
-0.00315327 0.0024039 0.0226383 

-0.0760373 0.0716298 -0.0273585 
0.0184675 0.0294191 0.49676 
-0.0106018 0.012073 0.0689517 

0.00106849 -0.0571872 -0.416122 
-0.012909 0.0241382 0.314992 
-0.000304004 0.0135259 -0.0718346 

0.0571162 0.0208049 -0.0212205 
0.0838129 -0.0815439 -0.0435861 
-0.0265452 0.00489413 0.0221436 

0.0124017 -0.00410731 -0.00652462 
-0.0198165 -0.0232898 -0.0148413 
-0.00269409 0.00479702 0.0123213 

0.0738014 -0.17748 0.0954946 
0.181581 -0.0335058 0.362189 
-0.000268973 -0.00218691 -0.0611797 

0.0134113 -0.0616457 -0.00260812 
-0.0899289 -0.00589224 0.257904 
-0.00167483 0.00122228 -0.0653296 

-0.197505 0.177141 -8.9173 
-0.151541 0.157193 -9.42358 
-0.00205146 -0.000313058 0.0244569 

-0.0240185 0.000339999 -0.0355939 
0.00342416 -0.00334797 -0.00397068 
0.000516318 0.00114071 -0.0193323 

0.0615605 0.426864 -0.947913 
0.00622991 -0.217826 -0.194742 
-0.00296235 -0.00170254 -0.0145899 

-0.0438478 0.026053 0.573477 
-0.125864 0.0724652 0.0315755 
-0.0409932 -0.00166628 0.0552159 

0.0432095 -0.0535705 0.113747 
0.0419527 -0.00426626 -0.112731 
0.00163373 0.0046504 -0.0363986 

-0.0858974 -0.0708347 -0.418829 
-0.0468566 0.0862767 -0.32819 
0.00272928 -0.00661647 0.0466758 

0.0277973 0.0207613 0.0911583 
-0.00646133 -0.00787407 -0.0678193 
-0.0027438 -0.000760624 0.00328227 

0.0136832 0.0311546 -0.0392432 
-0.0586341 -0.00607274 0.0429446 
-0.000181782 -0.000289658 0.00378195 

-0.0705949 -0.192103 -0.267012 
0.011 0.0515867 0.666273 
0.0197697 -0.011241 -0.10543 

-0.00476087 -0.0973425 -0.0290115 
0.0943255 0.0182538 0.0317705 
-0.000753096 -0.000407614 0.0137322 

-0.289176 -0.294758 -0.367322 
0.107865 0.249661 0.386643 
-0.0029026 -0.00133521 0.0434089 

-0.00838705 0.00571786 -0.473286 
-0.060965 0.0306738 -0.0333949 
-0.00479921 0.000134295 0.0155141 

-0.0547544 -0.00645045 0.292141 
0.0533054 -0.0269983 -1.00897 
-0.00358261 -0.00169206 0.0277382 

-0.202491 0.216734 -3.05779 
-0.0750444 0.187738 -2.72244 
-0.000863473 0.00257563 0.0920321 

0.00119677 0.000727053 -0.0810224 
0.0357806 -0.024853 -0.0262435 
-0.00245274 0.00799865 0.0592561 

-0.358921 0.333022 -0.253566 
-0.131757 0.504707 -0.448365 
0.018161 0.0805549 0.459865 

-0.0894358 0.00430644 -0.28376 
-0.0128636 0.0349542 1.05567 
-0.000794175 0.00253452 0.0995348 

-0.0292526 -0.0882047 -0.0202761 
0.114599 0.0272932 -0.0740804 
0.00110277 -0.00108555 0.00561875 

0.0126088 -0.0497957 0.155013 
0.194878 -0.0555171 -0.136684 
-0.00427401 0.005421 0.038342 

0.0229327 -0.016237 1.48892 
-0.108185 0.0258648 -1.1695 
0.0422943 -0.0317423 1.32565 

-0.0461899 -0.359926 0.962454 
-0.0888968 0.0557073 -0.678517 
-0.0077594 0.021764 0.0939941 

-0.0286516 0.00584692 0.0118894 
0.102352 0.0338185 -0.0989958 
0.0784886 0.0651518 0.0820433 

-0.00169615 -0.072125 -0.145792 
0.107426 -0.0436708 0.0187904 
0.00531189 0.0108276 0.0777736 

-0.0573398 0.0499061 -0.268975 
-0.00394509 0.07823 -0.380878 
-0.00681295 0.00682618 0.0255355 

-0.101929 -0.123027 -1.10086 
0.118991 0.0809947 1.95558 
0.0244261 -0.00753096 -0.0627882 

-0.221866 -0.0805603 -0.55644 
0.184667 0.224005 0.479953 
-0.00103713 -0.0280283 -0.0257336 

0.0703476 0.0158752 0.600768 
0.180053 -0.0652194 0.867772 
0.00184305 -0.00130443 0.123344 

-0.107585 0.0384522 -0.21289 
-0.0092043 0.0397065 1.12311 
0.0193178 0.0156155 0.184079 

-0.0608859 0.0364011 -0.691675 
0.0283413 0.0414639 0.491565 
0.00222186 0.000439249 0.530609 

-0.0436216 -0.0146455 1.1861 
-0.0709615 0.026172 0.394965 
-0.00437428 0.00843614 0.080827 

-0.324684 0.195604 2.10173 
-0.130156 0.379274 -0.00261924 
-0.0605504 -0.0122311 -0.250947 

-0.0518864 -0.19643 1.14587 
0.163539 0.0980285 -0.548633 
-0.0158997 0.0331384 1.09489 

-0.0867772 0.0172079 -0.94224 
0.0457253 0.0543716 -0.913232 
0.00471932 -0.00359471 0.200688 

-0.017665 0.011911 1.17063 
0.15048 0.0587862 1.497 
0.00123395 0.000559326 0.155508 

-0.00563887 -0.0367538 0.960047 
0.0306606 -0.00912605 0.0716424 
0.00328045 -0.00108665 0.105066 

-0.0491653 -0.0608118 -0.14294 
-0.0540205 0.0250648 0.171538 
-0.0100279 -0.0189952 0.0955672 

-0.09909 0.508446 -46.409 
0.00922659 -0.0649399 13.111 
-0.000180888 0.00138816 0.0113575 

0.0165753 -0.00244142 -0.00639996 
0.0012635 -0.0118846 0.0174975 
0.00228798 -0.000199802 -0.00148502 

-0.0587671 -0.281298 -0.152515 
0.0881662 0.096197 -0.443675 
-0.000605127 -0.0019168 -0.0233863 

-0.0352658 -0.0266974 -1.59978 
0.00257825 0.0262267 0.512135 
0.000419306 0.000951441 0.0661742 

-0.045078 0.0131731 -0.148654 
0.0670343 0.0837021 0.242658 
0.00987212 0.00844646 -0.0544086 

-0.0955863 -0.182718 -0.00661641 
0.217145 0.0933777 -0.120079 
0.00253083 0.00945712 0.0518186 

-0.00993119 -0.158191 -0.0187706 
-0.0573012 0.0891746 -0.131282 
0.00234487 0.0025539 0.0211907 

-0.605758 0.147532 0.0415986 
0.465839 0.481429 -0.101578 
0.0458236 0.0344045 0.104754 

-0.0725217 -0.0101853 0.533767 
0.0182592 0.0130634 -0.196465 
-0.00684197 -0.000822771 0.942771 

-0.0142163 -0.00556517 0.0196763 
0.00547081 0.00362895 -0.0243793 
0.000902866 0.000240054 0.0109067 

0.0237913 0.0252908 0.131029 
-0.0162467 -0.00036877 0.0329089 
0.00313875 -0.0133195 0.0359988 

0.0497594 0.379909 -0.131419 
-0.436334 0.0813321 0.0559727 
-0.00949734 0.00499464 0.00426138 

0.031704 -0.0267862 -1.01686 
0.0804872 0.00997309 0.688958 
-0.00418781 -0.0017959 -0.0170252 

-0.0867128 -0.168027 -7.8117 
0.0648447 0.0458413 0.677636 
-0.000122939 0.00219827 0.00931062 

-0.0510376 0.0681553 0.0216726 
-0.0357516 0.00637653 0.0261294 
-0.00230795 -0.0349078 0.108494 

-0.0164192 0.155726 0.717477 
-0.216873 0.0807027 -0.0686164 
-0.00198062 0.00416135 0.180519 

-0.0166993 0.0134698 0.0140221 
-0.00938507 0.0200494 -0.0510586 
-0.000187321 -0.000555139 0.0196584 

-0.0122286 -0.0686296 0.00666355 
0.00850387 -0.0391309 -0.136389 
0.0439616 0.0664819 0.197919 

-0.0141066 0.000792906 -0.0407248 
0.00170445 0.00741518 -0.0617597 
-0.000652306 -0.000230289 0.0133661 

-0.00573162 -0.0310897 -0.100944 
0.000147592 0.00375626 -0.0376815 
-0.0041013 0.00273943 0.0260136 

0.034285 0.071473 -0.63028 
-0.0514007 -0.0142682 0.418706 
0.000861225 -0.00192865 -0.0136842 

-0.0206368 -0.000742854 -0.0195245 
0.0256853 -0.00878005 -0.0567383 
0.00396811 -0.00226907 0.0277961 

-0.0164868 0.032373 0.004663 
-0.0191176 0.00914391 0.0112543 
-0.00133491 0.00171476 0.00941289 

-0.0861487 0.00340368 -2.23313 
-0.024708 0.144331 -2.90616 
0.029553 -0.0160768 0.359999 

0.0216329 -0.215819 0.108396 
0.119171 0.0260598 -0.182358 
-0.00791733 -0.0011386 0.0387113 

-0.0248226 0.0193457 0.0654488 
-0.00101365 -0.00324456 -0.129166 
-0.00286726 -0.000215897 -0.00429609 

-0.142739 -0.467365 -0.0393605 
0.0606869 0.079331 -2.83874 
-0.00335011 0.00302922 0.0271339 

0.00821413 -0.00486268 -0.0966571 
0.0274241 -0.0242124 0.0557339 
0.000413391 0.000789353 0.0134983 

-0.166934 -0.0814611 2.86782 
0.131451 0.134519 -0.887577 
-0.000894816 -0.000919036 0.0313559 

0.00814009 -0.133505 0.0658078 
0.186796 -0.0128918 -0.00134243 
-0.000144212 -0.00197542 0.0320019 

-0.0399613 0.0379415 0.473139 
0.116163 -0.0251449 -0.311235 
0.00106439 -0.00164097 -0.00268257 

-0.0381765 0.374116 0.0598972 
-0.313665 0.117704 0.334179 
0.0098824 -0.0190767 0.0789587 

0.0130538 -0.0201263 0.0149087 
-0.00410712 -0.0159906 -0.0125647 
0.00115684 -0.00302358 -0.00622638 

0.0277984 -0.116785 -0.240969 
0.0882244 -0.0256878 -0.295436 
0.00146451 0.00401596 0.0609875 

0.00919329 -0.119369 -0.277284 
-0.0917515 -0.0278237 -0.209355 
-0.00148346 0.00624457 0.0443831 

0.101824 -0.12388 0.487198 
0.112183 -0.0174634 -0.136058 
-0.0607075 0.0255619 0.177254 

-0.0519395 0.042292 -0.631985 
-0.0417323 0.0121897 -0.506444 
-0.00423142 0.000776208 0.109692 

0.0284409 -0.0354934 0.0731518 
0.078211 -0.0176034 -0.00563579 
-0.0155388 0.0551141 0.218431 

-0.3847 0.634023 1.53068 
-0.274533 0.628592 1.40787 
-0.0057407 -0.0368573 0.028493 

-0.000548897 0.00843816 0.0070262 
-0.00529646 -0.00293832 -0.0314931 
0.000879897 -0.00302066 -0.00957342 

0.000679262 0.116092 0.21528 
0.0328595 0.0146451 -0.394339 
-0.00555583 -0.00397506 0.0221943 

0.0387107 -0.144086 -0.0145152 
0.168248 0.0182 -0.0317075 
-0.00361252 0.00120925 -0.057142 

0.0138704 -0.0975588 0.0164551 
0.0973467 -0.0215124 -0.00547306 
0.00369912 -0.00291885 0.0240321 

0.0656336 0.0965279 0.00453412 
-0.0229399 -0.0451191 0.0943906 
0.00403522 -0.00202185 0.00867518 

0.042668 -0.1736 0.216062 
0.370241 0.102271 0.228172 
0.00299439 -0.0095813 0.0426592 
