# vtk DataFile Version 3.0
Output file generated by Yade's KinematicLocalisationAnalyser
ASCII
DATASET UNSTRUCTURED_GRID

POINTS 13483 float
465.75 46.1463 -0.447944
568.213 91.5886 0.445608
107.193 6.16817 -0.437574
589.552 7.73367 -0.313718
407.02 8.31273 0.529005
277.988 51.5776 -0.462914
140.929 7.22013 0.474184
447.435 15.6991 0.21104
402.915 27.8071 -0.140473
541.033 18.1713 -0.687216
187.844 11.1679 -0.12085
227.752 7.92771 -0.481014
490.874 61.1468 -0.137062
486.706 25.6324 -0.108933
124.102 17.989 -0.456295
197.574 40.048 -0.394497
193.763 13.5514 -0.307961
252.557 12.3666 0.50289
297.07 42.3081 0.481462
426.189 8.75098 -0.440546
350.248 52.8316 -0.101905
453.85 54.0963 0.337409
590.294 61.4175 -0.491476
525.293 62.2008 -0.491061
377.015 22.7768 0.299108
216.027 50.0644 0.167322
395.613 38.6324 -0.500501
459.925 21.7985 0.281243
39.9022 17.9942 -0.455881
535.152 52.6415 -0.351591
393.873 7.83812 0.560238
15.8142 23.3696 0.314755
582.484 92.6707 0.249667
403.85 2.20244 0.66557
68.7071 48.1406 -0.105871
411.971 42.6703 0.345559
420.671 24.3479 -0.443493
296.587 23.6616 0.199108
419.78 39.2326 -0.374689
301.996 46.4767 -0.393904
214.127 15.4566 0.36933
356.02 51.855 0.0715824
511.834 12.2532 -0.253403
173.745 6.15076 -0.478912
49.5284 7.27723 -0.0849996
60.1585 10.555 -0.242639
516.968 10.7005 0.682994
21.519 12.7183 -0.347939
455.089 71.681 0.390438
506.456 52.5347 0.334679
154.044 34.7969 -0.299907
564.569 74.7301 -0.13132
30.9479 31.0862 0.12258
434.285 4.39985 0.616161
127.836 8.47453 -0.681408
459.603 44.5171 0.376071
401.084 33.6641 0.149633
157.938 0.956847 0.28474
29.6232 2.34296 -0.374426
300.918 19.3569 -0.308595
463.567 85.7224 0.132889
379.983 53.5567 -0.186699
336.767 1.01738 0.269088
525.143 13.3233 0.720476
20.964 46.836 -0.243446
229.874 36.3341 0.32926
539.577 10.8687 -0.380996
510.02 92.5863 -0.351745
351.831 10.9097 -0.644739
447.35 9.94463 -0.373856
552.222 43.7592 0.387
117.894 7.84989 0.270647
397.975 41.747 -0.143303
391.833 18.7488 0.0992516
259.293 18.996 -0.364219
18.7995 14.3147 0.284549
575.154 69.6758 -0.300834
296.406 47.2332 -0.30115
504.399 46.9184 0.351147
520.765 22.5715 0.27267
583.81 21.8242 -0.272456
381.635 57.5324 -0.169464
82.6171 44.7491 -0.256838
513.911 69.7836 -0.21885
490.51 72.2811 0.102144
595.411 67.8605 -0.113646
578.097 0.667601 0.684763
256.73 37.1525 0.432995
492.475 6.16017 -0.109829
22.8856 6.49228 0.665803
120.855 43.9049 -0.152052
417.419 17.8773 0.228141
573.535 57.3664 0.492438
175.95 33.6735 -0.234157
38.948 41.8741 0.262918
402.687 1.13891 0.161269
211.338 8.61912 -0.440704
550.453 82.0692 -0.245511
566.961 54.189 0.223716
310.483 29.4774 -0.281326
145.651 29.7862 0.450799
428.509 67.1634 0.393452
323.761 22.9857 -0.563862
346.886 43.2324 0.0919438
322.355 11.307 0.48402
434.984 24.7611 -0.089091
594.682 11.7295 -0.365982
71.0402 43.2815 0.389536
288.09 6.04591 -0.202818
442.757 16.7088 -0.484448
320.962 64.3884 -0.113413
21.8427 26.6481 0.459733
28.1744 6.22279 0.306292
439.108 58.6677 0.413051
402.571 35.2547 0.173676
17.6986 42.5063 0.424742
85.0636 35.4093 0.217369
281.952 19.6229 0.356955
468.565 24.874 -0.151291
388.523 62.6294 -0.319098
553.254 6.84098 -0.489885
544.924 6.16758 0.27091
331.166 51.6265 0.113434
485.209 46.5662 -0.109694
211.959 19.398 0.655564
284.737 5.98908 0.613322
92.3455 33.1713 0.311073
105.101 26.0978 0.256425
424.935 62.9744 -0.0656595
267.579 22.9426 0.44996
533.639 70.6454 -0.114186
517.298 89.378 -0.103604
394.073 31.8717 -0.37414
578.26 39.0565 0.317372
357.654 32.8875 0.235833
247.639 28.5905 -0.320401
509.501 68.5553 0.300018
248.68 37.287 0.376247
455.99 13.9443 0.273538
297.191 45.4276 0.198093
414.948 13.4621 0.545421
315.419 41.8824 0.0917874
360.324 24.294 0.11164
286.151 54.2072 -0.421661
172.23 33.4602 0.113326
572.401 90.0323 -0.141926
592.959 14.0805 -0.388998
5.73167 12.8826 -0.43064
362.409 29.1834 -0.38972
35.0806 25.8035 -0.0963744
324.621 42.4051 -0.474751
338.917 32.1368 -0.258122
66.2586 12.7601 -0.475433
45.2664 40.1527 -0.430176
203.213 13.5444 0.523992
462.221 78.0288 -0.38835
456.581 23.289 -0.563901
67.9967 22.4896 0.48
525.311 66.5539 0.430942
570.99 21.4586 -0.53964
504.675 85.2252 -0.520351
524.627 2.16835 -0.549371
436.283 44.5875 -0.406449
453.821 55.7873 0.504591
414.21 24.1835 -0.479765
586.803 6.345 0.349509
202.563 26.7428 -0.121841
119.212 38.3126 -0.20722
221.16 9.07772 -0.676126
83.8683 4.88429 0.278709
56.8782 12.6256 0.29129
252.994 44.2273 -0.310769
15.3011 25.011 -0.373538
443.691 37.4522 0.468058
459.856 72.2079 0.199951
384.815 28.0314 -0.37975
580.331 72.0359 0.356696
345.402 9.94094 -0.176214
362.329 46.6788 0.413418
436.72 11.1952 -0.251747
19.0449 25.8135 -0.420857
456.801 5.99723 0.572015
438.892 18.1761 0.468109
186.815 14.136 0.512626
358.559 21.3531 0.233571
272.845 6.58892 0.60156
331.686 23.0618 -0.373014
553.159 70.9647 -0.114204
175.809 29.3185 0.450883
574.136 12.0208 0.406297
556.496 69.897 -0.316892
328.774 13.5832 -0.33385
536.159 3.4693 0.535417
468.225 41.5241 -0.377
553.286 23.8199 -0.510622
363.388 54.4612 0.270449
409.829 13.6275 0.616216
381.467 68.4316 0.235081
372.457 11.5378 -0.239502
508.101 86.6338 0.268207
500.615 73.9591 -0.283014
174.997 45.3011 -0.377374
581.758 21.4359 -0.204422
455.361 55.2334 -0.265559
10.1428 19.0903 0.173254
345.799 33.1032 0.387505
170.789 25.8868 -0.413975
84.0304 45.995 0.252624
574.533 50.8767 0.50142
500.103 86.1208 0.256447
281.305 32.6596 0.347318
429.57 21.1448 0.444037
73.3842 49.1463 -0.171651
223.724 29.7141 -0.473142
443.271 42.707 0.35723
401.074 23.2604 0.433777
234.726 0.908497 -0.482349
432.505 73.5957 -0.395009
418.762 61.23 -0.609215
393.578 57.1389 0.390891
412.862 2.26309 -0.657314
529.42 28.5344 0.559843
164.423 12.9735 -0.267296
401.398 63.6312 -0.423628
443.297 72.9864 0.162433
64.6292 1.26581 0.398665
225.799 6.25055 -0.266306
592.667 18.074 -0.2752
583.256 23.8063 -0.545688
597.53 26.0026 -0.496908
266.009 9.00051 -0.273748
554.474 33.3086 -0.582287
350.734 58.3439 0.331067
375.467 0.829241 0.643854
496.099 73.4212 -0.413578
22.9493 32.4491 -0.341427
296.174 50.5161 -0.52604
226.739 4.51076 0.406279
584.211 89.4144 0.170206
534.817 84.7674 0.153241
254.617 14.0002 0.293288
504.071 59.9053 0.0882888
442.211 9.94053 0.242055
435.912 20.029 -0.502221
86.945 18.9842 -0.488959
266.797 0.974975 -0.243948
298.204 2.19338 -0.407581
13.0764 7.38779 0.483273
4.66712 34.4358 0.243816
147.895 19.4187 0.34131
60.0127 46.8517 -0.246255
59.2413 32.9186 0.296463
358.248 19.6601 -0.425526
316.336 45.3005 -0.467955
563.786 76.865 -0.109221
18.7402 4.24301 -0.283778
62.2957 7.96101 0.185971
468.524 72.0417 -0.137109
258.94 0.874667 0.481831
313.085 23.2359 -0.102763
213.681 4.63474 -0.406461
496.017 48.7146 0.193831
377.271 8.49747 0.54937
555.035 29.9874 0.44736
480.897 50.9826 0.325977
508.983 41.3246 0.103622
354.496 36.6611 0.480576
94.5512 48.8166 -0.31973
424.568 68.4731 -0.100494
555.099 12.392 -0.396653
218.013 37.7777 -0.238039
29.3024 19.7591 -0.161292
293.247 15.0241 0.517878
98.476 42.855 -0.467798
246.191 50.9899 -0.223136
362.608 4.61251 -0.268047
576.359 61.3458 -0.41015
519.839 3.37309 -0.670077
288.273 4.21386 0.51295
267.951 36.6816 -0.141468
381.058 65.1497 0.224971
72.9662 8.41959 0.633093
180.375 51.8048 -0.383167
568.768 54.255 -0.357485
412.137 76.3958 -0.0660838
182.505 47.3281 0.292831
146.578 48.0509 0.115126
595.519 56.3122 -0.399604
594.692 13.5939 -0.553067
485.004 4.93001 -0.550198
174.594 27.205 -0.0949462
432.927 49.7211 -0.110153
437.46 49.1279 0.263917
349.95 7.54409 -0.136335
397.998 0.836055 0.430157
558.021 82.5626 0.459163
78.3466 35.2456 0.226179
502.455 38.5292 0.447877
244.12 20.8441 -0.411802
8.78437 2.40097 -0.317482
117.233 39.0029 0.18428
61.1929 26.5808 -0.454534
531.246 61.3825 0.340044
589.752 91.5684 -0.164411
169.827 30.8962 -0.182091
592.331 19.9698 0.376682
39.0518 43.8223 -0.244038
83.7729 33.925 -0.165003
495.071 27.0752 -0.447771
350.32 22.8042 -0.622622
419.435 25.7377 0.169139
217.719 35.6563 -0.187345
486.467 12.936 -0.64176
596.399 11.5528 0.577196
25.4652 33.9271 -0.275689
240.886 8.51939 -0.219933
202.025 16.2551 0.2976
1.09167 38.7042 0.152578
204.166 14.911 0.428059
191.525 11.6246 0.194554
195.116 29.4462 0.308873
123.415 30.7339 -0.122163
439.429 30.8114 -0.353195
153.084 14.8802 0.350348
580.222 90.0337 0.221877
159.73 3.89656 -0.513987
40.8044 45.0827 -0.366339
544.671 75.4801 0.437781
252.473 38.2045 0.399099
510.065 50.7919 -0.502966
581.733 55.524 0.509973
265.405 11.0149 0.262414
546.206 45.0832 0.35585
286.46 2.6794 0.678852
350.579 32.2711 0.377046
514.735 34.4804 -0.563346
95.7188 11.9369 0.569236
399.993 3.69984 -0.508872
558.803 30.5296 -0.24964
78.9478 7.92693 -0.315454
249.95 17.3408 0.193137
359.019 14.8553 0.353151
588.953 2.73398 -0.622098
341.401 1.68989 -0.657294
160.857 41.8302 0.305845
558.132 10.5828 -0.521096
120.534 40.0176 -0.181177
238.086 38.6707 -0.384781
342.897 24.3247 0.239994
458.305 15.9276 -0.322521
331.747 10.4914 -0.515093
382.287 36.5924 -0.535786
568.557 93.0971 0.387908
43.2615 12.8818 0.1239
273.308 59.93 -0.356581
330.269 36.9933 -0.41699
346.332 24.6068 -0.261281
409.478 58.4382 0.472733
560.388 76.235 -0.198707
504.608 71.0432 -0.371449
204.529 38.0006 0.389258
13.0242 37.0394 -0.16694
502.775 73.9871 -0.117839
412.874 65.6496 -0.470528
211.349 42.4173 -0.100717
514.908 56.9602 -0.119448
138.364 9.9057 -0.323755
318.599 30.4514 0.318275
382.582 66.5247 0.115677
351.459 25.3111 0.21205
564.657 93.1116 -0.29081
362.377 7.59417 0.694399
44.1466 30.7646 -0.293965
387.039 48.3263 0.343179
365.005 49.31 0.373016
573.418 70.9581 0.229967
545.49 48.6098 0.27561
435.454 35.6005 -0.137628
567.962 80.9241 -0.422996
258.945 2.12182 -0.548013
330.955 39.466 -0.462388
21.4033 41.7264 0.298523
551.056 46.9919 -0.139998
475.577 33.3481 -0.506875
385.409 0.779414 0.574923
115.035 4.77069 -0.363348
360.135 55.8667 -0.0981507
11.1785 0.889685 0.369685
585.294 9.65467 0.16598
318.463 49.357 0.422391
489.592 8.43355 -0.316363
[...]
POINT_DATA 13483
TENSORS Strain_matrix float
0.0160113 -0.0543686 0.0871416 
-0.0690901 -0.0644736 -0.476611 
-0.00769236 0.00641671 0.0297694 

-0.00634116 -0.0131569 -0.0219936 
-0.00237001 -0.00770609 -1.33244 
-0.00413435 -0.0309966 -0.140811 

-0.00813877 -0.00614176 0.0139744 
0.00584104 0.00397698 0.0566723 
0.000869894 -0.000459371 0.0358167 

0.0369878 -0.0909763 0.189745 
-0.115625 0.0122842 0.0372057 
-0.00469631 0.0106752 0.0607221 

-0.027771 -0.0338726 0.402676 
-0.060245 0.00588363 0.304467 
-0.00797435 0.0285469 0.090324 

-0.857446 0.250247 1.07098 
0.221914 0.375291 1.89537 
-0.00921572 0.0232602 0.0955362 

-0.00811936 0.011001 0.284027 
-0.037732 -0.0116452 -0.0536935 
-0.0499772 0.0464593 -0.224648 

-0.016728 0.103645 0.137116 
-0.313544 -0.00474966 -0.00819143 
-0.00596414 0.00433937 0.0952442 

-0.049745 -0.0500432 -0.267885 
0.0856701 0.0283189 0.118336 
0.00252544 -0.00339029 0.0271175 

-0.0546285 -0.0618019 5.19823 
-0.014165 0.0273198 -4.96578 
-0.00232039 0.00327052 -0.429611 

-0.374377 0.212273 0.242947 
-0.380793 0.319247 0.294204 
0.0134631 -0.013082 0.17045 

-0.200558 -0.2622 -0.235865 
0.0628641 0.114148 0.296648 
0.0244622 0.0103112 0.08105 

-0.117507 0.0288402 0.031737 
0.0488237 0.007583 -0.791352 
0.0314805 -0.0377672 -0.0343548 

0.0153755 -0.0810174 -0.00709961 
0.0962755 -0.0204349 0.0435984 
-0.00507176 0.00296212 -0.0101528 

-0.00741543 0.0141279 0.312871 
0.0263671 0.0447915 -1.18484 
-0.000552389 0.000648597 -0.0037347 

0.0151265 0.287 1.18188 
-0.0631175 0.0671202 0.484926 
0.0145922 -0.00133119 -0.0280684 

-0.212522 0.0991863 0.243905 
-0.106266 0.13642 -0.00859658 
0.103994 0.0711404 0.158561 

-0.0324476 -0.039897 -0.0227246 
0.0528003 -0.00678428 -0.0158394 
0.00269922 0.0029876 0.0621264 

-0.135411 0.69614 0.89763 
-0.456328 0.583078 0.0224172 
-0.000676729 -0.00273524 0.0412501 

-0.295504 0.0573475 0.0127816 
-0.100947 0.236381 0.0397418 
-0.0341394 0.018998 0.246709 

0.0107715 0.0944154 -0.117823 
-0.161868 0.0200618 0.0177548 
-0.0242203 -0.0172148 0.381976 

-0.0344468 -0.0261366 -0.708116 
-0.0646484 0.0156198 -0.376098 
-0.0105233 -0.0582131 -0.300933 

0.0183457 -0.0118074 -0.0397263 
-0.00377234 -0.0115983 0.0114131 
0.00930945 -0.00246713 -0.0100054 

-0.109939 -0.0486671 1.28096 
0.00775945 0.0495544 -0.203145 
0.0052562 0.00214049 0.0331717 

-0.502326 -0.209238 0.103598 
-0.131708 0.285559 -0.863894 
0.0140419 -0.0153568 0.14975 

-0.073731 -0.296948 -0.160635 
0.11734 0.0731566 -0.00123774 
-0.0538914 0.0183222 0.497761 

-0.126095 -0.147699 0.653898 
0.174907 0.13664 -2.20326 
0.0191823 -0.000504678 0.0965932 

-0.0770776 -0.0589058 0.0888922 
0.0320024 0.020441 -0.0207267 
-0.00805486 -0.0152154 0.00890305 

-0.0143966 0.0258807 -1.32847 
-0.0980568 0.0201011 1.68114 
-0.00213202 -0.00310635 0.051042 

-0.0574947 -0.0132065 0.380099 
0.0127867 -0.00246125 0.697685 
0.00691735 -0.010388 0.161463 

-0.0411915 0.0238673 0.143111 
0.0252833 0.0293686 -0.265172 
-0.00898742 0.0279213 -0.0382303 

-0.0431019 -0.0573663 -0.0158901 
0.0241746 0.0249215 0.0859143 
0.00323501 0.000738367 0.0104287 

-0.0243232 0.035103 0.440527 
-0.152788 0.0143973 -0.0803051 
1.73044e-05 0.000837256 -0.017671 

-0.043831 0.00603977 0.796873 
-0.00692333 0.0366255 0.150431 
-0.00533801 0.00647821 0.0458769 

-0.0305432 0.0453991 0.0311315 
-0.0278712 0.0279616 -0.0447158 
0.00139748 0.00142104 0.0114836 

-0.155977 0.163008 -0.53641 
-0.113762 0.11945 0.48744 
-0.0292349 0.0116978 -0.149801 

-0.0473908 -0.0104883 -0.275726 
0.00683486 0.0937544 0.312563 
0.0172536 0.0372396 -0.206505 

0.0341517 -0.0702629 0.00972601 
0.0451785 -0.0614538 0.0481671 
0.0232167 0.00734862 0.0442373 

-0.00577714 -0.0585875 0.249388 
0.0419965 0.0175257 -0.22236 
-0.00241153 0.000846075 0.00606704 

-1.05793 0.574849 5.53465 
-0.409389 0.528494 1.06795 
0.00184359 0.00360308 -0.368716 

-0.134102 -0.174626 0.481768 
0.284412 0.0931584 0.579865 
-0.00343332 -0.00659312 0.175778 

-0.0492818 0.057637 0.43241 
-0.0883467 0.061568 0.0289221 
-0.0252771 -0.0192303 0.0341939 

-0.0930624 -0.0354937 -0.333567 
0.0613662 0.0593837 -0.123887 
-0.00258832 0.011832 0.166792 

-0.128347 -0.110502 1.27724 
0.153494 -0.000467915 -2.19877 
-0.00736147 -0.0169571 -0.113554 

-0.0328539 0.0487158 -0.0669202 
-0.050732 -0.00815343 0.095236 
-0.00749141 -0.0708497 0.299244 

-0.194258 0.238802 -0.193667 
-0.123533 0.180039 0.0903273 
0.0296967 0.0179639 0.403343 

-0.0277981 -0.00397093 1.12164 
0.0266736 0.0327266 -0.624811 
-0.000567787 -7.47627e-06 0.0260466 

0.0022611 -0.0129935 0.000616703 
0.0353086 -0.00714836 -0.0278264 
-0.00151945 0.0011316 0.0103526 

-0.00672895 0.146498 -0.310646 
-0.172984 0.0147869 0.130532 
0.0394744 0.0297033 0.768922 

-0.0204318 -0.0279061 0.0076107 
0.0503241 0.0059128 0.00135262 
0.00175163 -2.25945e-06 0.0333424 

-0.0866355 0.0509679 0.0910127 
-0.0362419 0.0627356 -0.327047 
0.00185194 0.000412251 -0.0278564 

-0.179279 -0.00752871 -0.58109 
-0.134857 0.111115 0.584796 
0.0121393 -0.00398005 0.0526052 

-0.0125785 -0.120407 -0.24214 
0.0649569 0.0276207 0.0570788 
0.00241642 -0.0138434 0.11063 

-0.0820379 -0.102687 -0.306697 
0.126223 0.110932 -0.163292 
-0.0247981 -0.012361 -0.184539 

-0.0394213 -0.00725123 21.9757 
-0.00464014 0.0411105 -0.149226 
-0.000162589 0.00226996 -0.462906 

-0.0340558 -0.110688 -0.170133 
-0.0909565 -0.00466967 0.434053 
-0.00411633 -0.00430265 0.103761 

-0.242826 -0.233224 -0.655856 
0.344451 0.187277 -0.197354 
-0.000975485 0.00853343 -0.0327987 

-0.021462 0.0221926 -0.132494 
0.00553699 0.0303903 -0.0433782 
0.0313152 -0.0690989 0.570602 

-0.0304574 0.0597684 0.0130936 
-0.0389129 0.0197759 0.00486382 
0.00640197 0.0020753 0.0117627 

-0.185163 -0.214387 -0.0365819 
0.252998 0.118296 -0.316374 
-0.00408067 0.0110387 0.075062 

-0.0893718 0.134891 0.286224 
-0.0380336 0.180869 0.255736 
0.000568422 0.00424021 -0.00229508 

0.0160813 -0.159437 -0.0706422 
0.110593 -0.0418875 -0.301182 
-0.000411205 -0.000201078 -0.00749577 

-0.00620468 -0.0116698 0.0202331 
-0.00232831 -0.0334741 0.0263071 
-0.00177734 0.00530182 0.0103552 

-0.0197364 0.017157 0.843624 
-0.0246591 -0.00271158 0.053896 
0.000575004 0.000239645 -0.016514 

-0.05224 0.127842 -0.0472587 
-0.16857 0.0491967 -0.31119 
0.0379783 -0.0195406 0.206543 

-0.365184 -0.0713191 0.0914816 
0.440467 0.317966 0.0115004 
-0.0192535 -0.0104419 -0.0257501 

-0.00910368 0.0151825 -0.0223752 
-0.0152514 -0.0313832 -0.0045003 
0.00347202 -0.00200661 0.0242664 

0.00530093 -0.0233261 -0.384202 
0.0778999 -0.0569091 0.640579 
-0.00150049 -0.00691675 0.122044 

-0.0849495 -0.0271902 0.648389 
-0.00592294 0.0613027 5.01149 
0.000931231 0.00379366 -0.350281 

-0.0626556 0.0990279 0.00202506 
-0.263332 0.283953 -0.0219908 
-0.0113045 0.00822464 0.0293143 

-0.0763385 0.0919994 0.141595 
-0.0419897 0.0798056 -0.39421 
-0.0229269 0.0204199 0.0967338 

-0.0068397 -0.0109112 0.00449627 
0.0099764 0.00480257 0.0171635 
-0.000388968 0.000327049 0.00734857 

-0.31168 -0.261894 -0.512483 
0.245152 0.28204 -0.246883 
-0.0195843 -0.0117736 0.137147 

0.0118412 -0.048887 -0.0691996 
0.0499903 -0.0211748 -0.0784232 
0.00024301 -0.00495165 0.0369884 

-0.10538 0.158159 -1.43864 
0.0877437 0.0722777 -0.7735 
-0.00109048 0.0069965 0.0485299 

0.00357103 -0.0241784 -7.91981e-05 
0.0208578 -0.00838495 0.0690427 
0.00587189 0.00145666 0.0468045 

-0.0529798 0.014978 -0.801887 
0.0635253 0.0077627 -0.397672 
-0.0224332 0.0195995 0.20118 

0.0668557 0.398448 0.512618 
0.173529 0.082329 0.163842 
-0.0150134 -0.00860017 0.0436233 

-0.015532 -0.0507901 0.0213614 
0.0618799 0.0156722 0.128852 
-0.000829612 -0.00142437 0.0310278 

-0.0163428 0.0499883 0.285843 
-0.0640484 0.00469082 -0.0198462 
0.0217626 0.012302 0.143604 

-0.0357343 -0.0921073 0.0661749 
0.0953143 0.00347031 -0.0200363 
-0.00145891 -0.000343523 0.0298329 

-0.00517764 -0.0600335 0.0338193 
0.120415 0.00474821 0.0795018 
-0.0449439 0.0281584 0.270272 

0.00679241 -0.0327159 -0.0966225 
0.0418466 -0.00477197 0.0542907 
0.00619362 0.00496112 0.106968 

-0.161086 -0.0889632 0.511337 
0.0678106 0.127507 0.0420898 
0.0496648 -0.00820775 0.0946319 

0.00966589 -0.100922 -0.0281759 
0.107402 -0.0163247 0.0157986 
-0.0468716 0.0419418 0.120702 

0.0154449 -0.00334316 0.00257086 
-0.0213237 -0.00104016 -0.0146073 
-0.00068498 0.000907167 -0.0137074 

-0.287769 -0.628903 1.37179 
-0.107126 0.354401 -0.877474 
0.00173006 0.000471328 -0.0480389 

0.0178892 0.239125 -0.450087 
0.296824 -0.10624 -0.998753 
0.0616895 -0.0334599 0.314828 

-0.0792012 -0.0193399 -0.0903141 
0.0720699 0.0694559 -0.144557 
-0.0357303 -0.0556037 0.195479 

-0.0123276 0.0266238 -1.29494 
0.0117296 -0.00622866 0.852266 
0.00276789 0.00190572 -0.157047 

-0.0551375 -0.273739 -0.25437 
0.352583 0.0638129 0.316893 
-0.0252049 0.0850449 0.109194 

-0.0163801 -0.0974477 -0.096766 
0.0663079 -0.00808072 -0.102382 
-0.0218477 -0.0448876 0.244663 

-0.0312746 -0.0308425 1.38285 
0.006773 0.0445564 -1.15774 
9.08143e-05 -0.00134032 -0.0268085 

-0.0485081 -0.0350453 -0.00956532 
0.135322 0.0629052 -0.166635 
-0.00473933 0.00135197 -0.0255199 

0.0136688 0.0061928 -0.171771 
0.00354114 0.0452695 -1.15726 
-0.000433645 0.00113406 -0.0173385 

-0.0150919 -0.0205328 0.00918332 
0.00392073 0.0305938 -0.0204219 
0.00205182 0.0124124 0.0088839 

-0.0198724 -0.101481 1.15611 
0.0236631 0.104232 -0.522434 
-0.0076817 -0.0221188 0.161728 

-0.0528866 -0.366846 0.740305 
0.149419 0.124963 -0.221247 
0.0655966 0.0108158 0.0631914 

-0.224114 0.0251614 -0.637428 
-0.0448021 0.214997 0.144332 
-0.00397462 -0.00218163 0.00440665 

0.0254793 -0.0471317 -0.0734338 
0.0149528 -0.067454 0.0785297 
-0.0176927 -0.0226392 0.144919 

-0.104049 -0.0393237 2.23365 
-0.0801603 0.0832674 -1.57589 
-0.00303907 -0.000151762 0.232943 

0.0334621 -0.0191982 0.0309666 
0.0199829 -0.026886 0.0102581 
-0.000181024 -0.0322719 0.056686 

-0.108751 -0.109364 0.19585 
-0.00210741 0.0620735 2.19696 
0.00292033 0.00247368 0.0477004 

0.0167883 -0.473046 -0.0913713 
0.148818 -0.111306 -1.26895 
-0.0310596 -0.00876082 0.0994888 

-0.0886633 -0.133519 0.0663014 
-0.14632 -0.0449743 -3.3306 
0.00883927 -0.0203158 0.183994 

-0.035865 0.14479 -0.0938808 
-0.165118 0.0704444 -0.101852 
0.0097151 0.00436917 0.00711977 

0.011313 0.00692143 0.0217862 
-0.0368113 0.0136896 -0.00293859 
0.00407144 -0.00345145 -0.014742 

0.0251648 -0.0627 0.67944 
0.0116219 -0.0426478 -0.750847 
0.0131794 0.00527671 0.144602 

0.00720166 0.0154565 0.00779856 
4.09844e-05 -0.0181861 6.45141e-07 
-0.000646319 -0.00118074 0.0241958 

-0.0358868 0.00328712 -0.450171 
-0.060877 0.0051252 -0.641918 
-0.00537128 0.0026149 0.0309477 

-0.042543 0.0870842 0.356631 
-0.197533 -0.365749 0.341132 
-0.000866508 -0.00055722 -0.018375 

0.00260991 0.0304825 -0.27727 
0.00657545 -0.0204159 0.0134937 
0.00276169 0.00326292 0.094512 

-0.0310722 0.0502429 -0.00148071 
-0.0130268 0.0258628 -0.0364308 
-0.000351202 0.001813 0.00604346 

-0.0411027 0.0380542 -0.934582 
-0.00683765 0.0504573 0.195823 
-0.000847869 -0.00717427 0.0459405 

-0.280362 -0.173827 -0.700059 
0.169811 0.27282 -1.60171 
0.00116408 -0.0006806 0.0132507 

-0.0915642 -0.225611 2.65654 
-0.028948 0.0992315 -0.265168 
0.00604282 -0.00149599 0.0766686 

-0.161234 0.130963 -0.468221 
-0.371354 0.240555 -0.167626 
0.0185829 0.0272582 0.152228 

-0.274991 -0.297738 1.10383 
0.188642 0.261967 -0.122117 
0.00912427 0.0446471 0.107474 

-0.203284 0.00698964 0.65166 
-0.0496876 0.146072 0.0661286 
-0.0077261 -0.0115857 -0.0807185 

0.0280919 -0.0790216 -0.0608396 
0.0536908 -0.00197237 -0.157055 
0.000163797 0.00103835 0.00376214 

0.0112707 -0.00554475 -0.0310971 
0.00684001 -0.0288895 -0.0453178 
0.000755568 0.00397619 0.00654543 

-0.00429194 0.000315219 -0.00259862 
-0.0031471 -0.00994884 -0.00119852 
-0.000859856 -0.00110719 0.0167089 

-0.0202689 -0.0791594 -0.018643 
0.193525 0.00160962 0.0442448 
-0.00715709 0.0133742 0.132302 

0.000836532 -0.101919 -0.0587671 
-0.0273525 -0.0200058 0.2056 
-0.00309049 -0.0587185 0.0809485 

-0.140566 0.122735 1.15672 
0.086394 0.0763042 5.49542 
0.0013761 -0.00220355 0.534456 

-0.00333065 0.00861066 0.103873 
-0.00295982 -0.0100917 0.0118982 
-0.000306101 0.000526811 -0.0213566 

-0.0198987 -0.0378236 0.991085 
0.121007 0.0510121 1.09245 
0.00157501 0.000325837 -0.0181266 

0.031474 0.033376 0.296705 
-0.131808 -0.0294533 -0.537412 
0.00545437 0.0050333 -0.0147697 

0.0295694 -0.0305201 -0.0776288 
0.0441741 -0.0099381 0.0655347 
0.0174873 0.0320296 0.241946 

0.0562241 0.326938 -0.382232 
-0.433521 0.0268125 0.244231 
0.0150894 0.0277924 -0.011257 

-0.114874 0.0586775 -0.503132 
-0.0505703 0.0706967 0.326738 
-0.0148704 0.0145779 0.0279873 

0.0121125 0.0456683 -0.023345 
-0.075879 -0.00187716 0.0582888 
0.0230467 0.0272494 0.071072 

-0.131411 -0.0625664 -0.0531392 
0.00645421 0.0940095 0.259179 
0.0123877 -0.0219649 0.216527 

0.00137059 -0.0506602 0.0117355 
0.0624445 0.0121975 0.0143341 
-0.00334336 0.000760572 -0.00803769 

-0.0147363 0.0573087 0.316623 
0.0337619 -0.00893844 -0.267064 
0.00509999 -0.0152881 -0.10241 

-0.0816746 0.112919 -0.039833 
-0.228494 0.111764 0.20405 
-0.00327467 0.0100942 -0.0342676 

-0.0374497 -0.123797 -0.245061 
0.0454659 0.0598713 -0.0878546 
-0.00545537 -0.0279513 0.111461 

-0.375164 -0.0149008 0.529374 
-0.08609 0.193259 1.96846 
-0.00491022 0.014738 0.0584594 

0.0459571 0.0729626 -0.135911 
0.00561975 0.0380105 -0.0245325 
-0.0306392 0.00193125 0.112937 

-0.286119 0.72236 -3.16657 
-0.0836073 0.0138357 -0.787164 
-0.0184634 -0.0454606 0.232475 

-0.0680067 -0.0463312 0.167231 
0.0361003 0.00797808 0.224622 
-0.0215814 0.0183681 -0.092213 

-0.09135 -0.00842479 -0.0981314 
0.196949 -0.0607669 -0.389869 
-0.0101408 0.063411 0.192326 

0.132329 0.264843 -0.5839 
-0.150115 -0.223438 -0.149856 
-0.00806134 -0.00390244 0.104374 

0.00934348 0.314375 0.228247 
-0.388367 0.218004 -0.964328 
-0.00326551 -0.0163652 0.317859 

0.0312969 -0.00549484 0.0445532 
0.0379052 -0.0366361 -0.115298 
0.000555136 -0.000534776 0.0231924 

0.0108019 -0.0606779 -0.0130926 
-0.0790705 -0.0311901 0.168472 
-0.00711916 -0.00811151 0.0587422 

-0.00294428 0.0869667 -0.245427 
0.0990366 -0.0960445 0.042572 
-0.0807032 0.024259 0.325873 

0.00103572 -0.00161881 -0.0162201 
-0.00323128 -0.00611705 -0.00126756 
-2.22235e-06 -0.00112551 0.0117226 

-0.0238558 -0.0149237 0.854482 
0.03221 0.00696353 -0.829674 
-0.00212969 -0.00264492 0.066396 

0.00294024 -0.00596064 -0.0189205 
0.0295995 0.00139179 -0.0831915 
-0.00232625 0.000651658 -0.000942869 

-0.384767 -0.477921 -5.85693 
0.141301 0.216937 2.41598 
0.00021723 -0.00121085 0.141065 

-0.338993 -0.0530054 0.940012 
0.00414361 0.109667 0.249011 
-0.0214409 -0.0192285 -0.00822696 

-0.107237 0.173381 -0.136745 
-0.160907 0.0701594 0.118875 
-0.00201215 0.00195904 0.0630185 

-0.00405264 -0.119267 -1.83843 
0.0245318 0.00455256 0.0304758 
0.0026763 -0.00305807 -0.199795 

-0.135324 -0.0376696 -0.621755 
0.0540201 0.100317 0.831975 
-0.00138478 -0.00227328 0.121961 

0.0056921 -0.0587786 -0.199061 
-0.0111496 0.0941954 -0.443319 
-0.00515612 0.00961266 0.0312494 

-0.0593126 -0.0291526 -1.22225 
-0.0215314 0.0651187 0.147325 
0.00157885 0.00441829 0.19412 

-0.0206894 0.0257349 0.541679 
-0.000861158 0.0519709 -0.195417 
0.00320926 -0.00149367 0.140343 

-0.00294121 -0.138642 0.0332379 
0.0899214 0.0225772 -0.656434 
-0.00447366 -0.00631817 0.125016 

-0.132131 0.062924 -0.0454582 
-0.0876019 0.168217 -0.22188 
0.024722 0.00950741 0.055521 

-0.0736869 -0.0748812 1.29373 
0.055055 -0.453131 62.1398 
-0.00100868 0.00689945 -0.671362 

-0.00521895 -0.00969393 -0.0234022 
0.000704066 0.019843 -0.0337162 
0.00315422 -0.0037663 0.00608351 

-0.12741 -0.131518 -0.140644 
0.0410341 0.120732 1.00005 
0.00217326 0.00554185 0.0959515 

-0.0213857 0.0456276 3.96229 
-0.0812362 0.0507063 -0.00857226 
0.000618774 -0.000529915 0.318157 

-0.2145 -0.0716378 -0.732343 
0.0236273 0.131915 -1.96851 
0.00158661 0.00586282 -0.0751945 

-0.0976157 -0.300043 0.253696 
0.284804 0.0562375 0.0314424 
0.0410339 -0.014735 0.165787 

0.0198827 0.0833979 -0.0118448 
0.0696396 -0.0577933 0.0161936 
0.00296813 0.0010784 -0.0225593 

0.0577732 -0.0896639 0.235178 
0.156855 -0.00597525 0.156931 
-0.0156789 0.0203803 0.0897992 

-0.241638 -0.0265309 -6.65169 
0.105258 0.153102 14.9608 
-0.00971462 -0.00407655 -0.979789 

-0.00385327 -0.0036557 0.0401753 
-0.0252942 0.00765392 -0.100469 
0.00125647 0.00073914 -0.0178002 

-0.0379399 -0.0998258 0.0523065 
0.0562445 0.0256291 -0.230562 
-0.0834754 0.0396464 0.205418 

0.0162992 0.545456 1.83298 
-0.168161 -0.159595 -1.03199 
-0.00179777 -0.00390541 0.0112487 

-0.0306545 -0.0480427 -0.327583 
0.0372672 0.0283685 0.10417 
0.00282058 -0.000283106 0.00679747 

-0.0790819 -0.0811962 -0.208185 
-0.0148015 0.0315287 0.66611 
-0.0227761 -0.00554233 0.212566 

-0.104791 -0.0714566 -0.131835 
0.035167 0.157717 0.00340464 
-0.0604212 0.00385609 0.479983 

0.0140204 0.00294196 0.342021 
0.0170941 -0.0465009 -0.369104 
0.0139312 -0.00416306 0.0768483 

0.00855769 -0.0375283 0.0137386 
0.0451671 -0.00284842 0.0147692 
-0.000299882 -0.000930739 -0.0135128 

-0.218701 0.138971 0.11025 
0.084472 0.181632 -0.0771547 
-0.00431879 -0.00806315 0.0369607 

0.0173103 -0.138666 0.654531 
-0.0123977 -0.0432455 -0.288129 
-0.0155374 -0.00581942 -0.0279537 

-0.0758066 -0.12749 -0.0194514 
-0.131908 0.0565267 0.801737 
-0.0280004 -0.0276193 0.2362 

-0.0292955 0.0292413 -0.279814 
0.00381236 -0.0382932 -0.136561 
-0.00270779 -0.00213633 0.0521353 

-0.0212853 -0.00921452 -0.00724422 
0.0119299 0.00219002 0.00399233 
0.0016955 -0.0033987 0.00440409 

0.00110896 -0.0441009 -0.268829 
-0.0344728 -0.0449701 -0.219042 
-0.00528058 -0.00261133 0.0359831 

-0.0897854 0.112369 -0.158307 
-0.173882 0.0226095 -1.03081 
0.00412465 -0.0363526 -0.00989081 

-0.10826 -0.408461 -0.439313 
0.371101 0.253398 -0.18893 
0.00627021 -0.00223461 0.0537457 

-0.0364107 0.0136192 0.09154 
-0.0502196 0.0322855 -0.247856 
-0.00785123 -0.00056712 0.0177046 

-0.015718 0.204071 0.295816 
-0.24972 0.178307 0.443413 
-0.0126901 -0.00699008 0.0224194 

-0.0162722 0.0402045 0.0911777 
-0.0217722 -0.0100944 0.0394852 
-0.00283973 -0.0109747 -0.0137755 

-0.000523427 0.00465184 -0.834683 
0.12236 0.0291317 0.0981888 
0.00217309 1.97717e-05 0.0906407 

0.0255767 -0.0844803 -0.00132981 
0.0502654 -0.00632144 0.00847195 
-0.00342707 -0.00711281 0.00419162 

-0.128978 0.0562638 0.512336 
0.345206 0.0846828 -1.77744 
-0.000893202 0.00107738 0.00583042 

-0.0571916 0.161404 0.58441 
-0.196983 0.0348773 -0.413241 
0.0050566 -0.0033193 0.111847 

-0.00444499 0.00289617 -0.0136861 
-0.0164634 -0.0203111 0.00716926 
0.00173213 -0.00641478 -0.0010723 

-0.0860851 0.0818892 0.378492 
-0.0592714 0.0516699 -0.613394 
0.00288086 -0.00274846 -0.0664304 

-0.170583 -0.260355 -0.346756 
0.120252 0.123765 1.36627 
0.0388252 -0.00483751 0.117356 

0.0338551 -0.00370521 -0.0086532 
0.00201467 -0.0270071 0.0125635 
-0.00478654 -0.00386138 -0.0505259 

-0.0284293 0.0927998 1.9158 
-0.0770796 0.0224271 0.726186 
0.00164128 0.00487922 -0.00188721 

0.00587779 -0.0635464 -0.137602 
-0.0054285 -0.00498221 0.0749426 
0.0186312 0.00955323 0.189017 

-0.100332 0.0687867 -0.188298 
-0.119003 0.134671 -0.298233 
0.00665736 0.0411271 0.133814 

-0.0284147 -0.0787138 0.153355 
0.0532243 -0.0082476 -0.0688654 
0.0022124 0.00123722 0.0215898 

-0.0780174 0.0955146 -0.053573 
0.0935068 0.048607 -0.197965 
-0.00185108 0.00885672 -0.127625 

0.0177584 -0.0968555 -0.0747518 
0.183085 0.0134251 -0.082486 
-0.0101879 0.0191337 0.0760638 

0.00820537 -0.0938576 -0.00721871 
0.0724377 0.0102407 -0.00746956 
-0.00426304 0.00114873 -0.018283 

-0.0298835 0.00461294 -0.0427724 
0.00569101 0.0675968 -0.0482487 
-0.00399734 0.00962535 -0.0478937 

-0.0056599 -0.0278208 -0.00952596 
0.0234192 -0.0101408 0.0031456 
0.00114132 0.00065896 0.0260911 

-0.0833848 -0.238679 -0.0194622 