# vtk DataFile Version 3.0
Output file generated by Yade's KinematicLocalisationAnalyser
ASCII
DATASET UNSTRUCTURED_GRID

POINTS 13483 float
663.806 27.9006 -0.440583
869.903 44.7242 -0.456781
130.133 6.1175 -0.446057
915.166 5.12777 -0.21712
540.688 7.49712 -0.309985
340.14 34.2298 -0.460806
169.513 6.76691 0.414645
619.706 10.0097 0.137998
537.672 22.0828 0.147973
803.27 12.0009 -0.409618
227.567 8.73725 -0.100445
277.546 6.29492 -0.27844
718.151 28.6445 -0.162103
694.024 13.8913 0.0991545
148.626 16.7587 -0.435877
239.225 34.1188 -0.392256
235.274 12.8445 0.267527
311.889 9.39055 0.379679
367.256 32.4614 0.455266
568.836 8.50635 0.34792
444.589 35.7892 -0.0981073
644.813 42.693 0.00160183
910.758 32.7459 -0.459087
774.438 40.9372 0.435777
496.576 15.8951 0.291736
260.019 43.5758 0.123362
532.566 26.6427 -0.489254
638.544 19.0833 0.218325
48.7523 15.2324 -0.455862
799.215 29.8091 -0.316417
522.124 4.83658 0.320901
17.858 22.5508 -0.29912
883.854 42.6796 0.249875
536.148 2.47992 0.476326
84.7962 43.2068 0.100519
566.044 29.8511 0.325067
575.66 16.4496 -0.409183
371.782 22.1254 -0.173532
579.238 25.171 -0.326971
379.263 32.5523 -0.394306
260.538 14.4585 0.30189
470.164 35.173 -0.0618241
748.129 6.8092 0.127883
208.734 6.14014 -0.379542
59.976 6.83274 -0.124553
74.0491 8.75719 -0.287661
766.458 8.44158 0.456672
25.3536 11.5829 -0.308133
667.75 43.9495 0.367886
750.607 22.4591 0.324663
186.687 31.915 -0.290856
862.992 34.062 -0.118716
38.1487 27.4148 0.113212
579.794 2.92948 0.324388
154.153 7.40252 -0.462319
647.478 32.8567 0.370084
547.223 25.7506 -0.12089
189.264 0.932588 0.258049
35.3778 2.3957 -0.303904
377.072 17.4071 0.252898
680.193 45.1283 0.133727
500.739 33.3927 -0.175431
432.179 1.03149 0.187332
779.141 7.54989 0.357753
28.5835 41.8674 -0.235787
277.376 29.832 0.289674
803.466 7.55325 0.206829
740.682 43.5395 -0.348355
452.054 8.46372 -0.478655
620.466 3.48598 -0.343766
838.68 28.5264 0.427044
141.902 7.56016 0.268842
540.716 24.823 -0.127956
517.546 14.6886 -0.12145
318.674 16.4637 -0.343407
22.3408 13.3602 0.248978
890.885 32.4172 -0.319309
359.919 38.5439 -0.275893
747.567 19.8763 0.298992
766.316 12.4557 0.266064
899.338 11.0354 -0.215944
504.18 33.9571 0.166724
100.061 37.1473 -0.266443
760.41 33.8152 -0.216194
714.415 37.342 0.0979031
919.778 39.3149 -0.105902
892.024 0.800987 0.503439
315.29 28.3696 0.43956
682.121 6.29203 -0.0957988
26.3392 5.17422 0.451347
144.008 37.1785 -0.148497
557.167 14.108 0.196576
880.197 24.2662 0.449804
212.114 28.1657 0.230319
48.3199 33.9902 0.265496
535 1.16133 0.111226
255.505 8.72621 -0.354239
841.989 38.9204 -0.238021
866.63 25.6778 0.231362
391.725 20.2567 -0.258775
178.275 26.3326 0.432211
599.372 37.571 -0.407434
412.327 14.8049 -0.500208
449.158 28.9714 -0.0996091
410.595 4.38744 0.410951
597.134 10.7657 -0.0914499
919.382 11.4794 -0.167079
87.118 38.2631 -0.388477
363.982 4.7349 -0.176287
612.741 9.40645 -0.325541
390.887 42.8363 0.440661
28.3267 23.7257 0.477541
33.0975 5.75674 0.316517
621.178 31.7692 0.397646
550.207 23.2765 0.13915
28.606 35.9828 0.407873
101.382 29.8402 0.210846
353.069 15.5977 -0.295914
658.859 18.544 0.11146
517.413 37.2517 0.303892
823.448 7.70473 -0.386968
813.823 6.06455 0.185915
420.88 36.628 -0.0944746
700.884 24.6631 -0.0909339
259.574 16.5589 0.492109
358.852 3.65405 0.465047
112.237 30.6836 0.311967
126.434 23.3736 0.256304
594.181 38.0572 0.0653678
332.865 18.6355 0.468305
793.621 33.4787 0.0985283
745.474 42.809 0.107372
523.888 20.1301 -0.384298
870.802 9.26362 0.321476
467.065 22.7977 0.217262
301.767 23.735 -0.30025
748.189 31.4908 0.282515
303.5 28.3819 0.385385
632.246 11.3624 -0.181891
361.528 35.4564 0.185501
551.049 11.3373 0.446933
399.692 30.5262 0.0818369
469.523 16.3277 -0.112891
346.493 41.0396 0.293963
208.028 29.1709 0.119015
874.085 42.5034 -0.150159
915.652 12.7724 -0.321113
6.47133 12.0591 -0.443734
473.814 21.9808 -0.412773
41.8769 21.8021 -0.0865843
410.294 30.6744 -0.466338
431.237 24.2268 -0.251958
81.4227 11.6636 -0.469441
56.6907 32.5964 -0.427189
246.5 13.2334 0.418523
681.424 38.7301 -0.402637
635.141 20.022 -0.466138
81.5364 20.6827 0.476925
777.473 44.4255 -0.405175
856.239 2.39908 -0.431198
733.073 40.6867 -0.593415
774.103 2.35408 -0.368511
603.765 26.0455 -0.387144
646.409 43.4359 0.435927
561.287 17.5561 -0.415389
912.746 2.80308 0.387473
244.127 24.4075 -0.121629
139.701 34.0582 -0.193985
269.989 6.50483 -0.372203
103.361 4.01198 0.252698
70.1639 9.82207 0.201514
301.378 35.2577 -0.301139
18.3728 24.1989 0.361065
610.095 18.8571 0.385966
667.458 38.9934 0.223592
506.405 20.8326 -0.360355
901.545 38.6871 0.373627
444.833 8.47973 -0.0921823
477.181 35.4528 0.3694
588.865 3.41347 -0.188557
25.0455 23.1512 -0.37387
635.069 4.26346 -0.369792
599.396 4.33472 -0.283838
225.651 11.2072 0.475003
465.001 15.9904 0.183937
340.479 6.28152 0.312709
424.536 18.7013 -0.323283
828.881 41.355 -0.108652
210.641 25.0703 0.406741
883.571 6.76838 0.321659
827.994 37.5732 -0.31577
419.653 10.0302 -0.184043
800.358 2.55794 0.343754
668.125 24.8189 -0.409318
831.937 17.8485 -0.394174
472.162 41.9577 -0.278567
544.862 12.0878 0.348142
510.122 43.4672 0.220839
488.209 8.61838 0.128598
736.131 38.7351 0.254805
733.085 33.6571 0.299703
210.179 38.1951 -0.338783
897.192 10.9024 -0.123358
648.192 43.8246 0.242718
12.4115 16.6142 0.166945
446.387 24.8557 0.333167
205.37 22.5736 -0.396539
101.806 38.0777 -0.198122
877.512 21.9446 0.407368
729.751 44.1809 0.239285
349.565 25.0376 0.355877
585.438 10.0214 0.320085
90.2551 43.288 0.161401
271.106 25.4532 -0.472526
613.145 23.2632 0.370116
534.007 18.0134 0.411812
287.693 0.889115 -0.341929
608.974 39.2614 -0.357655
587.328 40.3555 -0.44113
529.275 32.2106 0.386959
548.065 0.765935 -0.483457
785.903 18.0568 0.377579
196.982 11.805 0.154384
550.3 34.6218 -0.422342
622.386 38.7093 0.117775
79.5495 0.95069 0.272336
275.654 4.61674 0.157974
915.186 14.7611 0.142865
899.761 12.912 -0.407276
922.275 16.6406 -0.493274
332.482 8.47146 -0.224304
839.594 22.1657 -0.388747
446.668 40.6137 0.310285
492.544 0.814666 -0.398067
722.785 35.065 -0.408592
29.945 29.2736 -0.299093
361.986 40.3374 -0.455216
276.597 2.794 0.305826
887.453 40.3144 0.171849
797.806 46.0016 -0.223175
314.828 10.6929 0.167476
741.635 28.7246 -0.0965649
614.351 2.67213 0.259447
597.061 6.37248 0.413636
106.111 17.5694 -0.464498
332.309 1.03873 -0.221377
376.624 2.25477 -0.367313
15.2614 7.4702 0.35946
4.76131 30.447 -0.241306
178.091 18.5144 0.358163
74.9405 40.9089 0.20855
73.2481 28.1781 0.317499
464.986 14.2471 -0.45014
402.765 34.2104 -0.463753
860.963 35.0859 -0.109145
21.4173 3.93799 -0.284895
77.2373 6.78875 0.139562
692.803 37.1453 -0.153913
323.335 0.925651 0.322837
400.402 16.0186 -0.0912605
258.516 4.58651 -0.386041
725.805 20.8725 -0.19504
495.91 8.31232 0.393642
842.318 19.8205 0.370904
700.096 28.1786 -0.304804
746.556 18.0903 -0.100137
461.434 25.9023 0.487919
111.961 43.6497 -0.308537
598.072 41.4573 -0.0776601
829.014 13.1914 -0.217859
260.839 29.6342 -0.244316
34.6436 16.367 -0.180639
369.055 13.5698 0.480739
118.318 39.3189 -0.465757
293.609 41.4016 -0.183582
467.175 1.06575 0.175301
887.983 28.6808 -0.426359
766.444 0.788368 -0.477608
364.606 3.04165 0.46331
329.275 26.0159 0.140682
509.027 40.3345 0.206886
89.3207 7.86355 -0.44338
217.401 43.99 -0.377719
869.589 27.6018 -0.354283
544.917 37.8557 0.073097
219.71 40.4477 0.252803
176.661 41.4969 0.0257217
922.619 34.9087 -0.400571
917.679 12.181 -0.613704
671.106 3.61114 -0.50799
209.13 24.0136 -0.0933078
605.943 27.2314 0.106855
608.024 26.9068 0.252553
449.583 5.52921 -0.139174
529.678 0.938813 -0.277226
859.03 37.7181 0.459941
93.7469 29.8691 0.219652
731.929 17.9911 0.433779
301.306 15.3102 -0.328305
10.8298 2.33334 -0.333758
138.155 35.8584 -0.192876
73.5612 22.6429 -0.452707
785.865 35.6514 0.313689
892.067 47.6174 -0.0629826
204.218 27.5943 -0.173677
910.674 11.9904 0.446591
49.6516 35.9595 -0.248472
100.107 27.9546 0.149533
704.556 12.9328 0.357687
454.219 17.7855 -0.514147
572.241 16.3971 0.115087
261.452 27.6901 -0.183349
689.818 4.53463 -0.400779
922.416 10.7503 0.326116
32.9433 30.6179 -0.268228
296.609 7.69366 0.190017
244.004 14.8897 0.251635
1.11032 34.9882 0.145054
247.47 14.3141 -0.360215
232.651 10.8685 -0.145706
235.691 25.8847 0.28431
146.432 27.3924 -0.128225
604.166 14.8228 -0.314547
184.01 13.9347 0.337986
881.346 40.4801 -0.216386
191.529 3.77889 -0.471078
52.2938 36.9313 -0.357241
835.3 48.115 -0.426486
308.85 31.0977 0.383008
756.315 23.4201 -0.424324
897.223 27.3889 0.495725
330.473 9.07352 -0.113038
825.405 29.2345 0.332257
361.284 2.62837 -0.353593
457.512 23.3554 0.363964
752.919 15.2117 -0.431009
116.233 11.5713 0.424634
531.423 4.00005 -0.451191
846.294 17.4848 -0.18553
97.2247 7.56254 0.17883
309.385 14.4753 0.188215
465.753 11.5057 -0.204958
911.025 2.55216 0.442729
437.48 1.87476 -0.468821
194.603 38.026 0.277778
832.025 10.2345 -0.331359
141.514 35.2284 -0.184427
289.087 30.9426 -0.390626
440.389 21.3624 0.214015
634.91 13.0567 -0.327602
425.906 9.73779 -0.436825
502.465 26.9792 -0.42674
870.617 45.7803 0.412862
52.3269 10.7069 -0.0970384
328.892 37.6998 -0.259699
417.495 25.8958 -0.380529
450.457 20.5688 0.245588
575.125 44.269 0.356485
851.295 35.8468 -0.197854
740.054 34.2358 -0.351218
247.986 33.5139 0.387584
15.5037 30.4595 -0.154054
733.215 35.6689 -0.122129
561.318 41.4401 -0.47205
252.234 38.2023 -0.100319
763.83 30.3207 -0.10619
166.686 9.12207 0.189454
403.511 21.0913 0.264682
510.844 41.3998 0.100036
455.299 19.0675 0.207227
866.853 47.112 0.292588
468.644 3.32844 0.414397
55.0667 24.7284 -0.292455
517.845 30.7824 0.333099
478.794 40.4239 0.352878
885.337 33.5191 0.228269
822.252 28.4427 -0.238325
597.46 18.0408 -0.142335
875.382 35.3657 0.416049
322.399 2.01037 -0.444818
416.7 28.2859 -0.454905
31.9983 37.6759 0.252289
828.782 29.8674 0.13569
676.688 19.334 -0.463199
509.845 0.780593 -0.479204
139.214 4.46278 0.280981
470.139 39.2762 -0.101962
13.4279 0.915351 0.327087
910.264 5.31521 0.195755
[...]
POINT_DATA 13483
TENSORS Strain_matrix float
-0.0440511 -0.033777 1.26716 
0.0492198 0.0275973 0.913465 
-0.00203993 0.00299937 0.0177195 

-0.155831 -0.0697808 0.422087 
0.0200401 0.134249 -4.9666 
-0.00512851 0.00915693 -0.0148834 

-0.0354908 -0.00571556 0.1744 
-0.00413625 0.0220732 0.316887 
0.00111607 0.00160902 0.086436 

-0.418845 -0.0209588 0.0966769 
0.0593344 0.194128 -0.171999 
0.0115405 -0.00422884 0.189675 

-0.0576111 -0.022116 0.0634687 
-0.0388633 0.0203802 0.0247791 
0.0492549 -0.0397731 0.254703 

-0.0159565 -0.0226101 0.0468318 
0.00433018 0.0132439 -0.139433 
0.00126889 -0.00177158 -0.014513 

-0.036169 0.0111789 0.140461 
-0.00690335 0.0041661 0.00286925 
0.00308621 0.000269288 0.12947 

-0.0229545 0.0144652 -0.00691466 
0.00644141 0.0102089 0.0278601 
0.000810996 -0.00115544 0.0251483 

-0.0221333 -0.0442798 -0.0389725 
0.028435 0.0164391 0.00625346 
-0.00128237 -0.000110479 -0.0135023 

-0.0400237 -0.0132919 -0.0878304 
-0.0262379 0.0102399 -0.0385127 
-0.000138375 -0.00162229 0.0125223 

-0.0225012 0.00993667 -0.0680536 
0.00135897 0.00661028 0.0631055 
0.00254523 0.00116375 0.0844141 

-0.025076 0.00188348 -0.0358449 
-0.000145032 0.00753833 -0.00309643 
0.00104719 0.000268956 0.00356288 

-0.0307621 0.0909728 0.342018 
0.00127113 -0.10203 0.613506 
0.0041193 -0.018975 0.0643889 

-0.0190104 -0.0156778 0.00245229 
0.0085685 0.0109783 -0.0192885 
0.000368412 0.00225212 0.0177525 

-0.0206005 0.00291179 -0.0196626 
-0.00188487 0.00704762 -0.0114239 
0.000225294 -0.000116137 -0.0267404 

-0.0267503 0.00363975 0.370812 
-0.00332968 0.0201185 -0.193284 
-0.0258875 -0.0199163 0.298273 

-0.0308672 0.0141689 -0.00181009 
-0.0321597 0.00237322 0.0403308 
-0.000182807 -0.000434886 0.0170812 

-0.03894 -0.0102904 0.0454828 
0.0146354 0.0186708 -0.186857 
-0.0025072 0.00204157 0.0754299 

-0.093283 0.0259583 -0.171939 
0.0918538 0.0228631 -0.223497 
0.00277484 0.000596844 0.0469824 

-0.0283092 0.00898457 0.0258947 
0.00432879 -0.0033954 0.0298249 
-0.00496167 -0.00864938 0.00604167 

-0.0539582 0.0134481 -0.296422 
-0.00622802 -0.00293064 -0.0398111 
-0.00696011 0.00319161 -0.0203785 

-0.0883521 -0.0381149 0.0611086 
0.025472 0.0879594 -0.0967079 
0.0445127 -0.0259773 0.680142 

-0.0575804 0.0765539 -0.548487 
-0.0530202 0.0774618 1.177 
-0.012117 0.00505016 -0.419696 

-0.0394635 0.0582939 0.341829 
-0.0715133 0.0199358 0.284879 
-0.00127991 0.00154945 0.0426913 

-0.017091 -0.0270281 -0.00441768 
0.00227073 0.0244151 -0.0153616 
0.00703564 0.00371299 0.0679161 

-0.0115817 -0.00398679 -0.100324 
0.0224764 0.00738644 -0.0201323 
-0.0301401 -0.0542058 0.296904 

-0.0207106 -0.0113924 -1.01122 
0.0149119 0.0153681 -1.18138 
-0.000267632 -0.000462823 0.186859 

-0.101831 -0.0270532 0.0238405 
0.00783762 0.0889417 -0.413194 
-0.00673457 -0.00210902 0.0489413 

-0.0140236 -0.0165582 0.585151 
-0.00538709 0.0201323 -0.220954 
-0.00247102 0.000613264 0.00712321 

-0.0600271 -0.0316498 -0.199703 
-0.0106648 0.040707 -0.182254 
0.00653586 -0.0123015 -0.0782925 

-0.022788 0.00500923 -0.0262266 
-0.0119443 0.00306267 -0.0517779 
-0.00115738 0.000912583 0.0347042 

-0.0484215 -0.0491336 -0.427869 
-0.0320499 0.020667 -0.0798452 
0.00150121 0.000186118 -0.00472109 

0.00642412 -0.175469 -0.772651 
0.200058 0.0986267 -0.352837 
-0.0693142 -0.00365655 0.617824 

-0.0600941 0.0276355 -0.347772 
-4.50793e-05 0.0423185 -0.42992 
2.09608e-05 -0.004772 0.123554 

0.0154491 0.0156711 0.0624859 
-0.0193447 0.0286993 -0.110841 
0.00678109 0.00801962 -0.0320701 

-0.00569132 0.022369 -0.165481 
-0.049644 0.0510653 -0.337915 
0.000296703 -0.001525 -0.000238328 

-0.0252779 0.000741119 -0.586455 
0.0108822 0.013146 0.00406368 
0.000899042 0.000471007 0.0149574 

-0.0470327 0.0193872 0.150434 
-0.00735189 0.0650715 0.0904165 
-0.000819692 0.00506465 -0.00682789 

-0.0506891 0.00355854 0.0730786 
0.0307651 0.0164331 0.0237961 
-0.00171198 8.43137e-05 0.00391342 

-0.0450784 0.0183998 0.107565 
-0.0453853 0.0368143 -0.068799 
0.00637248 -0.00819018 0.0716965 

-0.0616316 0.0393745 0.239056 
-0.00800218 0.0249378 0.0462678 
-0.000145122 1.90082e-05 -0.0195941 

-0.0470064 -0.0198583 -0.00714379 
0.0500397 0.0553509 -0.021658 
0.0121922 -0.00324542 0.156675 

-0.128695 0.0273985 -0.00780234 
-0.0703652 0.038254 0.0286693 
0.0176502 -0.0939103 0.550139 

-0.0149855 0.0032931 0.117876 
-0.00104348 0.0114544 0.00659315 
-0.00366643 0.00102339 -0.0561383 

-0.0375612 0.0223902 -0.026808 
-0.0257205 0.00803503 0.0155451 
-0.000927629 0.000255472 0.0135007 

-0.0404051 0.0221133 0.0346472 
-0.0343259 0.00900621 -0.0278985 
-0.000282782 -0.00131613 0.0368668 

-0.0656228 0.0176647 0.308576 
-0.0299703 0.0323744 0.191478 
-0.00269527 -0.0248856 0.294786 

-0.0275827 -0.0232262 -0.0259983 
0.0248183 0.0190869 0.000943766 
0.0168098 0.00952692 0.0328409 

-0.0304712 -0.0476117 -0.107889 
0.050279 0.0173851 -0.0216319 
0.0216063 0.0476705 0.107363 

-0.0979629 -0.0584196 0.0948554 
-0.109364 0.103446 -0.278913 
0.00469163 0.00119562 0.041925 

-0.0590601 -0.163704 0.485849 
0.0213282 0.0311864 -0.152958 
0.000111886 0.000568312 0.00642319 

-0.0299249 0.126842 0.0233026 
-0.0505195 0.0107487 0.143257 
-0.000197788 0.000770807 0.0111443 

-0.0215192 0.0253325 0.0867677 
-0.0048431 0.00606063 -0.0540042 
-0.000502595 -6.00718e-06 0.00343837 

-0.0392545 0.0041342 0.0546432 
-0.0114687 0.00591337 0.0722172 
0.000238824 0.000459355 0.0401419 

-0.0316563 0.0127369 -0.0563727 
-0.000176295 0.0155687 0.0196705 
0.00709295 0.0134335 -0.090528 

-0.00891187 -0.0221549 -1.32497 
0.0499184 0.0291067 0.221078 
0.000955551 9.92002e-05 0.0679672 

-0.0107019 -0.0377539 -0.00681995 
0.0432351 0.0184993 -0.00242004 
-0.000223087 -0.000910623 0.00461955 

-0.0404339 0.102895 -0.126106 
0.00480995 0.03792 -0.00305094 
-6.87123e-05 -0.0171076 -0.0229662 

-0.0159493 -0.00506084 -0.0477686 
-0.00526579 0.006303 -0.00220657 
0.000323056 0.00118692 0.0141152 

-0.0385975 -0.0517387 -0.46097 
-0.00560529 0.0586927 0.184577 
-0.000269103 -0.00281084 -0.0223546 

-0.0249285 0.0965653 0.330876 
-0.0325266 -0.0523229 -0.0370966 
0.00901094 0.0539509 0.631295 

-0.0275619 -0.0290953 0.0795076 
0.00764493 0.0489764 -0.222142 
-0.0146332 0.000753093 0.108989 

-0.0302593 -0.0267637 -0.103749 
-0.00105282 -0.00909066 -0.034267 
0.00058244 0.0333296 0.0693737 

-0.0345413 0.00441785 -0.256911 
0.00379141 -0.00243325 0.122623 
-0.0011672 -0.0034808 0.0774933 

-0.00756171 -0.0020378 0.117058 
-0.00232445 -0.00348228 0.00599231 
-0.0121627 0.0167228 -0.0481089 

-0.0662147 0.0799445 0.0856267 
-0.0711029 0.0577536 0.103138 
0.0330963 0.0255883 0.0848281 

-0.0463199 0.043055 -0.071077 
-0.0358691 0.00200561 -0.043546 
-0.0482122 0.025127 0.321452 

-0.0367939 0.0315648 -0.0110684 
0.000669156 0.0237813 -0.0568069 
0.108261 -0.0439736 0.555752 

-0.0385734 -0.00602853 -0.0509282 
-0.0118576 0.0105425 0.100172 
-7.87291e-05 -9.38766e-05 0.0740787 

-0.04639 0.00883831 0.00379444 
-0.013406 0.0146597 0.012779 
-0.000831844 -0.00150717 0.052618 

-0.0754149 -0.0707487 0.0203472 
0.0835507 0.15535 0.515347 
0.00620196 0.00922268 -0.0215642 

-0.0256657 -0.00702572 -0.000387592 
0.00132162 0.014592 0.00174782 
0.00608507 -0.000934561 0.053079 

-0.0150181 -0.0195112 -0.0814877 
0.0142155 0.0123271 -0.0355215 
0.00099421 0.00120589 -0.0059276 

-0.0321572 0.0119696 -0.023356 
-0.0190615 0.00981156 0.0355256 
0.00158389 -0.00222072 0.0136686 

-0.0226554 0.0256063 -0.179643 
-0.00484913 0.01436 -0.184079 
-0.0003204 0.000775584 0.0114262 

-0.0648842 0.0146066 -0.0357562 
0.018012 0.0303401 0.0221592 
-0.00410304 -0.00116015 -0.00485039 

-0.073342 -0.064984 0.0194301 
0.0547538 0.0680872 0.992219 
0.0404933 0.0668498 -0.110618 

-0.0100397 -0.0286663 -0.123535 
0.0311307 0.00116991 0.0438817 
0.000546941 -0.00389219 0.0385078 

-0.00725124 0.00206279 -0.0318628 
-0.131745 -0.000630596 -0.232742 
-0.0012638 -0.0138118 0.0713475 

-0.0248282 0.0358025 -0.240234 
-0.0410562 0.0171215 -0.126777 
-0.0190878 -0.0233938 -0.0642103 

-0.0663976 0.0360692 -0.0330227 
-0.0335095 -0.000690339 0.0263982 
0.00349177 -0.00317156 0.0852746 

-0.0409734 -0.0323647 -0.0158865 
0.00899848 0.0271259 -0.0368738 
0.00510398 -0.00868205 0.0369967 

-0.0123364 -0.00266569 -0.279027 
0.0163199 0.0011708 0.0477444 
-0.000825681 -0.00110993 -0.000299435 

-0.0319437 -0.0279007 -0.128237 
0.033589 0.0353885 -0.161258 
0.000209278 -0.00119721 0.0046547 

-0.0933791 -0.0965963 -0.605676 
0.082882 0.0635072 0.432789 
-0.000965278 0.000728098 -0.0042568 

-0.355377 0.120375 -0.429234 
-0.0960816 0.238678 -0.332627 
0.00648451 -0.0166197 0.0331482 

-0.0874361 1.34228 -1.70396 
0.0177309 0.185597 0.421008 
-0.00039332 0.000664888 0.16754 

-0.0625725 -0.0126288 -0.175312 
-0.0186909 0.0119806 0.308044 
0.00220276 0.00202932 0.000694233 

-0.0209104 -0.00776981 -0.00539044 
-0.00847542 0.00829771 -0.0174766 
-0.000543851 0.00216939 0.0111911 

-0.0385107 0.0127798 0.0448889 
0.00834919 0.00919755 0.129315 
-0.000994445 0.000350759 -0.0258955 

-0.000428234 -0.0223373 -0.0862501 
0.0150367 0.0135428 0.0189794 
-0.00683079 -0.0410717 0.176714 

-0.0190493 0.0122214 0.0177956 
-0.00425028 0.00383542 -0.00946744 
-0.000900449 0.000498145 0.0273394 

-0.0142836 0.156139 0.64704 
-0.0774823 0.0424415 -0.483979 
0.00485639 0.00362944 0.192175 

-0.0361431 -0.00256463 0.00438292 
-0.0311816 0.00808168 -0.0165292 
-5.13026e-05 -0.00103371 0.0133532 

-0.0363195 0.0287548 0.146703 
0.0146031 0.0418878 -0.138895 
0.0303752 -0.000423967 0.7914 

-0.0471175 0.0252291 -0.0517964 
0.0046926 0.0484787 -0.0698676 
-0.000795017 -0.0177306 0.0683806 

-0.034644 0.0235012 -0.053388 
-0.0218704 0.0157588 -0.00462746 
-0.0025948 0.000511031 0.00633192 

-0.000810322 0.0425289 -0.103982 
-0.0147597 0.0372235 0.167588 
0.00389949 -0.00187467 0.0063986 

-0.0269861 -0.0271049 -0.169349 
0.00758838 0.0343588 0.19194 
0.00348415 -0.00301935 0.023712 

-0.0791028 0.0454489 -0.0710568 
-0.029261 0.038586 0.0371127 
0.0011524 -0.00013273 -0.00809162 

-0.0270598 0.014392 -0.642066 
-0.00346602 0.00817547 1.0835 
-0.00168673 -0.000289476 0.0420334 

-0.0447619 -0.0222935 -0.171194 
-0.00987461 0.029125 0.739589 
-0.00245166 -0.0060068 0.132561 

-0.0381895 -0.0149648 1.07387 
-0.00304406 0.0216373 -1.0689 
-0.00032828 0.000373575 0.136376 

-0.0329285 0.00216973 -0.0173931 
0.0187629 0.026106 -0.0495169 
0.00129984 -0.000731325 0.0179752 

-0.0267787 -0.00823425 0.0694118 
-0.00110495 0.00851035 0.22793 
0.0105317 -0.00854639 -0.0419798 

-0.0446158 -0.00915172 -0.0165573 
-0.00791198 0.0239311 -0.0108704 
-0.0045107 0.00109366 -0.00748507 

-0.164868 0.0389303 0.269448 
-0.125777 0.000504197 -0.0668782 
0.0261701 0.0146704 0.24206 

-0.0373024 0.00664997 -0.856723 
-0.0015662 0.0217269 -0.0488331 
-0.0267342 -0.0211874 -0.443262 

-0.0411853 0.0188845 0.0693128 
0.00875864 0.00523383 -0.0345173 
0.00283133 0.00228809 0.0443011 

-0.0352316 0.00619711 0.00178663 
-0.013731 0.0107352 -0.0258806 
-0.00177633 -0.000143036 0.00558269 

-0.0402396 0.0397548 0.976405 
-0.0192193 0.0593118 2.93518 
0.00664743 -0.00913225 -0.0421774 

-0.0476698 -0.0145347 -0.168817 
-0.028432 0.0317362 -0.0371378 
0.00223101 0.000594978 0.0157807 

-0.0246775 0.0054308 -0.0342444 
-0.00374742 0.00570974 0.0331551 
0.00563092 0.00247501 0.0306425 

0.00464205 -0.0622881 0.980285 
0.0733544 0.0318184 0.289634 
-0.00280595 -0.00161358 0.0361666 

-0.0581533 0.0494346 0.0590061 
-0.0450275 0.0532363 -0.0265723 
0.00172068 0.000684861 0.0138548 

-0.0394657 0.010625 -0.140329 
0.00363773 0.0203617 -0.429396 
0.00804529 0.0221518 0.042505 

-0.0477768 0.107206 0.0112781 
0.0459668 0.058198 0.0515901 
-0.000739482 0.000440516 0.00699282 

-0.0116675 0.0220023 -0.0122649 
-0.0146417 0.00621066 0.0403078 
-0.00208612 0.00146525 0.00466944 

-0.00316427 -0.114839 0.000837639 
0.12838 0.0178983 -0.0142336 
-2.45477e-05 0.00289617 -0.00301763 

-0.0276906 0.0027328 0.0265326 
0.0187042 0.0118022 0.187589 
0.0126857 0.0192141 -0.0192702 

-0.0353307 0.0203972 0.0521805 
-0.00355748 0.00357237 -0.00525087 
0.00236216 0.00737977 0.0451355 

-0.0542083 0.0330416 -0.0585044 
0.0041211 0.0122701 0.0192393 
-0.00111857 -0.00238787 0.0207707 

-0.0359292 0.0215741 0.4084 
-0.0244393 0.0335503 -0.0651236 
-0.0329531 -0.0233653 0.719302 

-0.0192135 -0.0448092 -0.00954573 
0.0252067 0.0276911 -0.00158208 
-0.00118774 -0.000485806 0.0251429 

-0.0379901 0.0261881 1.19217 
-0.00177132 0.0218532 2.62691 
-3.50241e-05 0.00130175 0.0657406 

-0.0363896 0.0170865 -0.453628 
-0.00943143 0.0127488 -0.750637 
3.42293e-05 0.000166755 0.0582963 

-0.0112685 0.0470422 0.0654785 
-0.0300437 0.00580608 0.0255944 
0.000357519 -8.09496e-05 0.000636994 

-0.028552 -0.0441783 -0.0929496 
0.0431995 0.0286166 -0.0035541 
0.00103482 -0.000475125 0.00536455 

-0.0124005 -0.0310183 0.000386882 
0.043495 0.0220417 -0.0946287 
-0.00123628 0.000441574 0.034292 

-0.0331245 -0.0345548 -1.10979 
0.00596118 -0.000972133 -0.349548 
0.000856349 0.000460357 -0.0625131 

-0.0211145 0.0244363 -0.327468 
-0.0240711 0.0449797 0.232774 
0.00346581 0.00806993 0.0472124 

-0.0574535 -0.0103723 0.0260734 
-0.00385678 0.0338529 -0.010231 
-0.023126 -0.0498554 0.177805 

-0.0275231 -0.00958875 -0.15936 
0.0204609 0.013853 0.17696 
-0.000399583 -0.000636472 -0.00345042 

-0.120786 0.0939264 0.23743 
0.0940681 0.0058003 -0.139485 
-0.0215436 0.0173686 0.192537 

-0.0409266 -0.0265676 -0.167541 
-0.0171388 0.0296171 -0.0633623 
6.86255e-05 0.00107381 0.0301249 

-0.0561721 -0.0181257 -0.264863 
0.0957238 0.0784432 -0.162597 
0.00191021 -0.00321091 -0.0207144 

-0.0541901 -0.036152 0.483933 
0.0295954 0.103382 -0.33558 
0.00368245 -0.00148871 0.0161563 

-0.0372917 0.0141149 0.366306 
0.00392098 0.0177007 -0.154975 
0.000557446 0.000774594 -0.023786 

-0.0286637 0.0226617 -0.0158467 
-0.0196564 0.0176073 0.00880416 
0.00072053 1.90221e-05 0.0308472 

-0.0017243 -0.105026 0.37647 
0.0163702 0.0206071 -0.110245 
-0.0133454 0.0063364 0.0367648 

-0.0644829 -0.0093779 0.160295 
0.0258363 0.0221777 0.242949 
0.00394483 -0.0183073 0.0245187 

-0.0292998 -0.0542055 -0.0569853 
0.0339548 0.0116619 -0.0526024 
-0.00057218 0.00128482 0.0115182 

-0.0192825 -0.0195399 -0.0317335 
0.03587 0.00773783 0.0516064 
0.000920744 -0.00159737 0.0175776 

-0.0695752 -0.0271622 0.234362 
0.00611679 0.0293602 -0.0930487 
0.00589669 0.0153609 -0.187134 

-0.00988226 -0.0134092 -0.0554437 
0.012984 0.00831626 0.0716322 
-0.000234063 0.000383104 -0.00277072 

-0.0735762 -0.15503 0.33502 
-0.0413318 0.11415 -0.547116 
0.0404628 -0.0149705 0.376797 

-0.133195 0.127885 0.571418 
-0.0935995 0.0222468 0.0893741 
-0.00197789 0.0082917 0.259148 

-0.0163246 0.0294645 -0.0340626 
-0.0435985 0.00438621 -0.00749115 
0.0120695 0.00119869 0.0223935 

-0.0159215 0.00429766 -0.299096 
-0.00794687 0.019602 -0.135172 
0.000673337 0.00191759 0.00870118 

-0.0816314 -0.0479283 0.154843 
-0.0203932 0.0555159 -0.113885 
-0.000951203 -0.000289943 0.0234395 

-0.038062 -0.0334028 1.98178 
-0.026712 0.0193605 2.01965 
0.00051411 -0.00163914 0.469923 

-0.0240495 -0.0243552 -0.0182797 
0.0322221 0.033014 -0.135832 
0.000147525 -0.000153786 -0.00559632 

-0.0758177 -0.0498356 -0.884251 
0.0447454 0.0368884 -0.679022 
0.000867909 0.000508312 0.0202349 

-0.0483379 0.0133435 1.98084 
0.0131064 0.0285356 0.126635 
-0.000656973 -0.0103529 1.43302 

-0.0329608 0.0133423 0.370671 
0.011113 0.00455252 -0.0133636 
-0.00158198 0.00249232 0.0218667 

-0.056853 -0.0095622 0.00146583 
-0.0286264 0.0143672 0.374236 
5.53848e-05 -0.0225541 0.524583 

-0.0390123 -0.0654857 1.29533 
-0.00460381 0.0754803 -1.28276 
0.0013247 -0.000335369 0.092985 

-0.0660074 0.0505753 0.598316 
-0.00579298 0.0474572 -0.00165433 
-0.00039013 0.000534869 0.0346591 

-0.084424 0.0455132 -0.690549 
-0.00602918 0.081316 -1.55935 
-0.0104118 0.0278308 -0.512449 

-0.0515583 0.0172315 -0.0937791 
-0.0270296 0.000830918 -0.0396061 
0.00345752 -0.00239196 0.0157965 

-0.0389143 -0.0981188 24.3794 
-0.00141652 0.111399 -11.2359 
0.000422121 -0.00450086 1.61528 

-0.0339657 -0.0236969 -0.0865733 
-0.0150334 0.0101489 -0.0670234 
0.00249751 0.00391396 0.0342477 

-0.0208431 0.00333566 0.109366 
0.0232429 0.0289087 0.0423162 
0.000336697 0.0011735 -0.0132485 

-0.0547354 -0.0351524 -0.212069 
0.0083544 0.0992782 2.0623 
0.0014817 -0.019415 0.119335 

-0.077492 0.0604961 -0.381426 
-0.0188665 0.0547051 -0.359499 
-0.00744757 0.0175993 0.0966563 

-0.189284 0.142408 -0.0431671 
-0.102928 0.0114239 0.0744345 
0.0072497 0.00270855 0.202032 

-0.0162057 -0.0173568 -0.00988511 
-0.0014917 0.013655 -0.00460204 
0.000500706 0.000197876 0.00784579 

-0.00640618 -0.0252341 0.0702801 
-0.0237006 0.0039751 0.0149734 
0.000157491 -0.0233465 0.201612 

-0.0198124 0.00860818 -0.08492 
-0.00260647 0.00734877 0.00266245 
-0.000574949 0.000573545 0.0195443 

-0.0504169 0.0224415 -0.121505 
-0.0231414 0.0178926 -0.0608973 
-0.00479653 -0.0100585 0.0302468 

-0.0217588 0.024835 -0.016918 
-0.0174577 0.0139374 -0.0886822 
0.00068543 -0.00204991 0.00454232 

-0.0109189 0.00109014 -0.192858 
0.0375757 0.0121237 -0.195089 
0.00317881 0.000167561 -0.0198082 

0.00562306 -0.0285841 -0.101541 
-0.0310166 -0.0147728 -0.134624 
-0.00233053 -0.00303812 0.0166434 

-0.0387896 0.000329225 -0.0204354 
0.0157782 0.0348855 -0.465886 
0.00882419 0.000869042 0.0190437 

-0.0265353 -0.0144968 0.000757297 
0.0178034 0.010625 0.00588024 
-0.00192669 0.00486685 0.00080163 

-0.0310155 -0.00641353 0.0839322 
-0.0138104 0.00925068 0.0726866 
-0.00186454 -0.000151705 0.0850164 

-0.156714 0.0864856 1.21811 
0.0529305 0.12741 0.838202 
0.0103166 -0.0122361 0.123308 

-0.0393462 -0.02309 0.0547073 
-0.0216337 0.0219457 -0.0286029 
0.00313084 -0.00331249 0.024744 

-0.013191 0.0577233 -0.0316636 
-0.0581806 -0.00677501 0.357078 
0.00918777 0.00147876 -0.0100379 

-0.0483125 0.0174567 -0.0326413 
-0.00160252 0.0101221 -0.00730157 
0.00193724 0.00280156 0.0393085 

-0.0108456 0.00146113 -0.0208619 
-0.00145608 0.00387886 0.0400645 
0.000621365 -0.00148182 -0.00747035 

-0.0300812 0.0293849 0.119462 
-0.0686828 5.67752e-05 0.0482647 
-0.00600169 0.00324626 0.0149045 

-0.0203593 -0.00933028 0.0413258 
0.00162376 0.0064514 -0.0231242 
-0.00100143 -0.000870876 0.00801437 

-0.0305652 0.00591478 0.05904 
-0.00579048 0.013029 -0.342768 
0.000351367 -0.000114623 -0.0305886 

-0.0405377 -0.0173041 0.100727 
0.0203276 -0.00845436 -0.0917804 
0.00111628 0.00141692 0.0279696 

-0.0266425 0.00102959 0.0379958 
0.00120564 0.00601439 0.0117584 
0.00166777 -0.00149616 0.00362984 

-0.0301133 -0.0309271 -0.0441359 
0.0021762 0.0357216 0.172093 
-0.015577 -0.0313803 -0.0579722 

-0.147438 -0.151689 -0.0210874 
0.16002 0.112763 -0.0589222 
-0.00216977 -0.00124561 0.0446823 

-0.0294633 -0.00496207 -0.062812 
-0.00572952 0.00478551 0.0259151 
0.00142424 -0.000748727 -0.00745924 

-0.0695596 0.0159478 0.00764793 
0.0321009 0.00951562 -0.0486588 
-0.000159543 0.00389916 0.128565 

-0.0633521 -0.0288436 0.705513 
0.0653278 0.0401047 -0.465963 
-0.00190303 4.21131e-05 0.0534587 

-0.0447341 -0.0353979 0.0212485 
0.0459055 0.0144932 0.0139452 
-7.08958e-05 0.00126307 0.0213045 

-0.106992 -0.108974 -0.0597086 
0.0814306 0.0974352 0.0538089 
0.013644 -0.0364645 0.0460475 

-0.00288118 0.0171724 0.705962 
-0.0787873 0.0531553 -0.0436032 
0.00729812 -0.00905828 0.125183 

-0.0458693 0.0544048 -0.212129 
-0.0579111 0.0647465 0.378461 
-0.00141881 -0.00276686 0.0857032 

-0.00608037 -0.0259929 0.0220449 
0.0183148 -0.0393764 0.337578 
0.0229695 0.00418261 0.420422 

-0.0231623 0.0317031 -0.104778 
-0.0252847 0.00110081 -0.131345 
-0.0163506 -0.00471257 0.0419352 

-0.04226 -0.0255357 -0.0719317 
0.0272815 -0.0127882 0.285176 
-0.00656286 -0.092108 0.242276 

-0.0377975 -0.0147104 -0.0548088 
-0.0141437 0.0192634 0.0602199 
0.000923143 0.0014367 0.0190549 

-0.0379989 -0.0267077 0.260616 
-0.0602653 0.0274591 -0.14496 
-0.00110743 0.0486907 0.428861 

-0.0873096 0.00481966 0.133877 