# vtk DataFile Version 3.0
Output file generated by Yade's KinematicLocalisationAnalyser
ASCII
DATASET UNSTRUCTURED_GRID

POINTS 13483 float
621.824 32.7304 -0.412855
767.295 69.3455 0.366905
122.534 6.00244 -0.460772
793.946 7.53507 -0.441287
513.033 7.83277 0.292329
323.588 35.4733 -0.465469
160.077 6.9062 0.435364
584.422 10.3497 0.16497
510.449 22.528 -0.153082
724.97 13.814 -0.547914
215.69 8.87506 -0.0990063
263.587 6.36996 -0.285583
664.717 40.3733 -0.138851
646.41 17.8528 -0.0947846
139.956 16.8964 -0.453085
226.435 34.8916 -0.399298
223.19 12.993 0.285627
296.491 9.66907 0.391574
348.992 33.18 0.465481
538.406 8.4904 0.348698
421.925 37.3681 -0.103461
606.648 42.8814 -0.277813
794.238 46.7375 -0.474994
707.6 44.4308 -0.450711
471.216 16.0048 0.289283
246.796 44.8256 0.12581
505.696 27.4666 -0.481915
600.954 20.493 0.253559
45.7775 15.2823 -0.458265
720.94 41.4669 -0.373403
495.633 4.98921 0.324867
17.1306 23.0608 0.294588
781.498 73.1488 0.125971
508.988 2.50298 0.474335
79.986 44.6597 -0.100357
535.719 30.5876 0.339984
544.856 16.417 -0.424091
352.838 22.4159 0.187993
548.213 26.2246 -0.300488
360.374 34.1565 -0.385691
247.545 14.3526 0.33371
445.844 36.9691 -0.0675978
684.572 8.53742 0.267382
197.556 6.21653 -0.376162
56.952 6.98388 -0.110854
70.2571 8.94938 -0.293184
696.739 9.24241 0.656492
23.9335 11.6867 -0.299886
621.205 55.8537 0.35321
684.502 33.6126 0.353521
177.005 32.5888 -0.282508
758.661 55.5054 -0.118483
35.6715 28.5039 0.121022
548.806 3.04088 0.322493
145.339 7.48799 -0.486416
609.603 34.2174 0.369989
520.04 27.3141 0.111842
179.069 0.953755 0.272206
33.4646 2.35103 -0.342046
358.205 17.8176 0.2593
635.418 58.011 -0.13919
474.172 35.6633 -0.179366
411.044 1.0296 0.196022
707.234 10.2461 0.429073
26.9664 43.6166 -0.235631
263.242 30.2042 0.291717
724.626 8.94681 0.352985
685.326 61.2752 0.332146
429.97 8.74071 -0.472809
585.377 3.85885 -0.393476
746.196 35.4648 0.407521
133.712 7.69415 0.275027
512.701 27.2944 -0.130771
491.356 15.3662 -0.0944394
302.769 16.6862 -0.340903
21.1286 13.535 0.27694
778.706 55.213 -0.300911
342.339 40.4091 -0.292452
683.396 28.9521 0.397819
696.776 16.23 0.244939
783.005 15.2973 -0.340907
477.846 35.983 0.163591
94.6661 38.6576 -0.27271
694.14 47.9312 -0.215091
661.972 49.0481 0.102594
800.509 53.826 -0.113151
779.512 0.78281 0.500951
299.554 28.927 0.44839
639.498 6.0699 -0.158912
24.801 5.14254 0.48314
136.325 39.289 0.135735
527.888 14.8224 0.219407
775.728 46.7164 0.466868
200.708 28.7829 0.246201
45.9926 35.5429 0.273495
507.903 1.16023 0.137616
242.477 8.74352 -0.394972
742.888 66.6322 -0.243549
763.14 45.1423 0.220953
372.17 20.7854 -0.261896
168.619 26.9107 0.43717
565.67 41.2388 -0.43894
391.832 15.0878 -0.492887
427.062 29.689 -0.10344
390.088 4.38956 0.407137
564.615 10.8307 -0.128725
799.608 11.958 -0.27111
82.3158 39.6233 0.409136
345.84 4.90817 -0.187943
578.097 9.44248 -0.492531
371.36 44.0276 0.448382
26.218 24.8319 0.475828
31.2437 5.74955 0.332301
586.717 36.7851 0.422222
520.99 25.2774 0.161052
26.4717 37.3683 0.405494
95.9732 31.0724 0.209974
335.771 15.9829 -0.290151
618.35 19.1581 0.113661
490.963 38.1623 0.309167
741.914 7.36793 -0.46085
733.474 6.00756 0.180453
399.954 37.2055 -0.0977429
650.758 31.8954 0.118267
245.868 17.1729 0.573381
340.996 3.68949 0.466989
106.379 31.5179 0.315161
119.961 24.749 0.258843
560.941 40.8741 -0.0669332
316.528 18.8351 0.490988
719.23 52.4539 -0.101598
689.774 61.2856 0.106752
496.359 20.9012 -0.353848
775.01 29.2922 0.352844
443.66 24.4015 0.219822
286.866 24.0193 -0.303864
687.235 46.9122 0.295898
287.965 29.4467 0.397696
595.693 12.6974 -0.202756
344.076 37.4739 0.208805
522.374 11.4446 0.485125
379.546 31.2252 -0.0899076
446.02 17.043 -0.104115
329.132 42.5164 -0.418117
196.8 29.9928 0.110123
771.801 68.8552 -0.146896
796.795 15.0769 -0.346761
6.07787 12.461 -0.433366
450.276 22.5466 -0.433558
39.3821 22.8078 -0.0890837
390.201 31.4573 -0.45811
409.731 24.4623 -0.275828
76.9703 11.6254 -0.525707
53.3488 33.1808 -0.444499
233.844 13.4771 0.456328
632.534 50.2225 0.379254
597.786 21.2468 -0.481557
77.2359 20.9534 0.486139
707.208 48.8544 0.416966
764.938 15.112 -0.485875
678.672 55.9733 -0.601842
704.242 2.16674 -0.654647
570.668 27.6364 -0.411789
607.47 44.175 0.554576
531.422 18.6131 -0.387792
791.46 5.6719 0.468666
231.774 24.8945 -0.118081
132.015 36.2595 -0.213155
256.351 6.55619 -0.376028
97.442 4.43521 0.274392
66.4938 10.1341 0.223884
286.204 36.4533 -0.310118
17.5837 24.8543 0.364861
577.352 21.3289 0.410796
623.368 51.2479 0.219033
480.782 21.3259 -0.352958
785.317 55.9572 0.363091
422.992 8.66004 -0.122355
452.653 37.0919 0.403497
557.276 3.51627 -0.196952
23.4985 23.7134 -0.390404
597.885 4.59355 0.522188
566.715 4.41855 -0.287149
213.854 11.3857 0.48711
441.934 16.2006 0.196241
323.572 6.36068 0.336935
403.615 18.9508 -0.321714
741.72 56.6862 0.106225
199.661 25.5393 0.398896
771.366 6.74784 0.341359
745.27 57.2576 -0.312875
398.836 10.265 -0.162387
722.943 2.34342 0.552606
624.232 28.099 -0.400814
742.362 20.8038 -0.35706
448.144 43.7613 -0.274201
516.8 12.4868 0.444847
484.562 45.2775 0.223098
463.86 8.89982 -0.153547
682.146 54.8921 0.265024
675.833 49.1011 -0.281411
199.151 39.0691 -0.331862
780.964 14.5964 -0.181701
608.879 44.1744 -0.33402
12.0046 17.2822 0.195191
424.081 25.6571 0.336181
194.472 22.9747 -0.396376
96.3547 39.634 -0.203635
773.186 42.5291 0.410368
674.665 59.5549 0.241914
331.915 25.7789 0.336662
554.132 10.2386 0.309299
85.1876 45.0543 -0.167558
257.047 25.7414 -0.475314
578.3 26.0004 0.365883
506.809 18.4117 0.42175
273.237 0.891201 -0.343039
574.994 43.4212 -0.384471
553.928 42.1933 -0.436957
502.866 32.9649 0.37997
519.932 0.830318 -0.545585
711.98 21.5109 0.405064
186.33 12.0436 0.155303
522.917 39.212 -0.411605
587.58 44.37 0.114219
75.5735 0.948635 0.273393
261.766 4.68263 0.159837
796.166 17.1809 -0.21282
782.683 17.2855 -0.479888
801.4 21.5322 -0.651183
315.944 8.57852 -0.23426
746.534 28.4369 -0.435978
423.71 42.3536 0.350213
468.016 0.799494 -0.408011
668.778 48.0886 -0.427123
27.7387 30.9198 -0.304452
344.244 42.1924 -0.494345
262.7 2.85391 0.329614
784.772 70.3298 -0.178042
718.787 67.2482 -0.121087
299.144 11.001 0.227433
680.882 39.3257 -0.0779846
580.068 2.5456 0.280003
564.322 6.5404 0.413635
100.41 18.532 -0.502505
315.886 1.03377 -0.227755
357.462 2.2976 -0.348544
14.3175 7.47059 0.379498
4.67379 31.4055 -0.237611
168.17 18.8011 0.365324
70.7666 41.8647 -0.221942
68.8747 28.948 0.319091
441.742 14.4873 -0.443468
382.385 34.9262 -0.467482
757.689 57.5747 -0.112422
20.0697 4.00865 -0.269431
73.2737 6.91283 0.139704
641.731 43.9488 -0.143055
306.996 0.951826 0.310442
380.622 16.203 -0.0892426
245.267 4.64702 -0.381584
669.594 28.933 0.171187
471.183 8.33866 0.420576
749.316 26.0246 0.389201
649.314 34.9898 0.290016
684.828 23.396 -0.0933958
439.12 26.9002 0.491139
106.116 45.5579 -0.310564
564.082 45.0079 -0.0849285
744.822 13.1672 -0.331416
248.168 31.1262 -0.258636
33.1909 17.3998 -0.166636
350.417 13.9442 0.491099
111.765 41.0496 -0.459655
278.815 42.6892 -0.211022
444.251 1.58536 -0.294099
778.415 49.075 -0.437464
698.384 0.744262 -0.539105
346.424 3.326 0.536557
313.053 26.4003 -0.153794
483.407 42.1805 0.22025
84.6763 7.99621 0.438154
205.761 45.112 -0.378073
764.631 46.2562 -0.415506
517.809 42.2545 -0.0144855
208.211 41.1071 0.280532
167.15 42.5657 0.208265
800.659 42.6701 -0.423439
798.294 13.4805 -0.46536
631.095 4.34096 -0.646719
198.137 24.4767 -0.09099
572.288 30.0816 0.0995099
574.329 29.9009 0.281779
427.618 5.72525 -0.131091
502.785 0.928164 -0.289388
755.722 61.5077 0.470667
88.2552 31.0427 0.213352
674.791 23.3273 0.463607
285.851 15.5484 -0.336217
9.84938 2.33852 -0.344631
130.566 37.8943 -0.187891
69.3762 23.4052 -0.451787
715.207 46.1238 0.30473
790.71 75.9858 0.160409
193.284 28.1267 -0.186871
792.269 15.245 0.573074
47.1398 37.5803 -0.259921
94.7023 29.2342 0.149971
655.492 17.2671 -0.423272
432.043 18.3067 -0.496426
541.504 16.5638 0.119747
248.578 29.2008 0.18643
644.457 5.52866 -0.683542
801.363 11.6852 0.544286
30.5775 31.8549 -0.265067
281.792 7.71646 0.191635
231.63 15.2515 0.258016
1.06963 35.8434 0.153175
234.921 14.7082 0.361165
220.638 11.0037 -0.139912
223.468 26.394 0.293969
138.269 27.886 -0.114024
570.449 15.6189 -0.366454
173.812 14.1762 0.352226
779.351 70.3482 0.22774
181.142 3.86597 -0.49953
49.6532 38.7042 -0.37841
733.196 63.7478 0.286444
293.383 31.9014 0.390944
688.407 33.5363 -0.482037
785.301 41.5435 0.547622
313.984 9.2023 -0.106338
737.842 37.5059 0.361253
343.313 2.56754 -0.395131
435.458 24.0062 0.364161
688.765 20.253 -0.474434
110.078 12.1047 0.498005
504.484 3.91934 -0.483749
753.192 25.4845 -0.180071
91.9248 7.79943 -0.233984
294.011 14.8644 0.173504
442.888 11.7058 -0.238502
792.07 2.69614 -0.443496
416.065 1.94966 -0.528459
184.038 40.0377 0.340736
747.448 11.0312 -0.535272
133.865 37.293 -0.209122
274.316 31.5747 -0.391635
418.59 22.089 0.209534
598.274 14.485 -0.304971
404.783 9.85558 -0.487312
476.33 28.2738 -0.463966
767.392 70.9099 0.38485
49.5301 10.934 -0.103103
312.475 39.2264 -0.27538
396.761 26.1758 -0.403892
428.323 21.108 0.239165
542.864 46.3107 0.356494
753.271 58.4238 -0.185266
681.916 48.2927 -0.355302
235.258 34.3338 0.393463
14.4681 33.1464 0.153173
677.909 49.1579 -0.122549
530.528 45.6705 0.435131
239.371 39.1095 -0.11707
695.865 39.2033 -0.127287
157.347 9.31936 0.203604
383.452 22.0351 0.295976
485.238 43.1877 0.115511
433.034 19.6758 0.206425
763.693 70.3908 -0.305348
445.793 3.84027 0.503453
51.5967 25.4949 -0.31497
491.054 31.8159 0.334001
454.436 41.8331 -0.378289
776.648 55.619 -0.238044
734.897 38.7282 0.22666
565.398 20.2642 -0.179922
770.68 60.1814 -0.44982
306.298 2.18706 -0.451094
396.765 29.2035 -0.458599
29.7792 39.0792 0.310209
740.984 37.6543 0.14126
632.534 21.7244 -0.485969
483.948 0.77262 -0.472384
131.084 4.56787 0.271533
445.807 41.2872 -0.0978201
12.3551 0.919429 0.345327
789.869 9.086 -0.0997347
386.746 39.0677 0.30283
636.09 7.26227 0.414955
[...]
POINT_DATA 13483
TENSORS Strain_matrix float
-0.442312 0.0273636 0.197293 
0.417094 0.271322 0.252396 
0.0113553 0.0517741 0.0634822 

0.0197941 0.0480106 -0.154938 
-0.051001 -0.0123639 1.49334 
-0.00848769 -0.000706565 0.00442253 

-0.0134615 -0.0083486 -0.337577 
0.0194519 0.00477911 -0.827217 
0.00267799 -0.00490158 0.122831 

-0.0294426 0.0702598 0.466799 
-0.097834 0.0425789 -0.495358 
0.00110064 -0.0108156 0.145375 

-0.0835643 -0.0266308 0.108667 
0.00593636 0.0276213 -0.0852045 
0.0029558 0.00726635 0.0909723 

-0.00234179 0.0109397 -0.479862 
0.0197426 -0.0184724 1.07352 
-0.000328957 0.000298361 -0.0505873 

-0.01726 -0.00335646 -0.0957394 
0.00164833 0.00879299 -0.184573 
-0.0156513 -0.00762379 0.0832801 

-0.0063357 -0.0915766 -0.0152421 
0.0236359 -0.00382727 -0.0251197 
0.00160216 -0.0046473 0.0141476 

-0.0718275 -0.0647947 -0.0227801 
0.107447 0.101236 -0.38973 
-0.000903377 -0.000567968 0.0248102 

-0.0674427 -0.0154639 0.0656019 
0.00410172 -0.00427569 0.0890523 
-0.0343502 0.0166197 0.283537 

-0.0101328 -0.00142122 -0.013778 
0.00490007 0.00432306 0.0125594 
-0.000252689 0.000350259 0.0060237 

-0.014398 -0.00700531 -0.00197055 
0.00274496 0.00482037 3.29902e-05 
0.00335054 0.000492058 0.0343249 

-0.152265 0.0770796 1.0077 
0.525877 0.0659801 -0.111573 
-0.0244364 0.0344496 0.410509 

0.0418057 -0.133798 -0.0462939 
0.180272 -0.00972234 0.128309 
-0.00389522 0.000674015 0.0144854 

-0.00699294 -0.00825923 -0.331009 
0.00295714 0.0024274 0.00295321 
-1.74255e-05 -0.000151737 0.0246487 

-0.0176682 -0.0126862 -0.0467369 
-0.00104788 0.00695178 0.0985135 
-0.000312371 -0.00111636 -0.00147049 

-0.0102262 -0.00564263 -0.00516072 
0.00708361 0.000765755 0.000752073 
0.00040883 -4.60584e-05 0.0122321 

-0.0166487 -0.00262145 0.00545813 
-0.00226532 -0.000327169 -0.0182014 
0.000454486 -0.0001611 0.0262557 

-0.0106346 0.0260131 -0.361403 
-0.0325888 0.0440576 -0.0898092 
-0.0023175 0.0115513 0.00482314 

-0.0181359 0.00609637 0.0201046 
-0.0135268 0.00376485 -0.00610534 
-0.00102846 -0.00176629 0.0243312 

0.00397696 0.0043752 -0.0196057 
-0.00552422 0.00411056 -0.000341254 
0.000457295 -0.000333442 0.000900689 

-0.170677 0.142909 0.108921 
-0.296158 0.209662 0.19859 
0.00047 0.000416268 0.00761659 

-0.271206 -0.00550962 -1.90939 
-0.0961954 0.168969 0.782819 
-0.0316305 0.0101524 0.0112124 

-0.165793 0.116181 2.02905 
-0.0292443 0.0956578 0.864712 
-0.00664787 -0.0136857 0.0944313 

-0.000545309 -0.0197041 0.0874475 
0.0121378 0.00977119 -0.0638136 
-0.00161122 -0.000682314 0.00688751 

-0.014093 -0.0411251 -0.0760234 
0.0303008 0.00689947 -0.00214013 
0.0107038 -0.000360306 0.0990937 

-0.0422235 0.0299771 1.22658 
0.0279019 0.0328379 0.381097 
0.00198629 0.00416208 -0.0398774 

-0.06969 0.102533 -0.529021 
0.19515 0.006421 -0.347471 
-0.0126574 0.00163724 0.11356 

-0.0126026 -0.0149215 -0.29984 
0.00783642 0.00795097 -0.192137 
0.000858934 -0.000165317 0.0425971 

-0.378356 0.179324 -0.303627 
-0.148811 0.257017 0.716109 
-0.0108547 -0.0294889 0.0790807 

-0.00872959 -0.0221304 0.0148735 
-0.011366 0.0128863 -0.0434558 
-0.000288407 -0.000525264 0.016799 

-0.00567317 0.0245447 0.00143168 
-0.0828798 -0.0205082 -0.0488104 
0.00307559 0.00225216 0.0228616 

0.011745 0.0693892 0.181692 
-0.105194 -0.0147941 -0.0781053 
0.00115447 -0.00235972 0.00964566 

-0.0194909 0.0539344 -0.459846 
0.00239936 0.00884368 -0.0713646 
0.000846185 -0.00813326 0.0488652 

-0.0278297 -0.0110866 -0.079412 
0.0276948 -0.0175531 0.0563456 
-0.0108014 -0.00397607 0.0584373 

-0.0396866 -0.298082 -0.754571 
-0.0967231 0.0374995 0.293216 
0.000636045 0.0029541 0.0575327 

-0.0153695 0.0272002 -0.24728 
0.0056845 -0.0155553 -0.196 
-0.00309308 0.0027636 -0.0331459 

-0.00961983 0.0163876 0.0412616 
0.031799 0.00644232 0.140824 
0.0021526 0.000959331 0.00886941 

-0.043142 -0.0476396 0.0239047 
0.0683674 0.0424166 -0.146721 
-0.00302326 -0.0237735 0.00423536 

-0.0147173 -0.028397 -0.120883 
0.0286155 0.0403551 -0.0978128 
-0.000343685 -0.000810756 -0.0134156 

-0.0473086 0.00112635 0.104611 
-0.0269495 0.0519344 -0.0615753 
-0.00279253 0.00494413 0.0960396 

0.00112882 0.0143571 -0.0322401 
-0.026165 0.000731324 -0.0251914 
-0.00051039 -0.000322146 -0.00515423 

-0.0659194 0.0211642 0.0122808 
0.0181081 -0.0135477 0.0641414 
0.0337856 0.0294189 0.455937 

-0.00748594 0.00209021 0.0256168 
-0.000209332 0.00468448 -0.00684302 
-0.00207164 0.000474504 -0.0228103 

-0.0122479 0.0117914 -0.0186588 
-0.00760147 0.0197045 -0.0207445 
0.0225765 0.000151027 0.00495674 

-0.0105166 0.0130271 0.00625288 
-0.0046346 0.00512181 0.00188677 
-0.000322525 2.65231e-05 0.00368743 

-0.23408 0.0706814 -0.835723 
-0.0104411 0.107823 -1.79983 
-0.0283913 -0.000947178 0.127288 

-0.00770209 0.0041257 0.00336578 
-0.00797431 -0.00468122 -0.00624787 
0.00149478 5.80582e-05 0.0185839 

-0.211729 0.296872 2.12183 
0.171552 0.731711 1.76201 
0.021043 0.00880336 0.0969626 

-0.188572 0.0862317 2.25798 
0.010585 0.207749 0.79142 
-0.00473853 0.0191334 0.167882 

-0.0103294 -0.0218603 -0.00634951 
0.0309065 0.00505875 -0.017124 
0.000499665 -0.000438823 0.00170868 

-0.62595 -0.126229 1.17843 
-0.184501 0.386625 -1.17909 
-0.0122603 0.0089847 -0.0437715 

-0.00341216 -0.009882 -0.00591757 
-0.00499177 -0.00146124 -0.0318567 
0.000905117 -0.000693873 0.0061506 

-0.0235205 0.0103144 0.0174413 
-0.00221898 0.00909733 -0.00043856 
0.000819845 0.000405708 0.0254394 

-0.0122974 -0.00270395 -0.0404691 
0.00162546 0.00550005 -0.0679913 
-8.19767e-05 -0.00018178 -0.0181914 

-0.00633129 0.0627013 -1.56414 
-0.071485 -0.00264318 -2.72465 
8.6406e-06 -0.00234932 0.0597102 

0.0828947 0.261656 -0.136702 
-0.0351362 -0.135522 -0.0634646 
0.0258614 0.0114017 0.0668521 

-0.0103198 0.00592702 -0.00348927 
0.000661696 0.00383327 0.00797584 
-0.000277246 -0.00584124 0.00103781 

-0.00560063 -0.00179486 -0.0130244 
0.00103608 -0.00283567 -0.0149552 
0.000307705 0.000176359 0.0101308 

-0.00800833 0.00372333 -0.0138322 
-0.0105513 0.00954883 -0.00424643 
0.000507308 0.000190848 0.00316687 

-0.19801 0.00621032 0.266958 
-0.0818789 0.562881 0.653845 
0.0033506 -0.027411 -0.0996827 

-0.0512282 -0.0227814 -0.198276 
0.0400907 0.0637655 -0.0894335 
0.000880782 -0.000153132 0.011439 

-0.00571428 -0.0027805 0.00698422 
-0.00426828 -0.00491532 -0.0109262 
0.00024483 -0.000651189 0.019346 

-0.170504 0.0569037 -0.0133659 
-0.0121548 0.123017 0.128527 
-0.0066677 -0.0108265 0.223136 

-0.0365629 0.0506306 -0.0783043 
-0.0328003 0.0292824 -0.138722 
-0.00434208 0.0440456 0.147154 

0.00233248 -0.0263005 0.0162942 
0.0419955 -0.021815 0.0945603 
-0.00321847 -0.00193385 0.0263051 

-0.0141823 0.0253774 0.130561 
0.00391664 -0.058612 -0.167922 
-0.00779107 0.00446519 0.0866529 

-0.00518067 -0.142311 -0.357674 
0.22718 -0.00226193 -0.134524 
0.0112889 0.0428046 0.155138 

-0.00679169 -0.00670206 0.0874629 
4.76381e-05 0.00748742 0.0819369 
0.00118783 0.000231921 0.0335051 

-0.0633946 0.076358 0.0215926 
-0.0453708 0.0407205 -0.277864 
-0.0495424 -0.0317004 0.372546 

-0.166919 -0.0116713 0.0427073 
-0.424421 0.0193179 0.0389213 
0.00575419 0.0088818 0.0275514 

-0.0104635 -0.0062065 -0.0116804 
-0.000436242 0.00154972 -0.0207609 
0.00146524 0.000259007 0.0152887 

0.0324981 0.0806266 0.131103 
0.0189773 0.0714254 -0.103628 
0.00283045 -0.00539268 -0.0106126 

-0.0266086 -0.0259517 0.329259 
-0.00497489 -0.00865203 0.0675426 
0.00124738 -0.0012087 0.00535279 

-0.00657023 -1.25719e-05 0.00352156 
-0.00579142 0.000100003 -0.160256 
-0.000355736 -0.000188968 0.0170798 

-0.0195156 0.0082695 -0.0176915 
-0.008819 0.00298142 0.0178912 
-0.00165481 8.67982e-05 0.0218219 

-0.203126 0.0990776 -0.740101 
-0.257347 0.152991 0.164468 
0.0020261 0.00244633 -0.0434724 

-0.00885696 -0.0204584 0.0326188 
0.00721027 -0.00019748 -0.00554477 
-0.000459386 -0.00128575 0.0479672 

-0.221738 -0.0843074 0.917481 
0.308501 0.235794 1.4308 
-0.0213544 -0.023626 0.117077 

-0.0903738 0.0182845 -0.0228947 
-0.107057 0.0260198 -0.864009 
-0.0730315 -0.0106258 -0.096548 

-0.0576917 0.0246144 0.00183694 
-0.0711787 0.0534882 0.17505 
0.000553074 -0.0127273 -0.0730404 

-0.00849536 0.0258764 0.0442099 
-0.0190576 0.0177975 -0.00783397 
5.4592e-05 0.000154116 -0.0031243 

-0.0111704 -0.0213715 -0.148812 
0.0161288 0.0073157 0.129358 
-9.83884e-05 -0.000583096 0.0184848 

0.0361936 0.129149 -0.105379 
-0.619467 -0.00959946 0.587927 
0.031733 0.0466086 0.224485 

-0.0166064 -0.0220253 0.0312891 
0.187024 0.00548571 0.0565131 
0.0038978 -0.00183808 0.0019384 

0.0111507 -0.00803697 0.216614 
-0.0838076 -0.0156609 -0.0406363 
-0.00125465 0.0014856 -0.00429795 

-0.165209 -3.57494 0.0486398 
0.0380236 0.0747361 -0.327231 
-0.00943472 0.46255 0.69249 

-0.00727592 0.029775 -0.0373736 
-0.00209153 0.0181046 -0.121098 
-0.00125588 -0.000893583 0.0149849 

-0.0221169 -0.227912 -0.0483849 
0.183658 -0.0101696 -0.00573453 
0.00569052 -0.00866126 0.110606 

-0.0141083 -0.00428227 0.453934 
-0.00276313 -0.00943645 0.626622 
0.000345238 -0.000474089 0.0375787 

-0.042817 -0.0311487 -0.0096624 
-0.0858695 0.00943075 0.171449 
0.000667786 0.0715899 0.51767 

-0.0582786 0.0792714 0.0915755 
-0.0328105 -0.000594693 -0.0718132 
0.00901469 -0.00147485 0.0143567 

-0.0395786 -0.0936444 -1.5373 
-0.106523 0.0333636 -0.338375 
-0.00703814 -0.0208888 -0.0891482 

-0.0137528 -0.0141964 0.141129 
-0.00173187 0.0101625 -0.0563864 
-0.000649187 0.000673657 -0.0170255 

-0.00192812 -0.0087651 0.0277043 
0.000331891 0.00244098 -0.0286867 
0.000189375 -3.35377e-05 0.00580516 

-0.0153342 0.070497 -0.179682 
0.00206966 0.00619944 0.0098228 
0.00690758 -0.123513 -0.0154206 

-0.0231677 0.0105849 -0.0107912 
0.00051654 0.00230042 -0.0231135 
-0.000668213 -0.000354153 0.0361024 

-0.183241 -0.430706 -0.221904 
0.225027 0.190588 -0.407098 
0.0274473 -0.0087952 0.15573 

-0.289814 -0.125352 1.10578 
-0.445005 0.139345 -0.818997 
-0.0738154 0.0693204 0.621521 

-0.00686833 -0.021005 0.0331173 
0.00533017 0.021506 0.229611 
-0.000132731 -0.000409693 0.00383537 

0.000409087 0.00217484 -0.800276 
0.00887589 0.00605896 -0.165659 
-0.000143811 0.000643059 0.0163018 

-0.026305 -0.0394882 0.237467 
0.0603137 -0.00365416 -0.346729 
0.00558925 0.00411906 0.0325184 

-0.0109729 -0.000877735 -0.0640159 
0.000597603 0.00399329 -0.0539593 
-9.94629e-06 0.000269052 -0.00916992 

-0.0214884 0.0371456 -0.125917 
-0.0411965 0.0339974 -0.126248 
-0.000683391 -0.000401297 0.00188581 

-0.00802412 0.00284482 0.00845827 
0.0025106 0.00576521 -0.00828861 
0.000395438 -0.000107576 0.00932417 

-0.0235408 0.0703588 -0.0705061 
-0.109041 -0.00651362 -0.0592602 
0.0141685 -0.00167984 0.108479 

-0.0367646 0.0294541 0.0214024 
-0.0787314 -0.000967684 -0.015602 
0.00261217 -0.00151023 0.0292961 

-0.0237483 -0.0136661 0.0938925 
-0.0115333 0.0195359 -0.168694 
0.00589104 0.000423207 0.286786 

-0.0163072 -0.00787207 0.0324404 
0.0199431 0.00219816 -0.0386998 
-0.00136463 0.00273935 0.0410096 

-0.11575 0.0279094 -0.204316 
-0.0932079 0.0886186 -2.60699 
0.00877207 -0.0138156 -0.0405213 

-0.0140342 0.0147137 0.839972 
-0.0121314 0.00537443 1.49366 
7.53377e-06 -0.000232064 -0.0197239 

-0.0273948 -0.0380146 -0.0268681 
0.0209114 0.0327978 -0.122941 
-0.000174624 7.51477e-05 0.161941 

-0.00985749 0.0002135 -0.00411915 
0.00261903 -0.00139585 0.0023152 
8.70023e-05 6.23868e-05 0.0155194 

-0.136495 0.0576686 -4.55309 
-0.0186157 0.0926774 2.32605 
-0.00524557 -0.011605 -0.104349 

0.0731517 0.26128 -0.0870613 
0.1932 -0.115566 0.261648 
0.0301041 0.0128703 0.104702 

-0.00911488 0.00708668 0.470943 
-0.0318971 0.0179636 0.12844 
0.00019138 -0.000222808 -0.00146365 

-0.0261765 0.0262448 0.0826749 
0.000190721 0.0207454 -0.0157229 
-0.000369157 -0.000101835 -0.006816 

-0.0317034 -0.0231118 -0.032194 
0.0410263 0.0532246 0.0396426 
0.00248387 0.00434192 0.00423265 

0.00780858 -0.111713 -0.0627488 
0.0692985 4.77244e-05 0.0320162 
0.000542841 0.00152325 -0.00897275 

-0.00608183 0.0142286 -0.22979 
-0.028694 0.000560189 -0.0228011 
0.00517904 0.00758734 -0.00338016 

-0.0165414 0.0537894 0.00235485 
0.111366 -0.0681625 -0.232669 
-0.00072453 -0.00813107 0.0486036 

-0.0255091 -0.0112365 -0.0409136 
-0.0137537 0.00742301 -0.0106014 
0.00186796 -0.00332486 0.0224926 

-0.00261425 -0.00327825 0.0288859 
0.0152243 0.00445034 -0.00366881 
-0.0202283 0.0153907 -0.038155 

-0.0178935 -0.0521266 0.00930044 
0.0317453 -0.0355902 -0.0572561 
0.000372651 0.000738982 0.0436064 

-0.0157431 -0.0125024 -5.67011 
0.000439614 0.0141396 -1.50044 
9.72257e-06 0.00092704 0.790868 

-0.0101669 0.00106345 -0.189959 
0.00703307 0.0046623 0.16656 
-0.0017038 -0.00142239 0.0174491 

-0.0085135 0.0136753 -0.0337568 
-0.0281824 0.0279895 -0.0955964 
-0.00281854 0.000885276 -0.00153098 

-0.0826024 -0.0263566 -0.141933 
0.141169 0.104546 -0.295561 
0.004116 -0.000607529 -0.0324887 

0.000547443 0.00998103 -0.096892 
0.0263965 -0.00374522 0.16135 
-0.0340541 0.0102011 0.128905 

-0.0198151 0.00803375 -0.54738 
0.0103303 0.0150054 0.101695 
-0.000317252 0.000131568 0.0104053 

-0.442304 -0.116751 1.62386 
0.176686 0.290007 -2.12671 
-0.00141771 0.00102436 -0.0275385 

0.135282 0.22301 -0.115422 
-0.2194 -0.168786 -0.165236 
0.0736695 -0.0784812 0.678056 

0.0379369 0.103976 0.850085 
0.0326771 0.00650101 0.199359 
-0.0138882 -0.016335 -0.0461949 

-0.0048785 -0.182769 -0.743178 
0.175178 0.0125801 -0.295422 
0.000163241 -0.00244751 0.0107631 

-0.0129937 -0.00374007 -0.0377117 
0.00851607 0.000580343 0.0492202 
-0.00139721 -0.00117788 0.0283132 

-0.013231 0.0122476 -0.0582057 
-0.0528997 -0.0114725 0.0231698 
-0.00203179 -0.00114347 0.0369342 

-0.138509 -0.215148 -1.2526 
0.282582 0.132215 0.821242 
0.00108654 -0.00382646 0.0506065 

-0.0282055 0.0121171 0.10398 
0.0141524 0.0263582 -0.380818 
0.0149532 -0.0145134 -0.227535 

-0.0252177 0.0126731 -0.00257699 
-0.018076 0.00991128 -0.00436256 
0.00121939 -0.000421043 0.00783233 

-0.0238517 -0.00958077 -0.122532 
0.00268934 0.00581302 -0.00034219 
-0.000637451 0.00195338 0.0238386 

-0.00796301 0.0115509 0.00750624 
-0.0212434 0.00242679 -0.0178093 
-0.00132957 0.000581316 0.0280007 

0.00500427 -0.00363588 -0.0705255 
-0.0317014 -0.00340286 0.0492255 
-0.000296598 0.000137475 0.00989976 

-0.0153973 -0.0214736 -0.0551237 
0.0133143 0.031669 -0.107846 
-0.000167495 0.0195688 0.0526439 

-0.0100855 -0.0107806 0.0313596 
-0.001999 -0.000160412 0.0688121 
0.000113289 -0.000439146 0.0110555 

-0.038313 -0.0289359 0.0616313 
0.0395689 0.0480883 0.0157042 
-0.000206425 -0.00081648 0.0109038 

0.00780379 0.0262644 -0.0556574 
0.00139487 0.0120945 0.0472163 
-0.0181125 -0.0110283 -0.0413772 

-0.0534212 0.054501 0.0206813 
-0.0923059 0.0295664 -0.000270704 
0.00347438 0.00607699 0.0129936 

-0.0293005 0.0109976 -0.0722571 
-0.0244954 0.0209157 -0.0944108 
0.0214521 0.0068566 -0.15006 

-0.00749927 0.0158878 -0.0500834 
-0.0341475 -0.00251093 0.110851 
-0.00046261 -0.000853216 -0.00810383 

-0.0117093 -0.0285009 0.0431642 
0.00938294 0.00968589 0.027142 
0.00055175 0.00110728 -0.00957231 

-0.0112901 -0.00509959 0.277205 
0.013243 0.00415161 -0.245117 
-8.13133e-05 -0.000355508 0.0346063 

-0.0208236 -0.0220095 0.0385651 
0.00834392 0.0083761 -0.0653154 
-0.000116127 -0.0011547 0.0158293 

-0.023857 -0.00106444 0.331337 
-0.00703145 0.0202084 0.177306 
-0.00331305 0.00499143 0.0742351 

-0.0091629 -0.00650195 -0.0522456 
0.00632604 0.00393135 0.0851434 
-6.55211e-05 -0.00025937 0.0143234 

-0.0178622 0.018383 -0.0337241 
-0.00463966 0.0156018 0.129724 
0.0343788 0.0259638 -0.0788852 

0.00198165 0.77708 0.989563 
-0.58388 0.417861 0.0363549 
-0.0631535 0.0141541 0.151997 

0.0139552 0.0525819 0.859173 
-0.100887 -0.000894922 -0.548951 
0.0118741 -0.0129301 -0.0286317 

-0.017137 0.00312896 0.100793 
0.0033028 0.0229574 -0.203136 
0.000878177 -0.000108305 -0.00928949 

-0.00671361 0.0336372 -1.52753 
0.108212 0.0539537 -0.178943 
0.00313438 0.00204951 0.0338141 

0.196136 0.0226985 1.87681 
-0.156698 0.0106733 0.888046 
-0.0207034 0.000412373 0.024617 

-0.144228 -0.0555314 3.539 
-0.0167761 0.0729093 18.2079 
0.000718613 -0.00256862 0.618248 

-0.0862925 -0.0589458 -1.02794 
-0.0217859 0.0292161 1.28646 
0.000677593 0.007884 0.582938 

0.0283649 -0.088357 1.72933 
0.106474 -0.0103673 -0.00862426 
-0.000681642 0.00403786 -0.0501023 

-0.0930693 -0.094945 -13.2443 
0.00988871 0.191496 16.9947 
0.000613817 0.00174166 0.810822 

-0.0542714 0.000532596 0.385759 
-0.134656 0.0737536 0.463172 
0.00497412 0.00514036 0.0266198 

-0.203112 0.0176553 0.326849 
0.0206435 0.117815 -0.0103318 
-0.0251123 0.017218 0.0490599 

0.00580608 0.0167257 -0.0192516 
0.0466065 -0.0292534 0.0673985 
-0.00114996 0.000905472 -0.00363913 

-0.0766759 0.0115057 -0.0258119 
-0.0151458 -0.0290628 -0.0728338 
-0.00283383 -0.00253155 0.036848 

-0.0132841 -0.00568161 0.0031178 
0.00648517 0.00269942 0.00335223 
-0.00144523 0.00340914 0.00473249 

-0.0743011 -0.0159523 0.213518 
0.0220433 0.0658038 -0.425817 
-0.000172434 -0.00472279 0.0529638 

-0.0138341 0.0185645 0.00217339 
-0.0119013 0.00617817 -0.00379339 
-0.00098809 -0.000205567 0.00067793 

0.00698062 0.000677648 -0.0421227 
0.0437493 -0.0159138 0.0900015 
-0.000141546 0.00024811 0.00859883 

-0.0593248 -0.0673467 0.0269101 
-0.0537782 -0.00812006 -0.138597 
0.00375489 0.00184356 0.098723 

-0.044375 0.0329844 -1.20696 
-0.0176243 0.0119213 3.17949 
0.00231394 0.000835431 0.171056 

0.0160673 -0.467543 -0.636753 
0.46184 0.241509 -0.190488 
0.0287298 0.0570172 0.118099 

0.0165921 -0.0440894 0.190999 
-0.0243827 0.00467309 0.0636919 
0.00109273 -0.00044056 -0.00503678 

0.023528 -0.0229321 0.513261 
0.0700672 0.00458963 1.21794 
0.00320931 0.0107593 0.0444346 

-0.00449869 -0.00918982 -0.00155305 
-0.0004759 0.00277123 -0.0041975 
0.000306945 0.000214893 0.00219774 

-0.0074438 0.0279424 -0.458731 
0.011138 -0.00669484 -0.116135 
2.80703e-06 0.000385663 -0.00451797 

-0.0831198 -0.0596998 -0.0342641 
0.0251512 0.022099 -0.113854 
0.00808654 0.016163 0.0416294 

-0.0561212 -0.0358666 -0.247696 
0.000148897 0.0582876 0.176269 
0.00130692 -0.000797539 0.0581786 

-0.0432202 -0.00428849 0.0188123 
-0.0347436 0.0272297 -0.233276 
-0.00178236 0.00280648 0.0817738 

-0.0320672 -0.0453175 -0.0470272 
0.0091162 0.0213977 0.0402678 
-0.00110685 0.00656969 0.151677 

-0.00978537 -0.000390161 0.176579 
0.00344936 0.00474751 -0.392002 
-0.000986347 0.000304111 0.0377609 

-0.00699843 -0.0506253 -0.055369 
0.0356834 0.0227573 0.0546555 
0.00105994 -0.00169425 0.0202735 

-0.0159356 -0.00928368 0.0037892 
0.00256966 0.0024954 0.00792755 
0.00102877 -0.000203922 0.0168401 

-0.000501174 0.000901288 0.00408996 
0.000676478 0.00695702 0.0215912 
4.56592e-05 0.000141441 -0.00664598 

0.0423599 -1.02173 -0.0885961 
0.727562 0.576196 0.466659 
0.101122 -0.0150279 0.708847 

-0.021161 -0.0269208 0.27376 
0.0192902 0.0206532 -0.186287 
0.000434579 -0.000705096 -0.00583966 

-0.0311187 -0.051466 -0.192144 
0.0848551 0.0185615 0.145865 
-0.0109057 0.00836565 0.0414101 

-0.451669 -0.464487 1.20938 
-0.181089 0.529049 1.97863 
-0.00127611 -0.0305833 -0.0678373 

-0.00728969 -5.3926e-05 0.0462593 
0.0118154 0.00719425 0.0573368 
0.00167551 0.000307006 0.0146168 

-0.0341774 -0.0448828 0.340087 
0.000642952 0.00371546 0.0290256 
-0.00499567 -0.0075158 0.0209284 

-0.334321 -0.257837 0.0857435 
0.226948 0.260707 1.00704 
0.022669 0.00474083 -0.199908 

-0.0722583 -0.0857965 -0.543211 
-0.0186261 0.0518697 -0.543024 
-0.00069265 0.00514098 0.117384 

-0.0176966 0.0189246 0.00965417 
-0.0183689 0.0134762 -0.0535698 
-0.000474188 0.00157489 0.0216222 

-0.0650996 0.056483 0.0560495 
-0.0229228 0.0597361 0.000886569 
0.00246545 0.00988383 0.25572 

-0.0455199 0.0259152 -0.0152194 
-0.0156538 0.0157541 0.0367479 
-0.000237173 0.00143371 0.0119661 

-0.0124645 -0.00173978 -0.00169394 
-0.00640091 0.00183255 0.00260116 
1.36305e-05 -0.000752455 0.0192788 

-0.0196623 -0.171679 -0.0268211 
0.174509 0.0239261 0.0691972 
-0.0434945 0.00785736 0.09112 
