# vtk DataFile Version 3.0
Output file generated by Yade's KinematicLocalisationAnalyser
ASCII
DATASET UNSTRUCTURED_GRID

POINTS 13483 float
569.442 35.3723 -0.451536
687.337 79.7461 0.443808
118.907 6.09047 -0.441927
712.236 7.18036 -0.4406
484.498 8.76681 0.321576
311.249 37.4948 -0.451553
155.239 7.0288 0.464094
540.255 11.2178 0.266933
483.795 25.8362 -0.159328
655.173 18.753 -0.617336
208.414 8.67001 -0.10418
254.436 6.44293 -0.284612
599.634 51.1651 -0.136011
593.023 19.6927 -0.115797
136.074 17.1363 -0.461825
218.794 36.2935 -0.401014
215.495 13.116 0.276031
286.3 9.6402 0.413879
336.815 34.0413 0.448643
506.484 8.58608 0.375307
406.099 40.4999 0.0955656
556.382 43.4849 0.293294
713.598 54.0714 -0.517074
638.076 54.2838 -0.428494
449.435 17.1463 0.301215
238.657 46.0352 0.149158
478.594 31.4804 -0.469492
553.736 20.3546 0.260242
44.6618 15.2675 -0.491345
649.507 47.6536 -0.343537
468.669 6.20199 0.358167
16.6532 23.4448 0.293371
701.552 81.4455 0.161384
480.995 2.21633 0.644412
77.6204 45.7658 -0.102983
502.178 35.8427 0.336148
509.53 18.5734 -0.455573
340.026 22.329 0.172427
511.881 32.6519 -0.356649
346.104 37.6165 -0.410604
239.109 14.3341 0.322708
426.265 40.6621 0.0637086
621.497 11.0376 -0.244285
190.701 6.295 -0.373173
55.5368 7.06985 -0.101673
68.5957 9.00221 -0.299925
629.502 10.0256 0.615084
23.1308 11.8512 -0.301812
558.059 60.6625 0.380941
617.882 45.8784 0.319794
171.306 32.8173 -0.28926
685.015 63.8876 0.127151
34.7187 28.6891 0.123741
515.306 3.00122 0.295207
140.962 7.45894 -0.515404
558.597 36.9955 0.424658
490.03 31.1493 0.124636
173.717 0.970163 0.27632
32.5623 2.34418 -0.353877
345.45 18.1808 0.26415
570.6 71.3529 0.133378
452.817 39.4485 -0.17245
394.422 1.02491 0.204306
638.708 13.1656 0.69767
26.8189 44.0488 -0.237641
254.492 31.3419 0.302585
653.4 11.3463 -0.325932
617.189 76.6016 -0.349715
412.437 8.55259 -0.535173
539.694 4.6132 -0.430185
671.284 40.1961 0.379895
129.879 7.84718 0.260237
484.815 31.2712 -0.141892
466.898 17.3864 -0.0985018
292.311 17.0896 -0.346456
20.371 13.7037 0.285836
698.374 61.9271 -0.310345
330.39 40.3926 -0.280989
615.978 40.1619 0.37682
631.207 20.0411 0.302685
703.899 17.6929 -0.216074
454.434 40.9233 -0.160407
91.9349 39.2657 -0.273234
625.755 61.9294 -0.227012
596.291 59.7481 0.102642
718.633 60.6832 -0.109134
699.129 0.762757 0.570956
288.575 29.3598 0.417504
588.658 6.29355 -0.134442
24.2276 5.3717 0.564325
132.934 41.2393 0.135811
498.755 16.782 0.194435
697.054 51.0678 0.448741
194.117 30.185 0.22641
45.1929 35.8807 0.267228
479.839 1.16742 0.124668
234.195 8.68379 -0.447417
666.504 75.1757 0.250692
686.744 49.7588 0.241182
358.22 22.4549 -0.274652
162.792 27.3824 0.450054
529.113 51.9317 0.411921
376.606 15.8274 -0.51688
408.553 33.4448 0.0974445
374.375 4.73796 0.37254
524.748 16.1301 -0.143235
717.784 11.523 -0.385241
79.6741 40.6941 0.398957
332.937 5.01827 -0.220697
535.425 12.1512 -0.315985
358.113 47.2193 -0.455357
25.2975 24.9251 0.477296
30.3334 5.81337 0.318092
542.312 47.6713 0.395754
491.458 29.4098 0.157025
25.5429 37.8781 0.423616
93.1009 31.5411 0.222773
323.131 16.7666 0.29933
569.287 22.998 -0.133676
467.538 42.5672 0.309074
667.276 7.16264 -0.467475
658.829 6.42668 0.268125
385.015 37.8103 -0.103516
591.615 36.3078 0.111724
237.517 17.1956 0.560173
328.373 3.91312 0.455795
103.352 32.0989 0.325526
116.377 25.0231 0.257381
523.802 49.358 -0.0677602
305.648 18.9304 0.480899
648.099 62.6371 -0.0981085
622.052 76.3171 0.102978
470.886 24.1405 -0.391471
697.744 33.0488 0.319212
423.815 26.8019 0.231027
277.448 24.2872 -0.31008
619.831 59.8394 0.305561
277.924 30.7987 0.377046
549.858 12.2204 0.23276
331.907 37.264 0.201448
493.186 13.0595 0.605382
364.311 32.3624 -0.086659
425.784 19.3098 0.107107
317.631 43.853 -0.450622
190.195 31.0992 0.114777
691.568 78.3862 -0.144442
716.024 13.5767 -0.354877
6.05175 12.6661 -0.422239
429.904 24.7655 -0.427856
38.4338 23.0344 -0.0924471
375.082 32.3041 -0.463374
394.472 25.9149 -0.279471
75.2115 11.5858 -0.531568
52.7932 33.7122 -0.441608
225.836 13.7073 0.456311
568.48 63.6053 -0.433306
550.764 21.188 -0.462625
75.5156 20.7955 0.510675
638.838 58.5154 0.483
688.579 16.8558 -0.608061
611.386 70.1942 -0.597103
638.223 2.21267 -0.565296
531.378 35.4063 -0.4092
556.978 45.0366 0.561003
498.835 22.0271 -0.508283
709.672 5.58646 0.466772
223.927 25.1207 -0.122709
128.906 37.8098 -0.207793
247.381 6.83673 -0.416021
94.6544 4.82111 0.269499
64.9278 10.2906 0.221848
277.218 37.2607 -0.297471
17.0686 25.257 0.342764
536.022 27.7359 0.437104
562.855 61.1925 0.198858
456.348 23.6061 -0.339053
703.704 64.2473 0.362935
405.727 8.79574 -0.138681
433.853 39.6944 0.389971
522.508 4.29104 -0.203936
22.5358 23.8663 -0.390786
551.827 4.60555 0.54464
528.287 9.16459 0.48353
206.694 11.2221 0.502912
422.947 17.0123 -0.177638
312.435 6.3248 0.374338
387.708 19.3324 -0.371399
670.037 64.2623 -0.100203
193.541 26.3482 0.448974
693.698 8.84104 0.434907
673.502 63.675 -0.319056
383.018 10.6719 0.178587
650.016 3.66004 0.525787
572.384 31.3659 -0.460055
667.89 23.2627 -0.367784
429.893 46.6128 -0.318842
487.777 13.6727 0.494092
461.981 49.9322 0.233187
441.839 10.1446 -0.174898
614.983 69.9596 0.257701
609.039 62.4494 -0.293876
192.587 40.4774 -0.342812
701.714 17.7693 -0.174798
558.249 44.1374 -0.26821
11.8948 18.2075 0.184453
408.381 26.1174 0.349826
188.758 23.3974 -0.394807
93.645 40.2047 -0.199314
696.202 46.4387 0.458869
606.65 72.6652 0.24055
319.641 26.6597 0.343001
518.234 13.5328 0.351324
82.7895 46.1112 -0.170304
248.209 26.4058 -0.470169
537.492 31.5004 0.475434
480.235 20.3435 0.456247
263.852 0.895593 -0.353252
534.957 60.0109 -0.385397
516.811 51.7652 -0.456074
479.255 40.8843 0.396432
490.487 1.80566 -0.658356
640.284 27.1802 0.496093
180.464 12.7798 -0.220362
492.232 48.1879 -0.425046
546.094 61.0874 0.153017
73.8038 0.948032 0.27384
252.673 4.75784 0.159541
715.46 16.9989 -0.218325
703.882 19.7074 -0.575283
719.267 22.4685 -0.541053
305.002 8.68346 -0.234408
670.784 31.3431 -0.491094
407.368 45.7135 0.31676
445.665 0.871152 0.521074
602.985 60.2578 -0.432569
26.6555 30.5568 -0.301176
332.139 42.7146 -0.615661
253.606 2.92107 0.355236
704.458 78.4347 -0.175378
650.427 76.436 0.0746956
288.754 11.1345 0.251232
614.051 51.1819 0.0809163
534.461 4.76055 0.289638
525.666 11.0813 -0.567296
97.4179 18.8849 -0.478468
304.835 1.05424 -0.232085
343.97 2.25708 -0.368813
13.9684 7.37022 0.458783
4.4476 32.005 -0.256636
162.755 19.1214 0.352893
68.5517 43.3365 -0.229974
66.0396 30.0989 0.2997
422.886 15.2443 -0.426012
367.396 36.1789 -0.462087
683.151 65.1643 0.120791
19.6146 4.02373 -0.273716
71.5273 6.9483 0.150244
574.786 56.7379 -0.136261
296.226 0.942472 0.374856
365.51 16.924 -0.0929731
236.763 4.688 -0.367006
606.348 39.7267 0.169612
448.241 9.00674 0.449418
672.848 28.1213 0.33524
589.776 40.8509 0.289377
619.52 33.5723 -0.081408
419.335 30.9365 0.481482
103.306 46.1708 -0.311739
525.974 54.2951 -0.0899313
669.515 12.806 -0.561609
239.948 31.903 -0.247406
32.3183 17.5768 -0.168395
337.633 14.2298 0.490238
108.789 41.6037 -0.460224
269.927 43.5163 -0.236298
426.459 2.21774 -0.255507
699.259 55.5893 -0.454992
632.918 2.69994 -0.651552
333.396 3.4838 0.577127
301.848 28.7636 -0.1427
460.726 46.8452 0.209686
82.681 7.89636 0.480015
198.864 46.5803 -0.388034
688.506 49.534 -0.387196
490.868 56.9785 0.0667027
201.231 42.432 0.282206
161.755 43.6886 -0.0945505
718.55 48.7935 -0.399339
717.79 13.378 -0.570863
580.981 4.95958 -0.538103
192.492 24.8204 -0.0863923
531.942 39.817 -0.115716
535.28 39.3154 0.293418
410.173 5.69301 -0.145663
474.935 0.951705 0.397497
676.649 72.062 0.477679
85.5493 31.9673 0.218353
612.312 32.5482 0.459002
276.054 15.7098 -0.326243
9.50639 2.38279 -0.33338
127.435 39.344 -0.191427
68.0546 23.8026 -0.459545
644.925 54.9698 0.32907
710.42 82.76 -0.163359
187.689 28.557 -0.177258
711.701 15.2779 0.469864
46.1947 37.9907 -0.264778
91.8926 29.948 0.148024
601.616 20.1725 -0.45294
414.879 19.6187 -0.537554
507.74 18.9934 0.121221
240.53 30.0167 0.184248
591.565 6.86533 -0.444727
719.455 11.4157 0.583102
29.6071 31.9201 -0.267501
271.933 7.74107 0.197089
223.773 15.6166 0.282884
1.07932 36.5616 0.151601
226.935 14.9148 0.379396
213.133 11.0188 -0.116393
215.434 26.8579 0.283668
133.955 28.1682 -0.128973
529.649 22.0759 -0.329577
168.242 14.3945 0.328574
699.335 78.6704 0.220834
175.659 3.93457 -0.498585
48.6381 39.3591 -0.378278
660.94 67.8407 0.452
283.643 32.6376 0.408436
621.471 44.3918 -0.465844
705.177 47.9298 0.548376
303.08 9.34366 -0.0993991
664.161 41.8439 0.409505
330.369 2.51712 -0.431764
416.521 27.323 -0.350706
624.12 28.6444 -0.552449
106.827 11.936 0.536676
477.005 3.87895 -0.508327
676.911 27.3703 -0.193583
89.7549 7.833 -0.345629
283.811 14.7841 0.197642
424.23 12.2477 -0.21537
710.52 2.84598 -0.539462
399.344 2.00809 -0.536357
177.574 40.5704 0.332086
672.191 10.9463 -0.54303
130.728 38.9647 -0.210052
264.828 31.9728 -0.404814
402.631 22.2826 0.209522
552.188 14.3683 -0.326877
388.435 9.70795 -0.527332
454.006 32.0224 -0.419423
687.653 81.2743 0.392207
48.3055 11.1012 -0.101177
301.444 42.727 -0.298379
381.476 26.7171 -0.427644
411.063 21.5 -0.242101
505.819 51.2632 0.404735
679.097 66.5816 0.18258
615.308 61.8039 -0.354671
227.104 35.3624 0.384368
14.0441 33.9142 0.1586
611.049 62.5583 0.119231
501.431 57.559 -0.462108
231.902 39.8696 -0.102307
626.391 50.8525 -0.103802
152.565 9.43542 0.213127
368.066 23.4516 0.310663
462.531 47.8115 0.111659
415.887 21.0062 0.20664
683.966 81.2629 -0.30353
427.417 4.49557 0.616285
50.393 25.8272 -0.288369
467.071 35.9373 0.331222
435.501 44.3727 -0.418669
696.412 61.7796 -0.225518
661.237 43.3353 0.232924
526.965 26.9458 -0.134042
688.842 69.8362 -0.418272
295.778 2.23131 -0.470672
381.537 29.6879 -0.461353
28.919 39.281 0.322875
666.794 42.2644 0.153003
580.239 25.199 -0.631867
458.681 0.743632 0.482631
127.077 4.7136 -0.338053
427.035 44.8779 0.0950412
11.9497 0.90833 0.355445
708.53 8.85704 0.163908
372.008 40.0711 0.3541
[...]
POINT_DATA 13483
TENSORS Strain_matrix float
-0.0803855 0.0244501 0.967938 
-0.00772196 0.145591 0.671822 
-0.00215456 -0.00423624 0.0308505 

0.00934289 0.0556756 -0.28002 
-0.0548124 0.000680992 -1.01542 
-0.00179374 0.00208977 -0.00197579 

-0.00837177 -0.00748403 -0.0637019 
0.00278912 0.00601376 0.0635102 
4.89528e-05 -0.000678708 0.0135654 

-0.0227434 0.0768397 -0.428869 
-0.0302641 -0.0273819 0.0926293 
0.00325175 -0.00679354 0.0498516 

-0.0896948 -0.0720454 0.222657 
0.113529 0.0411478 -0.163263 
-0.0406148 0.00867366 0.135516 

0.00179481 0.0253623 -1.25309 
-0.078205 0.010256 -0.280541 
0.000892257 -0.000604124 0.128411 

-0.00541848 0.0165343 -0.189388 
-0.0123247 0.000703326 -0.152315 
0.000273544 -0.00016943 0.0539144 

-0.0840354 0.16077 0.29725 
-0.0920701 -0.0166317 0.212314 
-0.012735 0.00139959 0.197854 

-0.484871 0.0225127 -0.506029 
-0.0427346 0.302744 0.792431 
0.0122374 -0.0262709 0.028857 

-0.0319046 -0.00293514 0.500737 
-0.020239 0.0355184 -2.05055 
0.00227673 0.000217768 0.116131 

-0.0157118 0.0145229 -0.0221795 
0.000783248 -0.007703 -0.0531728 
0.00118933 -0.00135585 0.0653957 

-0.00941998 -0.0135482 0.0471454 
0.00586061 0.00915403 -0.0175102 
-0.00604668 -0.00133272 -0.0668513 

0.010238 -0.150347 -0.124165 
0.0252676 0.00691891 -0.193176 
-0.00234038 0.000199021 0.0131029 

0.00343183 0.0179853 -0.114116 
-0.0885119 0.016231 -0.0770998 
-0.0045306 0.00588567 -0.044675 

-0.00895297 -0.0127048 0.117786 
0.00479443 -0.00543968 0.0728594 
0.000374087 0.000135796 0.0298875 

-0.0474916 -0.0631286 -0.182882 
0.0550473 0.0622825 0.369867 
-0.000110841 -0.00124005 0.00426453 

-0.00858635 -0.0325004 0.0152429 
0.017367 0.00792352 -0.0122911 
0.00171908 0.00118151 0.000329117 

-0.0214972 -0.0113721 0.00735734 
0.00179728 -0.00820018 0.0168959 
0.000265508 0.0014095 0.0480154 

-0.0556998 0.0783066 0.0830008 
-0.0257233 -0.00987745 -0.6226 
-0.0161058 -0.0185135 0.0684724 

-0.00758916 -0.0953332 0.0466859 
0.101348 -0.00754434 0.112081 
-0.00214387 0.00626958 0.020662 

0.0209045 0.0109687 -0.626108 
0.185816 0.0380358 0.29006 
-0.0456725 0.0177676 0.419118 

0.0844026 -0.308243 0.0235062 
-0.0259545 -0.0790869 -0.183975 
-0.0376366 0.0247863 0.0589263 

-0.057375 -0.0139703 -0.169294 
0.0565216 0.0313213 -0.730896 
0.0014989 0.00303521 0.0782559 

0.0131711 0.032086 -1.429 
-0.246899 0.00934336 -0.0958785 
0.00620763 -0.000852842 -0.153628 

0.000244159 -0.184925 0.76489 
-0.212254 0.0587968 0.137829 
0.011239 0.00758199 0.0804691 

-0.0502776 -0.0692521 0.0801897 
0.13522 0.053094 0.15756 
0.0249604 -0.000435335 0.174095 

-0.369288 0.0145359 -1.54136 
0.199225 0.12717 1.87422 
0.00458184 0.00112709 -0.113443 

-0.00671953 -0.0925531 -0.158078 
0.0802076 0.00649788 0.168196 
0.0021094 0.00377055 0.0456593 

-0.0138015 0.00924464 -0.0593467 
0.0144941 0.00888457 0.336934 
-0.00398988 0.00382218 -0.0894702 

0.0332512 0.178175 -0.222901 
0.0118595 -0.105774 0.260367 
-0.00194968 -0.0245726 -0.063521 

-0.0105667 0.0262755 0.233279 
-0.13205 0.117374 -0.0464203 
-0.0154842 0.000583306 -0.0430055 

-0.00713369 -0.00159863 0.0225333 
0.00452939 0.0015569 0.0282711 
-0.00092996 -0.00152312 0.0191142 

-0.00197766 -0.0437664 0.077783 
0.0808262 0.0147815 0.238836 
-0.00165869 0.000364341 -0.0236401 

-0.0925105 0.053214 -0.862823 
0.00880418 0.100179 -1.02674 
-0.00976303 -0.0362202 -0.0979303 

-0.0048981 0.0124716 0.0048159 
-0.00941878 0.00362791 -0.00671846 
-0.000342962 0.000493044 0.00496364 

-0.0804105 -0.0383678 0.64798 
0.0754827 0.0657825 0.277713 
-0.00801956 0.00590584 0.033077 

-0.108488 -0.15799 1.54628 
0.275673 0.136781 -0.997591 
-0.00301775 0.0226746 -0.210052 

0.0247858 -0.0327876 -0.0478067 
-0.0221592 -0.0578085 -0.181418 
0.00117383 -0.00126902 0.0062868 

0.0916137 0.124228 -1.02126 
0.137971 -0.11206 0.78525 
0.0260896 0.00167628 0.0704554 

-0.14083 0.0454358 1.25749 
0.0489235 0.0582017 5.61195 
0.00778354 0.000299418 0.0279153 

-0.0923108 -0.10804 -0.0281462 
0.0835858 0.0681662 -0.179585 
-0.0921946 0.108937 0.752749 

-0.0649321 0.0675197 0.608309 
0.0814671 -0.00340566 -0.309831 
0.00939749 -0.0193221 -0.0142727 

-0.0730444 -0.192451 -0.285528 
-0.126332 0.0257977 -0.104798 
0.0116409 -0.00958639 0.108319 

-0.046641 0.0461469 -0.0615644 
-0.0360508 0.0246928 -0.976483 
-0.0332146 -0.0399379 0.58278 

-0.0145831 0.00571778 -0.0209669 
-0.00178034 0.00945823 -0.0187252 
0.0034493 0.0157769 0.0264931 

-0.0105114 0.00300663 -0.00333889 
-0.00560253 0.00278285 0.00456615 
-0.000451569 0.000206607 0.00801275 

-0.490077 0.000966398 0.701436 
0.162141 0.233252 0.890959 
0.055841 0.102343 0.0790816 

0.00143369 -0.00849242 0.00627728 
0.0153107 -0.0122145 -0.00223241 
-0.000406541 0.000541425 0.0147444 

-0.228731 -0.214144 6.04466 
0.279512 0.230133 5.65204 
-0.0932402 -0.00585095 0.265675 

0.0108967 0.156389 0.349469 
-0.0154669 0.0184412 0.204178 
-0.0041493 0.013323 0.129674 

-0.00528967 -0.0151022 -0.0209581 
0.0116662 0.00126462 -0.0285768 
0.00015295 -0.000159497 0.000770917 

-0.453554 -0.410524 0.422596 
-0.111591 0.320933 0.1805 
0.000113226 -0.0167088 -0.00856174 

-0.00538402 -0.0109023 -0.0142127 
0.0104381 0.0025801 0.0132365 
-0.000336006 0.000383674 0.00490613 

-0.312625 0.0289234 -0.174695 
-0.154178 0.170314 0.105208 
-0.0492796 0.106067 0.293385 

-0.00800227 0.00340891 0.010638 
-0.00218433 0.00397927 0.0962459 
-4.10478e-05 -0.00049915 0.00416245 

0.0515249 -0.127258 -1.17368 
0.110439 -0.0229088 -1.06518 
-0.00644263 -0.00684041 0.110449 

0.0241551 0.263594 0.695678 
-0.302197 0.0616805 -0.0816376 
-0.00184564 0.000438491 -0.0346868 

-0.0217297 0.142355 -0.503847 
0.00354832 0.0232419 -0.0216952 
0.000143424 -0.0124717 0.0139453 

-0.00657734 -0.0161605 -0.0199194 
-0.00587602 0.00720975 -0.0481437 
-0.000201318 0.000862964 0.0158546 

-0.0180554 0.10064 0.20046 
-0.0634973 0.0277148 0.0172749 
-0.0136117 0.0245715 -0.178222 

-0.0956052 0.349836 0.958063 
-0.00325124 0.183113 0.457189 
-0.00451485 0.0596071 0.348051 

0.00306802 -0.00332635 0.471941 
0.0166563 0.0366898 -0.392615 
0.00584705 -0.00129927 -0.0542615 

-0.0130389 0.015029 0.00728299 
9.42314e-05 -0.00436371 0.00571377 
-8.20425e-06 -4.68584e-06 0.0218605 

-0.0935914 0.0628809 4.18379 
-0.16546 0.0968293 2.16687 
-0.00528673 -0.00155828 0.242301 

-0.0740934 0.0577744 -0.246862 
-0.0316529 0.0432956 -0.19329 
0.0126714 0.0397632 0.110964 

-0.0623284 -0.0711963 -0.132946 
0.0388153 0.112046 0.286824 
-0.000399257 0.000330872 6.07805e-05 

-0.0116196 0.029889 -0.0263697 
-0.00985147 0.00241094 -0.00873611 
2.61464e-05 0.000859931 0.00658481 

0.0227152 0.000627557 0.126158 
0.0183365 0.0194015 -0.0733631 
0.0250407 0.0592705 -0.378122 

-0.0351363 -0.00308927 0.691473 
-0.0146994 -0.0163596 -0.78423 
-0.00158561 0.000504735 0.236499 

0.0286035 -0.0247696 -0.0868572 
-0.0466283 -0.0313036 0.261404 
-0.000651317 -0.0183641 -0.0526119 

-0.00496125 -0.108137 0.104826 
0.0734817 0.0477533 -0.273046 
-0.0108254 0.00969424 -0.0335156 

-0.0152792 -0.00227839 -0.103467 
0.00112569 0.00469341 0.0291661 
0.0666367 0.0172028 0.502134 

-0.214025 0.113713 -0.19416 
0.0145782 0.145121 0.825719 
0.00458996 -0.00164873 0.0125692 

-0.105199 0.0756163 -0.173312 
0.0639349 0.157233 -0.277532 
0.00119269 0.00584865 0.774991 

-0.036804 0.0194933 -0.454164 
0.0319865 0.0252204 0.210563 
0.00353649 0.00355237 0.0631427 

0.00454744 -0.00764504 0.0712021 
0.0122221 -0.00078214 0.00364277 
0.000240175 -0.000306721 0.0134864 

0.031374 -0.138339 0.31506 
0.299825 0.0224371 0.0108161 
0.001231 -8.15584e-05 -0.0586703 

0.00120597 0.0163205 -0.0625525 
0.0719297 0.022821 -0.0897111 
-0.0449225 -0.00210252 0.656907 

0.00738858 -0.0726065 0.427294 
0.101445 0.037686 -0.0295037 
0.0184583 -0.0038414 0.0994354 

-0.0723076 0.141647 -0.454864 
-0.108364 0.0534181 -0.502445 
-0.0188716 -0.00269058 0.0841854 

-0.161516 0.136501 0.101851 
0.0589081 0.0728165 0.0468168 
-0.0115938 -0.0117874 0.0708259 

-0.0624395 -0.0584877 -0.138949 
-0.0408955 0.0835506 -0.19694 
-0.0545333 0.00647345 0.156426 

0.00296831 0.0314402 0.215641 
-0.0349963 -0.00369469 -0.0458197 
0.000131386 0.000499273 0.00290857 

-0.14079 -0.0733218 -0.0395095 
0.0108178 0.0827737 0.105102 
0.0114741 -0.0060685 0.0631738 

-0.016232 -0.0214301 0.00530735 
0.0183956 -0.0128083 0.126217 
-0.00137392 0.000142793 0.00466059 

-0.000180968 -0.00439657 0.000524332 
-0.0182181 -0.0103309 -0.0132713 
-0.00482863 -0.0383723 0.144254 

-0.239634 -0.642856 0.593812 
0.0238962 0.427699 -1.30875 
0.0264055 0.0610654 -0.326352 

-0.123559 0.0797964 -0.333314 
-0.0637655 0.133477 -0.2464 
0.00347148 0.00233549 -0.010723 

-0.0997713 0.0823703 0.183623 
0.0170532 0.0854279 -0.293269 
-0.0018055 -0.00644953 0.10879 

-0.0202618 -0.00909924 -0.634353 
-0.00344337 -0.0104037 0.507555 
-0.00655495 -0.0140144 0.627256 

-0.00819705 0.0061118 -0.00111831 
-0.0189499 0.000233745 -0.0287887 
5.74832e-05 0.000639949 0.0132925 

-0.367098 -0.0658486 -0.27975 
-0.0620773 0.223 -0.386553 
0.0217877 -0.0523696 0.140461 

-0.12726 -0.124171 -0.272239 
0.19193 0.110451 0.273617 
-0.0195786 -0.0464545 -0.352193 

-0.00292493 -0.0330944 0.0960144 
0.0336773 0.00777632 -0.047403 
-0.000324413 0.00181581 -0.023308 

0.00165607 -0.0234416 -0.13978 
0.0339853 -0.0125187 0.142735 
7.59432e-05 -0.000132319 0.006432 

-0.0672224 0.266923 -0.105418 
-0.0206336 0.08059 -0.206069 
-0.0207887 -0.12327 0.360757 

-0.0564849 0.00763735 -0.203744 
0.00175678 0.0309381 -0.370347 
0.00173469 0.0115326 0.0396275 

-0.262856 -0.732026 -0.283496 
0.0523737 0.235193 -0.759677 
-0.00751527 -0.00130841 0.0465643 

-0.0595102 -0.166835 -0.0957316 
0.0181247 0.0835595 0.780608 
0.00674978 0.00622575 -0.00224739 

-0.0198405 0.0557346 0.0592171 
-0.0922483 -0.0277208 0.360661 
-0.000520354 0.000903827 0.0548886 

-0.026958 -0.02575 0.126302 
0.000292055 0.00684577 -0.255889 
0.000924748 -0.000574628 0.0356539 

-0.165614 0.24899 -1.27353 
0.212169 0.10767 -1.10254 
-0.00328232 -0.0104487 -0.113845 

-0.0210372 0.0271095 0.333534 
-0.0423222 0.00856867 -0.630518 
-0.000278118 0.00172883 0.00184244 

-0.204773 0.0851097 -0.211594 
0.372524 0.312112 -0.0446605 
-0.0141403 0.00906793 0.0901784 

-0.0761909 -0.020586 -0.213099 
-0.215316 0.00170818 -0.228186 
-0.00780253 0.0756805 0.0202989 

-0.171842 -0.0532512 -0.675475 
0.0856483 0.0673676 0.385886 
-0.0344804 -0.0309674 0.25672 

-0.168424 0.311753 0.092248 
0.112562 -0.0389257 -0.310637 
-0.0223643 -0.00714713 0.0458495 

-0.00831177 0.0173419 0.238666 
-0.0132338 0.0150038 -0.511774 
-0.00385571 -0.000950597 -0.0525929 

-0.0147034 0.0271695 -0.00680282 
-0.00307423 0.00249206 0.00369716 
0.000590894 0.00122322 0.0179389 

0.029973 0.446168 -0.0399778 
-0.35391 0.232427 0.506059 
0.104049 0.0136691 -0.168086 

-0.0541878 0.0905284 0.229779 
-0.109235 0.0210165 6.31594 
-0.0222273 -0.00858131 0.533383 

-0.00378923 0.00107715 0.115752 
0.00536094 0.00369433 0.0619406 
0.000310718 -0.000176086 0.0173669 

-0.00249771 0.00890698 -0.0010105 
-0.00840677 0.00561067 0.0129868 
-0.00242028 -0.000628305 -0.00668989 

-0.0832186 0.0490188 0.82153 
-0.261902 0.0507691 2.11014 
-0.00351748 -0.0116972 0.0560087 

0.0465533 0.213748 0.364865 
-0.166759 -0.0355454 0.11961 
0.00554584 -0.0235243 -0.104471 

-0.0219567 0.00397716 0.444099 
-0.0223373 0.0209749 0.190512 
0.00153318 -0.00207932 -0.0227831 

-0.0160689 -0.136709 -0.0754766 
-0.0308245 -0.0557847 -0.244557 
-0.000603635 0.00056833 0.00290802 

0.0190068 -0.00821971 0.0325652 
-0.0773138 -0.0212662 -0.191265 
0.000107012 0.000246696 -0.00872336 

-0.0132711 0.0266216 -0.464844 
-0.0910071 0.017072 0.0331401 
0.00782734 0.00969996 -0.0301796 

0.000596255 -0.0298058 -0.217649 
-0.00699325 -0.0193266 0.0766226 
-0.0106816 0.00301597 -0.0198499 

-0.00901806 -0.0032548 0.0069221 
0.0146476 -0.00936334 -0.0121275 
0.000337711 0.00276544 0.0140428 

-0.00161222 -0.00558464 0.005992 
-0.00334968 -0.0100183 -0.00933976 
0.000369647 -0.00143473 0.013979 

-0.0250635 -0.0030764 0.00550858 
0.0206226 0.0244324 0.0864975 
0.00076411 0.000224161 0.0133379 

-0.0211174 -0.0157925 0.871202 
0.0345073 0.12605 -0.00657111 
0.0315305 -0.0394951 0.207454 

-0.0303774 0.0149028 -0.491264 
0.00118905 0.0411085 3.59633 
0.00360457 0.00419478 3.48379 

-0.00997788 0.0318846 -0.127146 
-0.0251854 0.00948858 0.505799 
0.000132069 -0.00113695 0.180473 

0.00957785 -0.0132302 0.0824408 
0.0138617 -0.00765253 -0.053009 
0.000988978 0.00135019 -0.0167655 

-0.0121607 0.0261474 -0.0252112 
-0.00500077 0.0232654 0.152209 
-0.00237297 0.00199291 0.0105738 

0.0163985 0.0922455 -0.0433155 
-0.078543 -0.0128307 0.108117 
0.0514834 0.00624771 0.23145 

-0.0544156 -0.0495006 -0.292386 
0.101785 0.102601 -0.0225398 
0.00406685 0.0162207 -0.0243932 

-0.104908 0.211061 -0.250053 
-0.058855 0.0849521 -0.537209 
0.00160162 0.000514685 0.0639017 

0.020698 0.0620938 -0.0472068 
-0.0629664 -0.0337203 -0.0967512 
-0.0330543 0.0673676 0.275499 

-0.142724 0.140816 0.160586 
-0.200012 0.14071 -0.756817 
0.0108778 0.00411028 0.147652 

-0.00617122 -0.10352 -0.063705 
0.0779689 0.0166656 -0.0246948 
-0.00303448 -0.000383138 0.0293676 

-0.0336528 -0.167309 -1.63255 
0.0050701 0.0462984 0.247609 
-0.00107982 -0.0162197 -0.125551 

-0.0165625 0.00353163 0.0676856 
-0.0161657 0.0240011 -0.00902372 
0.00334491 0.00168526 -0.037175 

0.00182034 -0.13965 -0.20326 
0.0189379 -0.0118808 0.227874 
-0.00374556 0.000324411 0.0404971 

-0.0424355 -0.0283047 0.699078 
0.0729483 0.0660537 0.700078 
0.00746433 -0.00239665 -0.0629834 

-0.0118653 -0.0686519 -0.0634662 
0.0311589 -0.00494248 0.0228992 
0.00567741 -0.00209556 0.0141177 

0.00903988 0.0315954 0.068588 
0.266498 0.0382617 0.205685 
5.8005e-05 0.0302977 0.141163 

-0.0987438 -0.0681628 -2.56504 
-0.128275 0.107579 -1.36779 
-0.00694674 0.0114933 0.341918 

-0.0550393 -0.0246939 0.140729 
-0.192161 0.00662287 0.159621 
-0.00747667 -0.0128038 -0.0178386 

-0.143359 -0.392198 0.370643 
0.25878 0.283091 -0.295491 
-0.0216776 -0.0339964 0.13988 

-0.00909614 0.108258 -0.218866 
-0.120946 0.0117835 0.45842 
-0.000627488 -0.00254606 0.0887934 

-0.0349509 -0.0340116 0.0606357 
0.00493014 0.0232812 0.0385316 
-4.24101e-05 0.000412411 -0.00476772 

0.014733 0.0461736 -0.0353656 
-0.0740315 -0.00618449 0.142464 
0.00306178 -0.00967426 -0.0128564 

0.00997008 0.042742 -0.0919532 
0.00901427 0.054778 -0.507544 
0.00109603 -0.00363705 0.0143704 

-0.000191797 0.0085627 0.0895818 
-0.0164301 0.00134963 0.0609034 
4.74286e-05 0.000545712 0.0106387 

0.0223222 -0.0388614 -0.192603 
0.00862269 -0.0138092 0.583499 
-0.0169354 -0.00511913 0.109739 

-0.00315974 -0.000534071 -0.00128923 
0.00709587 0.00193639 -0.0043907 
-6.53423e-05 -0.000562654 0.0018381 

0.0315482 0.00483077 1.44879 
-0.0668377 -0.00904541 -1.18504 
0.00102964 -0.00114287 0.394666 

-0.036353 0.0637755 0.602766 
-0.075736 0.00863379 0.425163 
6.9501e-05 0.00100743 0.0373576 

-0.012899 -0.00938731 1.28476 
-0.00444059 0.0293711 -1.2635 
-0.000201488 -0.000133131 0.00909742 

-0.0459311 -0.00887089 1.80431 
0.00555454 0.0323924 -0.725201 
-0.0075 0.00303782 -0.281077 

-0.00790919 0.00239696 -0.71814 
-0.0380037 -0.00165463 0.200194 
0.0183152 -0.0115835 0.951642 

-0.0524439 -0.0863433 -0.329516 
0.00194873 -0.00449674 0.887649 
0.0255274 -0.0598257 0.0356745 

-0.110505 0.072733 -0.204768 
-0.232414 0.0804473 -0.164924 
-0.00869475 0.00310634 0.0822358 

-0.041697 -0.0732552 -0.442126 
0.0212339 0.0613711 -0.778941 
0.00019561 0.00256182 -0.00157564 

-0.215997 -0.106447 1.57434 
-0.0346802 0.133325 0.011017 
-0.00434759 0.00458614 -0.121605 

-0.375119 -0.0705146 -0.060959 
-0.0760195 0.2417 -0.183456 
0.0057491 -0.00489666 0.277544 

-0.028128 -0.671901 37.0517 
0.0152443 -0.0549134 6.07068 
-0.00045962 0.00715564 -1.01674 

-0.247628 -0.0500714 0.100473 
-0.182718 0.145468 1.05647 
0.110439 -0.0263467 -0.191097 

-0.105894 -0.00475329 0.491825 
0.0346443 0.134422 0.106573 
-0.00710434 -0.017668 -0.175359 

-0.111964 -0.0890917 -3.36541 
0.0127284 0.0876083 -0.704679 
-0.00167487 0.000476105 -0.457848 

-0.145278 -0.0710889 -1.68335 
-0.0913993 0.0983577 0.438725 
0.0079067 0.00719938 -0.313892 

-0.0210131 0.00771099 0.549258 
-0.000180768 -0.00744442 0.14088 
0.00201189 -0.00215016 0.107879 

0.00523515 -0.0428588 -0.00178037 
-0.0131268 0.0225171 -0.0375111 
9.3469e-05 -0.000871936 -0.0270801 

-0.0422235 -0.00154355 0.0568156 
0.00584482 0.0190973 -0.105956 
-0.000688247 -0.00112111 0.0263945 

-0.0400826 -0.0130535 -0.281166 
0.0153014 0.023528 0.030228 
0.0322224 -0.00562418 -0.244275 

-0.0389738 -0.0905078 0.0740299 
0.0276642 -0.0120571 -0.367213 
-0.0349139 0.0104065 0.0505663 

-0.0126593 0.00559807 0.0128305 
-0.00240499 0.00595123 -0.0167498 
-0.00054489 -9.37523e-05 0.00630718 

0.091883 0.147739 0.72225 
0.0185986 -0.0643226 -0.762454 
-0.000579734 -4.9977e-05 0.0237915 

-0.0264233 -0.0196311 0.0151995 
0.00674515 0.0110734 -0.0301624 
0.000846827 0.00116625 0.0349548 

-0.175284 -0.0507406 -0.966246 
-0.0597117 0.0832041 -0.265841 
-0.0177954 0.0337782 0.355379 

-0.0223174 -0.348938 -0.288778 
0.49953 0.246041 0.329699 
0.0405287 -0.00201156 0.30526 

0.00723983 0.0380772 -1.14859 
-0.128092 0.03571 0.62044 
4.76063e-05 0.000835108 -0.0425284 

-0.0897606 -0.163337 0.150671 
-0.393857 0.104288 0.395945 
-0.00529893 -0.00315412 0.00598691 

-0.0162453 0.0114029 -0.0113493 
-0.0122053 0.00470836 -0.0134258 
0.00156128 0.00111863 0.0205784 

-0.0142272 0.102385 -0.638316 
-0.0345989 -0.00550596 0.0425377 
0.00123138 -0.00155788 0.0481389 

-0.0826036 -0.164168 0.523091 
0.313034 -0.0680388 -0.00118118 
0.010792 0.0176007 0.099426 

-0.0142892 -0.00156918 -0.0231962 
-0.018708 0.0137944 -0.0189873 
0.000150992 0.000204268 0.0101673 

0.0014229 -0.00192191 -0.0286189 
0.000992075 -0.0065015 -0.00229094 
0.00099527 -2.78705e-05 -0.0134162 

-0.238822 0.0121082 -0.818092 
0.107809 0.193133 -1.6043 
-0.00191522 -0.00951501 0.128331 

-0.0335141 0.00848746 -0.877169 
-0.00594669 0.00962294 1.39125 
0.00170774 -0.000424788 0.058511 

0.00775265 0.0446408 0.13046 
0.00130006 -0.0176631 -0.219106 
0.000294478 0.0258877 0.0484412 

-0.00467973 -0.0271161 -0.0283676 
0.0349687 0.00355442 0.0341816 
0.029542 -0.00279774 0.598541 

-0.0311086 0.0288373 0.330139 
-0.0448732 0.00109726 0.169021 
-4.5525e-05 -0.000634907 0.00564728 

0.0152067 0.0509131 -0.0551479 
0.0179902 -0.0304441 0.051416 
0.0362402 -0.00417853 0.15769 

-0.000718669 -0.0292108 -0.0442412 
0.01957 0.00928204 0.331645 
6.44849e-05 -0.000424427 0.0676462 

0.00192336 -0.240848 0.0297692 
0.377535 0.00211213 0.00381027 
-0.020658 0.00338026 0.157254 

-0.201952 -0.0134885 0.6602 
-0.111986 0.0425259 0.466106 
-0.0144501 0.00967946 0.147031 

-0.0223045 0.022867 0.0277088 
0.00150799 0.00188271 -0.0267442 
0.000743866 0.000999406 0.0485164 

-0.0010725 -0.0137722 0.0280451 
0.00283152 -0.0197726 -0.0433887 
0.00475747 -0.00713268 0.04021 

-0.0122397 -0.0921542 0.256021 
0.106583 -0.0290981 -0.0895389 
0.00855519 -0.00303138 0.356815 

-0.0737611 -0.167707 -0.351137 
0.113906 0.0935161 0.34506 
-0.0193716 -0.0188958 0.0854862 

-0.0278179 0.0660131 0.0868436 
-0.064574 -0.00674755 -0.0649791 
0.00432591 0.0188888 0.0656725 

0.0185956 -0.0605097 0.316998 
0.0408465 -0.0114358 -0.318676 
-0.00130151 0.000454678 0.119349 

-0.202875 -0.00228588 -0.224803 
0.0847175 0.146783 -0.385876 
0.0530057 -0.0443562 0.688942 

-0.21294 -0.053877 -0.0591655 
-0.111226 0.0775191 -0.138017 
0.0227095 -0.00574569 0.0873765 

-0.026192 -0.00809955 -0.110268 
0.0310644 0.0578079 0.158731 
-0.00124435 0.00527943 -0.0534345 

-0.0508751 0.0356724 0.293082 
0.0311035 0.0670417 -0.0981163 
0.0106455 -0.00349014 0.0887779 

-0.0285948 -0.021031 0.0859064 
-0.000921825 0.0283369 0.114548 
0.0289204 0.0419366 0.344251 

-0.0113667 0.162754 0.0277067 
-0.11418 0.000401584 0.0494319 
-0.00154152 0.0049999 0.0189409 

0.0911927 -0.265865 -0.0128524 
0.133924 0.0488849 -0.503575 