# vtk DataFile Version 3.0
Output file generated by Yade's KinematicLocalisationAnalyser
ASCII
DATASET UNSTRUCTURED_GRID

POINTS 13483 float
394.174 48.5103 -0.474242
486.495 98.9596 0.443014
95.5114 6.06241 -0.435475
507.771 8.84801 -0.376675
342.662 8.43793 0.537854
228.429 60.6397 -0.465824
127.217 7.25254 0.46289
381.497 15.4971 0.23232
340.181 29.535 0.206272
466.838 18.046 -0.680143
161.371 24.7806 0.106176
187.922 7.60175 -0.378109
416.146 65.6285 -0.158475
415.797 29.1003 -0.108231
111.482 18.3189 -0.464876
169.136 54.1889 -0.398024
166.701 23.2519 0.230991
208.444 14.9147 0.577563
244.125 52.5991 0.432949
361.063 8.56975 -0.552513
292.726 63.5581 0.101986
382.918 57.1533 0.360015
508.417 67.7565 -0.492833
446.008 68.8092 -0.431645
317.459 28.3816 0.336721
185.412 62.8252 -0.149668
334.204 42.0498 -0.466685
393.449 22.0154 0.286661
35.9782 19.7273 -0.490294
456.298 58.335 -0.347754
330.369 8.08917 0.501205
14.1782 26.98 0.323796
500.904 100.077 0.244217
339.243 2.47554 0.489637
63.9642 50.6894 0.141395
346.883 47.2061 0.397701
356.862 25.0671 -0.573346
247.321 23.7948 -0.260513
354.912 40.8655 -0.385743
250.006 53.976 -0.389988
175.396 18.9229 0.41386
295.721 57.745 0.0691434
438.562 12.1853 -0.165451
150.942 13.3516 -0.531463
42.7431 9.10748 -0.108982
52.8419 11.703 -0.25398
443.25 10.784 0.684937
18.0601 15.9844 -0.290978
384.196 75.2409 0.379231
432.882 57.3896 0.355367
128.143 46.7617 -0.308968
483.912 82.6377 -0.113433
26.9014 35.5669 0.108779
368.518 4.40937 0.659102
115.699 8.86458 -0.689624
389.479 48.3097 0.448385
338.732 36.4367 -0.144258
144.02 1.00054 0.343105
24.7561 2.83547 0.297487
252.374 18.6122 -0.391969
385.835 91.2505 0.132227
317.097 60.8001 -0.175823
280.678 1.00843 0.279641
451.289 13.0485 0.727019
18.5579 53.045 -0.245489
198.388 47.8994 0.330801
465.54 10.717 -0.392498
432.18 100.608 -0.350707
294.865 11.8829 -0.646196
381.414 9.87625 -0.395481
472.953 48.7594 0.434938
105.778 8.04539 0.287323
336.859 45.3423 -0.151478
329.545 21.077 0.117607
214.624 19.3423 -0.426605
15.5138 17.9553 0.282412
493.876 76.2033 -0.30991
246.25 60.0589 -0.288128
432.347 51.281 0.341569
447.19 22.2414 -0.377195
504.229 25.7213 -0.236155
317.81 66.6349 -0.166466
77.75 51.7419 0.277229
435.217 76.6189 -0.21603
414.728 78.6401 0.0999702
513.649 74.3586 -0.10773
498.104 1.8817 0.609
213.808 40.5822 0.415689
424.846 5.62435 -0.204944
19.8019 8.41874 0.612965
104.336 49.3292 0.155357
351.831 17.3598 0.187438
491.721 63.7982 0.46642
149.39 47.7552 -0.220907
36.2479 47.3662 0.259311
338.38 1.04739 0.188718
173.799 10.1741 -0.472348
471.47 87.9254 -0.24705
486.693 59.7187 0.238917
257.472 33.571 -0.281373
124.947 37.9074 0.447784
361.019 73.2334 -0.400693
271.471 29.3955 -0.473684
288.625 50.6149 -0.100272
270.852 17.3009 0.396183
369.498 24.9463 -0.0924506
512.937 12.5394 -0.37616
67.0197 46.707 -0.391945
241.66 5.79573 -0.238884
376.924 16.8184 -0.495703
272.208 75.576 0.444646
20.1257 30.3629 0.469281
24.5911 7.59972 0.457965
368.396 64.3443 0.426778
339.324 38.5552 0.18095
15.2201 48.9784 0.475334
76.5385 41.4493 0.210476
236.038 19.3815 0.331084
399.801 27.9227 -0.162158
322.983 71.9332 -0.316635
479.012 6.90656 -0.379172
470.858 6.0718 0.275474
274.776 61.0155 0.101946
413.506 49.8732 -0.138438
174.744 24.2472 0.575353
238.369 5.77105 0.624795
80.9433 35.3634 0.32748
92.4315 26.9679 0.281218
357.84 66.7605 0.0768289
221.876 23.1742 0.608987
454.434 75.9574 -0.0971707
439.171 96.955 -0.103281
332.076 35.489 -0.408476
498.18 44.0475 0.325029
297.332 37.0733 0.254249
205.11 30.8255 -0.354513
431.275 76.1313 0.276246
207.883 41.2121 0.366357
389.958 13.7451 0.286466
246.4 54.8379 -0.198504
350.278 13.1371 0.630144
261.303 48.4153 -0.0904189
301.488 26.8434 0.122362
235.128 66.1906 -0.432336
145.944 46.5182 -0.124763
490.79 97.5691 -0.144385
511.17 14.9505 -0.376795
5.90306 13.1475 -0.414055
303.229 33.5713 -0.444462
30.6711 28.4767 0.0818968
269.796 51.3337 -0.49611
282.422 39.2434 -0.278578
57.4654 14.44 -0.645189
42.1956 44.0976 -0.462229
169.318 18.8222 0.507581
385.851 83.1809 -0.383454
390.302 22.9945 -0.615619
59.4852 25.0275 0.568041
445.65 73.1947 0.455984
492.605 25.4407 -0.647267
426.362 93.6331 -0.510278
450.874 2.14634 -0.566132
366.715 45.4728 -0.471503
382.604 58.8475 0.483568
350.546 24.6025 -0.5339
505.998 6.99244 0.513569
173.598 37.6481 0.116366
109.126 41.0791 -0.206878
181.525 8.8424 -0.669608
72.9641 5.10142 0.320993
50.0506 14.7633 0.211081
212.587 50.2333 0.29658
13.7027 28.6628 -0.357117
376.805 38.3332 0.494041
389 74.9956 0.218686
324.938 33.1139 -0.414547
498.858 78.6714 0.362199
288.64 10.3033 -0.194622
302.642 51.6096 0.410572
370.937 11.4172 -0.234262
17.3155 29.523 -0.437176
390.642 6.01912 0.590205
373.122 18.3192 0.476444
160.01 27.7988 0.501675
300.15 23.6783 0.233357
226.616 6.50773 0.605008
279.088 27.8999 -0.405752
474.04 76.3834 -0.121751
148.734 41.7274 0.480745
495.551 15.3303 0.453483
477.417 75.5022 -0.340895
276.722 18.611 0.188871
462.299 3.32838 0.570224
396.797 44.1919 -0.38719
475.092 27.4106 -0.547647
302.987 59.58 0.265995
345.502 13.1316 0.621402
316.916 78.7991 0.235519
314.418 16.1126 -0.204675
429.887 94.8549 0.267435
423.241 80.9612 -0.290469
146.12 59.783 -0.345875
502.205 25.0974 -0.24959
384.201 58.4879 -0.28975
8.34395 22.2084 0.170139
289.18 38.1997 0.362082
144.824 39.0532 -0.40205
78.8123 53.3411 0.298896
493.154 55.0526 0.522994
421.627 94.0804 0.238241
234.006 33.7699 0.377465
363.973 21.4475 0.440002
67.9616 53.0858 -0.177216
192.205 38.7069 -0.46645
375.13 44.7771 0.352006
338.439 24.8385 0.474696
192.999 0.925443 -0.474448
362.652 80.9143 -0.36857
351.621 64.7118 -0.537542
327.259 66.5012 0.390265
347.991 2.23875 -0.655849
455.874 28.6195 0.394655
141.411 20.3143 0.254816
334.504 69.384 -0.408287
372.733 78.2289 0.155212
55.1188 0.902983 0.406712
186.365 6.23225 -0.195045
510.698 18.6716 -0.27576
503.351 27.5177 -0.576191
515.64 28.8492 -0.531205
219.861 8.90076 -0.273827
475.217 37.4756 -0.521279
293.116 69.0754 0.325629
315.573 0.840548 0.619928
419.337 80.4258 -0.402555
19.3169 36.8167 -0.306865
246.275 63.5504 -0.491258
187.108 4.42139 0.496967
502.398 96.6647 0.171709
456.36 90.4853 -0.0270656
210.387 16.2011 0.371823
428.623 64.7181 0.0857632
376.279 10.0505 0.269952
370.252 20.2722 -0.520588
76.1649 19.0302 -0.536993
220.488 0.948065 -0.245102
251.826 2.15887 -0.425012
11.9234 7.627 0.647912
3.54205 38.4708 0.248614
133.074 21.7245 0.366553
56.4823 49.6204 -0.26789
52.8559 36.2806 0.302264
300.126 21.9522 -0.419956
261.05 51.9493 -0.489057
483.188 84.8039 0.1096
17.6529 5.12636 0.323953
52.9587 7.85727 0.142081
392.972 78.9931 -0.139529
212.542 0.886821 0.480601
260.649 27.9498 -0.13748
175.858 6.15827 -0.441873
423.946 52.9555 0.179145
316.388 9.17629 0.604384
476.522 32.6371 0.467859
409.166 54.1415 0.357894
435.896 44.1985 0.111064
294.827 41.0137 0.516105
89.3041 54.2349 -0.0762616
357.147 72.6122 -0.0867206
479.255 13.8691 -0.209905
186.738 48.5507 -0.231055
26.2957 21.666 -0.160181
246.282 14.7941 0.545611
90.0133 46.2766 -0.486669
213.126 60.5739 0.182225
303.122 4.68279 -0.450067
494.553 67.8841 -0.413012
446.156 3.38137 -0.679378
241.851 4.05082 0.543678
224.359 36.8518 0.185305
315.901 75.6435 0.208916
62.2308 8.72258 0.610402
151.255 66.4308 -0.378118
488.533 59.4995 -0.375512
348.75 82.5302 0.0703252
153.853 62.6992 0.253178
116.692 59.0135 0.314674
513.465 62.5259 -0.398372
512.872 14.4495 -0.575126
417.758 5.86868 -0.574265
148.846 39.0983 -0.104692
365.565 51.5504 -0.115802
368.9 51.8352 0.301789
293.338 8.19728 0.143354
334.428 0.803671 0.31213
477.522 89.8048 0.469448
71.6777 38.1885 0.206983
429.334 43.1653 0.534229
200.883 23.9061 -0.420638
8.20618 2.4774 0.405845
107.585 38.1419 -0.225697
54.887 29.7134 -0.467386
453.302 67.9942 0.334052
508.016 98.4467 -0.163051
144.385 44.9131 -0.166826
512.527 24.0947 0.5002
35.7502 49.4866 -0.278444
76.1313 39.524 -0.148235
424.209 30.8098 -0.436186
292.715 24.2692 -0.598236
354.679 26.9803 -0.130101
187.2 46.5692 -0.18854
416.674 16.1502 -0.552806
514.544 12.4055 0.588507
22.817 38.1648 -0.255402
196.695 12.0451 0.187598
170.826 22.4434 0.222012
1.2666 43.0726 0.146587
171.398 20.6433 0.434009
165.322 24.828 0.151783
166.574 43.2906 0.270905
109.853 31.1927 -0.121224
373.833 31.2248 -0.340755
137.609 15.6412 0.502006
498.554 97.5373 0.230773
144.98 5.22384 -0.691943
37.762 50.7885 -0.378782
465.494 81.0124 -0.313842
211.236 42.8091 0.383362
435.815 54.9756 -0.491225
499.894 61.7713 0.468501
219.342 10.9002 0.259004
466.713 49.4413 0.446509
240.076 2.56602 0.691125
294.172 34.8515 0.383246
442.901 38.5246 -0.479148
84.4389 11.7093 0.577451
335.947 4.18685 0.663168
480.153 33.9238 -0.198828
68.165 7.88003 -0.331336
206.334 20.0091 0.208199
301.628 17.2199 0.364711
508.41 2.84077 -0.61231
285.12 1.60477 -0.671818
132.785 53.8684 0.273023
482.442 13.1838 -0.553227
109.525 43.1559 0.185546
202.828 46.7475 -0.386316
286.292 29.5335 0.283963
392.215 15.9185 -0.365711
278.523 13.1061 -0.659736
321.596 42.19 -0.483343
486.829 100.461 0.378907
36.8507 14.3525 0.13129
221.29 65.8005 -0.269923
275.308 45.9617 -0.371668
288.042 28.7509 -0.286925
342.003 64.4036 0.367115
479.871 83.2464 -0.198565
426.755 78.8235 -0.357394
175.786 48.8447 0.387262
12.1291 40.2666 -0.157542
425.096 81.841 -0.121631
345.264 70.6458 0.444209
182.837 53.5587 0.0902452
438.292 62.4725 0.124579
125.237 10.6207 -0.246382
265.126 36.0233 0.2855
317.692 76.7323 0.112452
292.858 27.2231 0.212494
482.74 100.328 -0.290417
303.831 6.00007 0.602047
38.0752 35.2891 -0.286641
325.496 52.9112 0.377013
305.011 54.5041 0.357287
492.288 77.5398 0.24278
465.754 53.544 0.275412
370.038 35.5638 -0.147573
487.131 89.28 -0.42207
212.544 2.13074 -0.540867
275.305 48.4812 -0.511213
18.6229 47.9239 0.310868
471.167 51.7702 -0.155202
404.52 36.7416 -0.594371
323.662 2.71901 0.669811
103.059 5.10945 -0.432359
299.115 60.7968 -0.100239
10.7226 0.882867 0.325433
503.777 10.0838 0.129067
262.538 56.1248 0.407179
422.769 8.03969 -0.411629
[...]
POINT_DATA 13483
TENSORS Strain_matrix float
-0.0508599 0.0218787 -0.312276 
0.0364682 0.0805074 -1.23354 
-0.0040084 -0.0048954 0.196033 

0.0165552 0.00980108 0.392795 
-0.00927655 -0.00771861 -0.982306 
-0.000654219 -0.000551145 0.0107425 

-0.00457336 -0.0273871 -0.0286107 
0.0125506 0.000180616 -0.0123079 
-0.000452263 -0.00174308 0.0144415 

-0.00969649 0.0633476 0.0744886 
-0.0914996 0.00867426 -0.118871 
0.013309 0.00654018 0.0720386 

-0.0352005 0.101247 0.100224 
-0.16384 -0.0266051 0.183485 
-0.00827996 -0.00597353 0.0375683 

0.00612667 -0.468801 0.523208 
0.321126 0.184261 -2.14926 
-0.0123614 0.0117722 -0.0184259 

-0.05201 0.0321209 0.406855 
-0.031632 0.0079906 0.34607 
-0.0115043 0.0229431 -0.0849528 

-0.000586716 0.0120928 0.00062054 
-0.0224911 0.00810124 -0.00400361 
0.00175752 -0.000446427 -0.00256735 

-0.0932733 0.0184435 0.451598 
-0.171593 0.0860858 0.215788 
0.00953898 -0.0297183 0.145232 

-0.0279934 -0.0842938 0.897668 
0.0626395 0.0936355 -1.74574 
0.00740145 -0.00138461 0.0788889 

0.151632 -0.0619003 0.0207579 
-0.0494563 -0.0585161 -0.35245 
0.0253436 -0.0110142 0.467448 

-0.127345 -0.260592 -0.081965 
0.0899257 0.173921 0.264784 
0.0771942 -0.102668 0.266943 

-0.052629 -0.091088 -0.00995969 
0.197403 0.0117646 0.166842 
-0.00129598 -0.000450924 0.035015 

-0.0046261 -0.021549 -0.00815547 
0.0329128 -0.000239707 0.000950475 
0.000640758 0.00037876 0.0114812 

-0.0264169 -0.0632399 0.486752 
0.0418227 0.0284165 -0.489188 
-0.000652446 0.000521233 0.0602915 

0.0717035 -0.0263189 0.647538 
-0.0729931 -0.0368197 0.39651 
-0.00965067 0.00686945 0.408668 

-0.289168 0.235945 0.638281 
-0.508947 0.31566 -0.393824 
0.0126809 0.0647594 0.129112 

-0.0161562 -0.0149623 0.0128453 
-0.10132 0.00927095 0.0948734 
0.00783009 0.000908452 0.053386 

-0.733359 -0.219026 1.47454 
0.182773 0.331542 -1.1604 
0.00432091 -0.0230566 -0.107915 

0.00246259 -0.0270664 0.00748054 
0.0257103 -0.00592019 -0.0148487 
-0.00379911 0.000198524 -0.0054678 

-0.367724 0.421599 -0.620049 
-0.476123 0.445576 0.0544462 
-0.0263021 -0.00461094 0.295116 

-0.108775 -0.152481 0.0315268 
0.0562763 6.23385e-05 0.37034 
-0.0092881 -0.00760497 0.0320604 

-0.0151176 0.0134287 -0.434823 
-0.0410976 0.00377359 0.357256 
0.00057408 -0.00175548 0.138966 

0.00569037 -0.0225766 0.136227 
0.000161602 -0.0641122 -0.324344 
0.000630873 0.00459427 0.09191 

-0.0133294 -0.120011 0.0504474 
0.152528 0.0468922 0.0175959 
-0.0171732 -0.0161315 0.02903 

0.0131809 -0.0177988 -0.0045601 
0.0376649 -0.00884532 0.0467156 
0.000886857 0.000311706 0.00825891 

-0.0110787 0.034227 -1.37266 
-0.0793976 0.0215577 0.820931 
-0.00169279 0.00348923 0.136975 

-0.0254149 -0.0556848 0.00199066 
0.000496426 0.00547972 -0.0122078 
-0.000461425 -0.00414642 0.0257602 

-0.245808 0.124333 0.389287 
0.0500965 0.168823 0.530933 
0.00150499 0.000790266 0.0406215 

-0.085427 -0.200565 0.78706 
-0.0130557 0.083795 -0.223042 
-0.00398722 0.00119924 -0.0298098 

-0.200237 0.0761511 0.363507 
-0.244773 0.129455 -0.375591 
0.00185486 0.0232154 -0.148463 

-0.00722523 0.0138784 0.042405 
-0.0154506 0.0229167 -0.0404349 
-0.00991422 -0.000782696 -0.0104964 

0.00371279 0.00149326 -0.182144 
0.0053853 0.00391142 -0.0521535 
-0.00058242 0.000332983 -0.00554364 

-0.114256 -0.169094 0.206469 
-0.00630802 0.133368 -0.103796 
-0.0525593 -0.0258598 0.104475 

-0.10556 -0.145557 0.0267725 
0.344618 0.0680859 0.226611 
-0.000312879 0.033368 0.309799 

-0.0317174 -0.365561 -1.33934 
0.201516 0.0750769 0.216015 
0.012675 -0.0141316 -0.0193173 

-0.0742648 -0.0445752 1.11081 
-0.0968915 0.0252319 0.289367 
0.0028891 -0.0008744 0.26461 

-0.125731 -0.00322712 -0.419586 
0.0631941 0.00782444 -0.0665142 
0.00777944 0.0320839 0.0127542 

-0.0470537 -0.0110274 0.297106 
-0.0346491 0.0580758 0.66441 
-0.00375202 -0.00306543 0.0383724 

-0.61901 -0.0888263 -1.23383 
-0.886821 0.331706 -0.23868 
-0.0184438 -0.0752802 -0.018313 

-0.236457 0.0248182 0.702799 
-0.235575 -0.0142704 -0.336339 
-0.0135919 -0.0105899 -0.0223652 

0.0272402 -0.561093 0.714812 
0.118993 -0.0824231 -1.61193 
-0.0082516 -0.0108976 0.0532695 

-0.0440727 0.0730264 -0.0419273 
-0.0588932 0.0521144 0.106013 
0.000570482 0.0119806 0.0300415 

-0.180294 -0.482275 -4.91239 
0.471301 0.334854 4.64946 
-0.00274121 -0.00139232 0.113841 

-0.186494 -0.0449833 -0.0405975 
0.248002 0.163087 0.441482 
0.0199662 0.0384011 0.213472 

-0.317321 0.025187 -0.244326 
-0.378266 0.211123 0.130781 
-0.0242964 0.0279805 0.204997 

-0.0336304 0.0195947 1.843 
0.00438398 0.0157315 0.257666 
-0.00140389 -0.00186264 -0.0905783 

0.0105053 0.0153964 -0.0826289 
0.0420408 0.00745432 0.0261899 
0.0130291 -0.00273248 -0.0374931 

-0.0461766 0.108974 -0.0427905 
0.0333346 0.0236977 -0.620186 
0.00718825 -0.0514782 0.269338 

-0.0104659 -0.164551 -1.00663 
0.0529995 -0.00344162 -1.10117 
-0.00196487 -0.0255179 0.0474718 

0.101312 -0.440547 -1.46231 
0.273832 0.0247129 -0.327032 
0.00213619 0.000384562 -0.0166229 

-0.0281624 0.13665 0.606155 
0.0430764 0.14537 0.565841 
-0.0353602 -0.0242976 -0.0437166 

-0.124676 -0.110333 0.531825 
0.0476781 0.128574 -0.0445465 
0.00797515 -0.00859086 0.0578675 

-0.119422 0.0589532 0.464202 
-0.0414875 0.126794 1.43007 
-0.00585963 -0.000796134 0.0337071 

-0.112263 -0.108346 22.2894 
0.0299712 0.102279 2.27874 
0.000274917 0.0014592 -0.0492252 

-0.13588 -0.0177658 0.669619 
-0.0662175 0.078721 0.945556 
-0.0075455 -0.000261569 0.251762 

-0.0271314 -0.0462503 -0.466064 
-0.0148389 -0.00492063 0.293499 
0.00209242 0.00202125 -0.0164118 

0.00145615 0.164276 -0.0375424 
0.00832961 -0.00116868 0.0279831 
0.000202191 0.0120751 0.0230598 

-0.231693 0.128461 0.130863 
-0.221963 0.126617 0.0895464 
-0.0173316 -0.0111858 0.0831473 

-0.0839981 -0.144795 -0.0841732 
0.0435256 0.0692184 -0.311309 
0.0186747 -0.0511013 0.106993 

-0.0988121 0.282849 1.00705 
0.0181883 0.092111 0.571041 
-4.86261e-05 0.00196092 -0.0168789 

-0.304577 -0.0882161 -0.331761 
0.313341 0.222623 0.250832 
0.00195915 0.000117419 -0.018684 

0.00278544 -0.212423 1.54547 
0.00138433 -0.0170609 -0.0272014 
-0.00873739 -0.00978133 0.0533717 

-0.0551144 0.0199118 9.82108 
-0.0123596 0.0278665 1.97725 
-0.000133162 0.000341394 0.565036 

-0.0168144 0.0598014 -0.0282533 
-0.081936 0.0193824 0.137459 
-0.00135661 -0.000873271 0.00663719 

-0.0578498 0.261306 0.606929 
-0.171964 0.0283572 0.101163 
0.0337866 -0.0117834 0.14055 

-0.0282784 0.00335703 -0.0297595 
0.0343088 0.00683751 0.00378833 
0.00356783 0.00260481 0.00994081 

0.00754053 0.0487536 0.00451311 
-0.0252723 -0.0295959 0.492425 
-0.00116696 -0.00185043 0.00226421 

-0.0204404 0.0149039 0.280039 
0.0244642 0.0128421 -0.485601 
-0.00107449 0.00128848 0.0322503 

-0.000888027 0.0101703 -0.00170358 
-0.0111611 0.00262213 0.00412036 
0.000401355 -0.000471505 -0.000743814 

0.00192478 0.0220262 -0.0141173 
-0.0317958 -0.0505467 -0.0663328 
-0.00406454 0.0071909 0.0611013 

-0.00844005 -0.00930076 -0.0132492 
-0.00818723 -0.019569 -0.0116393 
-0.00309158 -0.00405587 0.0456626 

0.0207547 0.115712 -0.0534 
-0.0974161 0.0110146 0.26502 
0.00244403 -0.00763019 -0.055066 

-0.00364475 -0.0368334 -0.0842261 
0.0810975 -0.0470638 -0.0174339 
-0.0047252 -0.00110564 0.0869689 

-0.105438 0.099439 0.917565 
-0.159818 0.088314 -0.68547 
-0.0131268 0.00689763 -0.0429566 

-0.0292948 0.015088 0.0781627 
0.0113254 0.0178255 0.0164707 
-0.0138107 0.00568213 -0.0131177 

-0.0168508 0.035634 0.00441707 
-0.010025 0.0133248 -0.0494809 
-0.000752279 -0.000872922 0.0102423 

-0.163894 0.148079 0.168756 
-0.173354 0.0905816 0.540582 
0.0294423 0.0329539 0.122477 

-0.0165086 -0.00871513 -0.222253 
-0.0285101 -0.00581874 -0.205861 
0.00110631 0.00705935 0.0931555 

-0.0947033 0.137105 -0.183626 
-0.0709577 0.0238945 -0.121546 
0.018973 0.0317989 0.185653 

-0.0133069 -0.00917993 0.00877178 
0.0115952 -0.00250893 0.00387788 
0.00154658 -0.00112235 0.00609205 

0.0146916 -0.0528319 0.252331 
-0.223263 -0.0474944 0.376583 
-0.0227648 0.0366174 0.199871 

-0.153825 -0.23467 -0.535672 
0.191991 0.0267843 -0.215896 
0.00295465 0.0023702 0.0512578 

-0.00466649 -0.0218283 0.192633 
0.0641448 0.00390337 -0.0354669 
0.0010865 0.00032517 0.0129792 

-0.0900125 -0.0705227 0.362554 
0.00618084 0.0805755 -0.175851 
0.0164457 -0.0279826 0.0512807 

-0.0176025 -0.0148407 0.0116457 
0.0129084 0.0229154 0.0573105 
-0.000911049 6.35751e-05 -0.0286142 

-0.0341774 -0.0673373 0.323517 
-0.00916866 0.0861691 -0.464309 
0.00266228 -0.00742499 -0.0366967 

-0.0506483 0.00807875 -0.088721 
-0.174765 0.0108891 0.208663 
0.00884447 -0.00059802 0.0158717 

-0.369809 -0.460836 0.3616 
0.243523 0.376088 -0.195474 
-0.00300547 -0.0147075 0.0683929 

-0.0453278 -0.0849423 0.760428 
0.094076 -0.00556908 -2.5976 
-0.0144057 -0.0150109 -0.190275 

0.244966 -1.04757 -1.78177 
0.389614 0.35822 -0.295282 
0.00394766 0.0170911 -0.0644592 

-0.0487167 0.0177329 0.292558 
-0.126607 0.0872274 0.189584 
-0.0016626 -0.00992548 0.0291761 

-0.0642698 -0.0243863 2.06117 
0.0713579 0.05423 -0.448702 
0.00420604 -0.000167621 0.201396 

-0.0536413 0.00529707 0.378094 
-0.0204346 0.0139114 -0.00936108 
-0.0138466 -0.0060054 -0.0694138 

-0.0217859 -0.0855451 0.395591 
0.0762273 0.0828281 0.418515 
0.00135432 -0.000378025 0.0300883 

-0.135417 -0.0738495 0.69209 
-0.0219037 0.143362 -0.169723 
-0.0558864 0.0662808 0.199891 

-0.0106388 0.0301555 -0.409557 
-0.0477494 -0.00451476 -0.6388 
-0.00703466 0.0048785 0.16848 

-0.0666548 -0.193434 0.790716 
0.156602 0.0645914 -0.0840527 
-0.00571651 -0.0177448 0.200689 

0.00306163 -0.139848 -0.819012 
0.0111892 -0.030175 -0.220723 
-0.00633046 0.00186267 -0.0467679 

-0.0762023 0.0626919 -1.08309 
0.0269071 0.143338 -0.732357 
-0.0162988 -0.0136939 -0.0908548 

-0.502523 -0.470626 -3.65182 
0.361724 0.566805 3.10969 
-0.0137144 -0.00688506 -0.0749258 

-0.108827 0.0105617 3.66276 
0.152222 0.186575 -1.27168 
-0.0481574 0.0282237 -0.771378 

-0.0909756 -0.112963 1.26543 
0.0459303 0.0618016 -0.416967 
-0.00553301 0.00342794 0.0332805 

-0.15738 -0.0475384 0.356654 
-0.206265 0.162471 -0.112589 
0.0011324 -0.00333812 0.00964419 

-0.0407263 -0.00274987 0.146122 
0.0358154 0.00847733 0.0263642 
0.00401641 -0.0438042 -0.0630182 

0.000151699 -0.0195982 -0.0241921 
0.0166936 -0.0196261 -0.033849 
0.000327797 -0.000352538 0.0309263 

-0.0146242 0.0142849 0.0078612 
-0.0256635 0.0123406 -0.0121143 
0.00129669 0.00165916 0.000526396 

-0.0594691 -0.159355 -0.225136 
0.269638 0.0394887 0.707746 
0.0625653 -0.0216012 -0.265013 

0.0125849 -0.00234196 -0.00424437 
-0.00127666 -0.0298644 0.00125312 
0.000233878 -0.00436033 0.0304069 

0.00151188 -0.0111791 0.0131227 
0.00677983 0.00166924 0.00931231 
0.000243833 0.000646549 -0.00629805 

-0.190944 0.10578 -2.90467 
0.0071094 -0.0616669 -4.64021 
0.0136314 -0.0294176 0.328185 

-0.0135246 -0.0318125 -1.03569 
0.0790086 -0.000424904 -0.65742 
0.00249911 -0.00148364 0.102677 

-0.123584 0.0148053 -0.0467164 
-0.0875588 0.100593 0.512935 
0.0233787 -0.0047407 0.13365 

-0.153063 0.016954 0.808929 
0.0704498 0.0428672 -0.50287 
0.00152403 -0.00353161 0.0402404 

-0.0722085 0.00702205 -0.147511 
0.00246206 0.018282 -0.0627362 
-0.0015645 0.0467188 0.20014 

-0.0503642 0.0180675 -0.270737 
0.0720718 0.100103 -0.79595 
-3.23414e-05 0.00852142 0.151293 

-0.147801 0.845574 -0.274927 
-0.0791606 0.156082 -0.0989385 
0.000507281 0.00113007 0.00658823 

-0.00769456 -0.0620776 0.209962 
0.0543141 0.0499891 -0.0904484 
-0.00173065 -0.00118385 -0.0121776 

-0.259189 -0.30635 1.00885 
0.0789906 0.300103 0.100432 
0.00122505 -0.00204522 0.0401238 

0.0183383 0.0454749 -1.15176 
-0.143716 -0.00677938 -0.516543 
0.0094091 0.0012661 0.00906739 

-0.0491217 0.138947 0.118184 
0.0123524 0.114879 0.0583966 
-0.00477805 0.00234577 -0.00551538 

-0.0307668 -0.001212 0.00593792 
0.0197833 0.013742 -0.000349941 
-0.0027327 0.000935845 0.0300337 

0.0346261 -0.12442 0.199628 
0.0405069 -0.0504451 -0.112294 
0.000535159 0.0017646 0.0235022 

-0.0218785 -0.151078 -0.0374256 
0.131809 0.00664357 0.0826426 
0.00182428 0.00212996 0.0571376 

-0.277343 0.192485 1.13507 
-0.30255 0.363268 4.568 
-0.00550605 -0.00473775 0.014177 

0.0102652 0.00083403 0.0180353 
-0.0160238 -0.0342371 -0.175619 
-0.00116714 -4.26027e-05 0.0442608 

-0.118502 -0.0981123 0.708067 
-0.117927 0.189048 0.878838 
-0.00485298 0.017127 -0.106721 

-0.00825346 0.0184204 0.0641924 
-0.0505146 -0.0391679 -0.036418 
3.77384e-05 0.00118505 0.0419878 

-0.0428067 0.0165481 -0.106722 
-0.0679725 -0.0149019 0.0400492 
-0.00271825 -0.00487638 0.0181647 

-0.0474787 0.113754 -0.463738 
-0.120051 0.0254777 -0.136525 
-0.000668788 -0.000215699 -0.0161194 

-0.0537186 -0.0578989 0.366895 
-0.106887 -0.0323181 0.0138436 
-0.0101231 0.0102963 0.0377274 

-0.0245384 0.0222783 0.0540365 
0.00549048 0.0148879 -0.0717949 
-0.0147621 0.00608351 -0.0356866 

-0.0837031 -0.119274 -0.973933 
-0.124604 0.0112014 0.140757 
0.00747666 0.00321889 0.0761864 

-0.00102371 0.0588143 -0.00993166 
-0.0363074 -0.0222586 0.0644392 
0.00757099 -0.00362475 0.0430587 

-0.105014 -0.0323239 0.48948 
-0.0962838 0.11484 0.206854 
0.0154851 0.0209362 0.0710594 

0.0621257 0.0915208 0.203709 
-0.0686984 -0.201471 0.207613 
0.00376906 -0.00767565 0.149064 

-0.128458 0.0761628 -0.378914 
-0.145687 0.133096 -0.693032 
0.0251504 0.0747644 0.213095 

-0.294375 0.321928 -0.150983 
-0.0798223 0.188883 -0.364873 
0.00815394 0.0383936 0.00429208 

-0.00828511 0.0134828 -0.000918999 
0.0182889 -0.000248633 0.0158859 
0.00182554 0.00540156 -0.000977152 

-0.129152 -0.00150803 -0.747779 
-0.0898325 0.216424 -0.18516 
0.00429233 0.00433876 -0.0159429 

-0.0399149 0.0401948 0.735539 
0.00996356 0.0426104 0.0442906 
0.0111848 -0.00576194 0.15224 

-0.0673406 -0.090296 0.0394321 
0.0874603 0.0820949 0.0847176 
0.000703175 0.00553441 -0.0167343 

-0.0373015 0.0923009 -0.232038 
-0.0405515 0.0589128 -0.167027 
0.0144952 -0.00397276 -0.00824091 

0.103289 -0.130646 -3.19196 
0.242029 -0.114442 5.65154 
-0.00666798 -0.0222349 -0.185441 

-0.0375604 -0.0390958 0.282329 
-0.0701765 0.0371494 -0.555559 
0.00706445 -0.0182431 -0.00881156 

0.00943444 0.0243216 -0.0133772 
-0.0576146 -0.0113764 0.125679 
-0.0202248 -0.0075437 -0.0398486 

-0.0271399 0.0142109 -0.0157979 
-0.0254952 0.00893115 -0.013905 
0.000664896 0.00204893 0.0107434 

0.0408041 -0.0171426 0.809666 
0.0447844 0.00359908 0.790357 
-0.0349161 -0.00123403 0.115893 

-0.0627764 -0.0707222 -0.477394 
0.0805279 0.0675992 0.311429 
-4.43171e-05 -0.00293045 0.0260218 

-0.236116 0.00589885 -0.530648 
0.223383 0.174833 -0.269289 
0.0260898 -0.0249839 0.17325 

-0.00911086 -0.0381709 3.94793 
0.114124 -0.0033229 3.90975 
-0.0143454 -0.00535768 0.0348193 

-0.150316 0.0527861 1.87495 
-0.251328 0.0748396 0.81019 
0.00154508 0.0191809 0.116927 

-0.126047 0.0781819 -2.08621 
-0.109345 0.0892977 -1.97056 
-0.00246324 0.00395041 0.00439947 

-0.0671207 0.10783 -0.576043 
0.0195952 0.0549816 0.328499 
-0.00442303 -0.000537767 0.17531 

-0.175016 0.490206 -3.46816 
-0.368301 0.373944 -0.554269 
0.0368584 -0.0385214 -0.15144 

-0.0990378 -0.362828 -0.479051 
0.148041 0.0202852 -0.728967 
-0.074214 -0.0816772 0.0781128 

-0.0129316 -0.139708 -0.947717 
0.031328 0.0571525 -3.50003 
0.00139938 -0.000939337 0.312982 

-0.0757532 0.144129 -1.16634 
-0.0861452 0.066578 -3.1386 
-0.000347464 -0.000337401 0.111 

-0.0105013 0.0157186 0.0459083 
0.00250228 -0.00676184 -0.0883691 
-0.00114359 -0.000247884 0.0761157 

-0.10564 0.185874 0.014184 
-0.190169 0.221714 0.0980764 
0.0314973 0.00122107 0.0994877 

-0.076918 0.210065 -32.5851 
0.0212038 -0.152402 6.37473 
0.0003253 -0.00158834 0.311153 

-0.0186928 0.00705965 -0.069777 
-0.00114154 -0.00108127 -0.0285245 
0.00158693 0.00166187 -0.00919721 

-0.0447844 -0.232839 -0.610354 
0.0127456 0.00862014 -0.668853 
-0.0257952 0.0293293 0.189575 

-0.0355475 -0.135793 1.12569 
0.0170029 0.00885738 3.0279 
0.000635249 -0.00585817 0.14714 

-0.0335777 0.0221979 -0.957853 
-0.124949 -0.0120267 1.2114 
-0.00255378 -0.00314951 0.192152 

-0.215685 -0.0230707 0.0949529 
0.021733 0.0904355 -0.232216 
-0.0251075 -0.00629773 0.0711102 

-0.100183 -0.111047 0.0509215 
-0.0927214 0.0584536 -0.164585 
-0.00586197 -0.00234458 -0.010583 

0.0493346 -0.120458 0.762096 
0.166214 -0.0893793 1.38443 
0.00021139 0.0016339 0.044269 

-0.0786317 0.0364755 -3.41125 
-0.0245573 0.0473643 -1.79236 
-0.0168825 0.00125992 0.277787 

-0.024729 -0.0589849 0.185507 
0.0291897 -0.024068 -0.16212 
-0.00203544 0.0145905 -0.021575 

-0.124235 -0.00150608 -0.444847 
-0.0498222 0.148579 -0.163886 
0.0265648 -0.0241469 -0.0926827 

-0.208111 0.123468 -0.426648 
-0.419586 0.29387 -0.596458 
0.0332533 -0.0286621 -0.0044763 

-0.0381893 0.00463543 0.665316 
-0.0135495 0.0290376 0.0557717 
-0.00921757 0.000339204 -0.0550343 

-0.0537452 -0.0484724 -2.32609 
0.11592 0.0437192 -0.105404 
0.0013476 0.00233316 0.0764748 

0.0168129 0.0083704 -0.0105332 
0.0936066 0.000458682 -0.16815 
-0.0207287 0.0333004 -0.0718378 

0.0532828 -0.00898597 1.3758 
-0.0350893 -0.0497403 -0.230706 
0.00669847 0.00154715 0.07491 

-0.0205974 0.0161354 0.0117925 
-0.00113086 0.0277189 -0.0281738 
-0.000967988 -0.0012985 0.0216821 

0.00272444 0.00165406 0.00305229 
0.0604257 0.00469326 0.0244441 
-0.00382502 0.0042358 -0.00045287 

-0.0619501 -0.0124922 -0.225277 
0.163551 0.0607586 -0.979109 
0.00388675 0.00152246 -0.0449578 

-0.0221195 0.00257255 -0.0899331 
-0.025066 -0.00489618 -0.0158467 
-0.00231665 -0.00594245 0.0266036 

-0.0354596 -0.0647707 0.296494 
0.100485 0.0145895 0.00590045 
0.000135072 0.00281826 0.00267787 

0.006427 0.0278008 0.0107729 
-0.00210647 -0.00110403 -0.0231124 
-0.00502987 -0.00035963 0.00822974 

0.00168303 -0.0145989 0.0235554 
0.00569822 -0.00454888 0.00325516 
0.000309767 -0.00196636 0.00822034 

0.0658628 -0.0346322 -3.44711 
-0.142393 -0.0330077 -0.974259 
0.0371901 -0.0323327 -0.816051 

-0.0744217 -0.0599999 -0.071183 
0.0732385 0.0145756 0.0238134 
0.00698615 -0.00718488 0.00192096 

0.0195844 0.0131246 0.00464909 
0.00101132 -0.0177832 0.0077879 
0.00129447 0.00132379 -0.00871331 

0.0366333 -0.486288 0.0518166 
0.0454158 0.08391 0.147036 
0.0076348 0.00586538 0.00593546 

-0.0479398 -0.0514414 0.00410659 
0.0509569 -0.00561181 -0.0611928 
0.00966385 -0.00176206 0.12804 

-0.0341688 -0.023299 -0.845562 
-0.0244211 0.0658921 1.73029 
-0.00101531 0.000430013 0.155582 

0.000551069 -0.0199551 0.0638979 
-0.0254852 -0.00798264 0.0574569 
-0.00377674 -0.00320741 0.0122472 

-0.119265 -0.0183367 0.156133 
0.0450815 0.105207 0.913177 
0.00893047 -0.00395071 0.235035 

0.00214114 -0.00326052 -0.545511 
-0.0276037 -0.0392379 -0.488699 
0.00183793 0.0194756 -0.0515649 

-0.0381904 -0.0028142 -0.0701578 
-0.00591678 0.00384946 0.0527349 
0.00308747 -0.00264049 0.0195445 

-0.0512084 0.029292 0.315911 
0.0295481 0.0244572 0.185276 
-0.00231088 -0.00291916 -0.0208444 

-0.0487103 -0.132515 0.143612 
0.0139555 0.0134315 0.00087652 
0.00321056 0.00856482 0.0274561 

0.0424692 -0.0728902 0.163138 
0.0954901 -0.00641601 0.186898 
0.00102204 -0.00517212 0.0311152 

-0.170544 0.0888827 -0.55965 
-0.0974975 0.104755 -0.710312 
0.00205791 -0.0206965 0.10677 

0.051074 0.118791 -0.198396 
-0.186095 -0.0601763 -0.152326 
0.000464391 0.00148067 0.0102673 

-0.143882 0.203576 0.0785927 
0.0256083 0.0975813 -1.08195 
0.00205389 0.0319487 -0.163007 

-0.00423395 0.0522336 -0.10045 
-0.0573895 -0.00207747 -0.0722343 
-0.000781017 0.00428658 0.0234129 

-0.0952238 -0.0778773 -0.534441 
0.0988781 0.0679015 -0.180584 
0.0108283 0.0413138 0.073589 

0.0285377 0.024657 -0.0317825 
-0.0382998 -0.00253375 -0.0617774 
0.000985115 0.0100183 -0.0514049 

-0.0151318 -0.0129771 0.00958695 
0.014281 -0.00171646 0.00471555 
0.00184913 -0.000574921 0.00554483 

-0.0945569 -0.181005 -0.0352119 
0.0915473 0.0571323 -0.0762173 
0.00120298 0.00353824 -0.001706 

-0.0723254 0.0549363 -0.10483 
0.270856 -0.0358149 0.0906022 
-0.0329034 -0.0422077 0.147539 
