# vtk DataFile Version 3.0
Output file generated by Yade's KinematicLocalisationAnalyser
ASCII
DATASET UNSTRUCTURED_GRID

POINTS 13483 float
637.3 30.8441 -0.412695
807.41 64.2982 -0.461037
124.886 6.07171 -0.465436
834.718 7.05857 -0.402141
521.055 7.73655 -0.270545
328.847 35.1256 -0.459474
162.904 6.82209 0.429885
595.972 10.1856 0.168852
518.2 22.5713 -0.149226
756.879 13.3936 -0.381707
219.22 8.81766 -0.0995583
267.849 6.34948 -0.283734
685.379 32.9375 -0.152331
664.573 15.1348 -0.115677
142.61 16.8571 -0.447042
230.117 34.5895 -0.392243
226.785 12.9322 0.279329
301.237 9.54229 0.388237
354.345 32.5155 0.454714
547.342 8.49456 0.353444
428.299 37.0415 -0.105467
619.308 42.7951 -0.333474
834.733 43.2359 -0.480302
735.044 40.8427 -0.284649
478.458 15.8723 0.293979
250.737 44.172 0.12392
513.044 27.1677 -0.492355
613.465 20.6328 0.239241
46.6269 15.2037 -0.455997
751.969 37.4277 -0.358772
503.357 4.92197 0.323129
17.3477 23.0924 0.288103
821.61 67.9481 0.167393
516.858 2.48714 0.479124
81.3429 44.2383 -0.100327
544.447 30.2585 0.328223
553.822 16.6764 -0.413519
358.496 22.2007 -0.171373
557.677 25.6446 -0.310433
366.122 33.6494 -0.388901
251.317 14.4523 0.337328
452.564 36.5435 -0.0645104
711.088 6.96509 0.177985
200.893 6.19523 -0.377297
57.8269 6.90945 -0.125897
71.3777 8.88576 -0.287375
726.523 9.02639 0.634582
24.4403 11.7396 -0.297215
639.567 48.5253 0.36741
712 26.4605 0.361633
179.858 32.2909 -0.282522
799.057 49.3893 -0.124145
36.5743 28.1457 0.121159
557.992 3.00976 0.317614
147.995 7.4635 -0.483459
622.585 33.799 0.365432
527.715 27.3758 0.116126
182.151 0.950522 0.265812
34.0494 2.35677 -0.336104
363.887 17.6904 0.260534
652.032 50.0215 0.134484
481.633 35.6366 -0.176366
417.291 1.03379 0.19455
737.429 9.39333 0.355766
27.6059 43.0675 -0.235723
267.702 30.2785 0.286027
756.587 9.02825 0.302253
707.199 50.1621 0.352649
436.391 8.64887 -0.493076
596.739 3.6349 -0.353757
782.013 33.3996 0.377935
136.213 7.64775 0.273226
521.208 26.1592 -0.132485
498.849 14.9686 -0.110091
307.624 16.6313 -0.337227
21.5522 13.5447 0.263158
819.315 50.0818 -0.315031
347.555 39.8988 -0.284331
710.059 22.9962 0.330629
725.288 14.812 0.31777
822.701 13.7308 -0.338024
485.116 35.6041 0.167868
96.1661 38.2063 -0.266122
720.236 38.4895 -0.227211
682.161 42.0706 0.0946443
841.467 51.6467 -0.118875
817.549 0.787865 0.506573
304.264 28.7402 0.439549
653.464 6.46339 -0.119702
25.3191 5.19033 0.47061
138.509 38.166 -0.144167
536.418 14.5738 0.218532
815.762 42.0712 0.479235
204.137 28.543 0.241112
46.9708 35.3202 0.273331
515.766 1.15774 0.127676
246.394 8.78037 -0.373198
783.664 57.7468 -0.269511
802.248 41.3781 0.231555
378.021 20.5826 -0.26262
171.476 26.7572 0.435513
576.342 39.8197 -0.442572
397.886 15.0367 -0.490274
433.595 29.4373 -0.0993142
396.178 4.37326 0.408006
574.641 10.6791 -0.118707
840.395 11.827 -0.260113
83.5443 39.2022 -0.382793
351.373 4.76952 -0.189257
589.282 9.62657 -0.353205
377.021 43.4254 0.453052
26.9174 24.6605 0.457026
31.8083 5.76491 0.325827
597.086 33.9057 0.421756
530.006 24.7334 -0.140636
27.4073 36.9351 0.413415
97.2793 30.8411 0.207909
341.224 15.8596 -0.29838
631.779 19.087 0.117368
498.189 38.0844 0.306032
774.2 7.59109 -0.445411
765.698 6.03058 0.200858
406.093 36.9678 -0.0979484
670.15 26.8979 0.108335
249.753 17.053 0.509787
346.371 3.6388 0.480463
107.674 31.253 0.321757
121.742 24.1703 0.264434
571.522 39.7067 -0.0822884
321.497 18.8348 0.481886
748.872 47.1822 0.0944626
711.528 50.4531 0.108968
504.33 20.597 -0.372195
811.974 25.1792 0.345555
450.393 24.0172 0.221842
291.481 23.8662 -0.305447
711.542 38.5914 0.28653
292.779 29.0092 0.404886
607.58 12.4245 -0.187805
349.268 36.9266 0.203583
530.82 11.3549 0.474375
385.514 31.0293 -0.0858867
452.784 16.6808 -0.104136
334.266 42.0996 -0.342585
200.217 29.6798 0.112763
812.058 63.5676 -0.145239
837.313 14.6452 -0.321492
6.22684 12.2319 -0.435538
457.068 22.2159 -0.436001
40.2383 22.522 -0.0912975
396.292 31.3674 -0.457723
415.975 24.3213 -0.270658
78.3055 11.7664 -0.499332
54.4074 32.9025 -0.447626
237.686 13.4772 0.421855
653.007 42.4564 -0.374114
610.214 21.1847 -0.484787
78.3769 20.992 0.488387
734.091 45.251 0.413322
799.214 11.6934 -0.492984
699.876 46.1626 -0.565515
734.198 2.34669 -0.468468
581.347 27.4593 -0.469666
620.303 43.8736 0.543505
539.964 18.281 -0.413411
832.353 4.69472 -0.198243
235.351 24.6528 -0.125374
134.264 34.9935 -0.195357
260.499 6.54531 -0.368988
99.2947 4.18019 0.269569
67.5703 10.0362 0.220023
290.751 36.1424 -0.303846
17.743 24.9316 0.350731
587.65 19.7257 0.411912
639.659 43.5418 0.204363
488.074 21.2331 -0.351312
826.936 52.8859 0.360085
429.395 8.61657 -0.123208
459.347 36.7317 0.403401
566.676 3.48976 -0.17991
24.0363 23.6749 -0.38187
610.04 4.56999 0.488958
576.812 4.30107 -0.294474
217.358 11.3203 0.485374
448.632 15.9911 0.204682
328.767 6.34456 0.325584
409.75 18.8656 -0.320619
776.48 51.0505 0.116191
202.856 25.3873 0.424277
809.039 6.74741 0.346673
778.638 48.1818 -0.3151
404.973 10.1619 -0.173737
754.878 2.35499 0.541473
640.567 26.3883 -0.43801
778.05 19.102 -0.338955
454.72 43.373 -0.272753
524.884 12.4188 0.361484
491.677 45.0758 0.223226
470.881 8.89416 -0.14395
703.21 44.5684 0.256395
697.544 40.0639 0.283303
202.491 38.7876 -0.330164
820.57 13.0441 -0.120986
621.761 44.1786 -0.28098
12.1315 16.9227 0.185394
430.732 25.439 0.345276
197.706 22.9591 -0.394487
97.8772 39.164 -0.201386
812.772 38.3108 0.406976
696.477 49.8375 0.243977
337.496 25.4286 0.34179
563.43 10.2644 0.31624
86.5681 44.5387 -0.163709
261.584 25.7397 -0.473258
589.275 24.6785 0.377041
514.539 18.4744 0.412773
277.668 0.88956 -0.34314
585.791 41.5842 -0.381932
564.704 41.027 -0.482696
509.862 32.6568 0.394559
528.218 0.795204 -0.506225
743.223 20.5351 0.404638
189.519 11.9721 0.154135
530.545 37.029 -0.414146
598.456 41.4829 -0.109274
76.7967 0.949849 0.272742
265.991 4.66263 0.159176
836.555 16.6349 -0.20715
822.378 15.7218 -0.48567
842.036 20.9675 -0.455082
321.025 8.57374 -0.229253
782.624 26.6585 -0.430317
430.097 42.0214 0.34404
475.011 0.80018 -0.399428
689.295 39.6689 -0.426088
28.5373 30.0976 -0.307472
349.52 41.7481 -0.46784
266.929 2.83679 0.319004
824.989 65.2791 0.177247
749.195 59.2904 0.133788
303.955 10.8904 0.215533
704.45 30.9982 -0.0769925
591.164 2.59556 0.273123
574.536 6.37232 0.424033
101.985 18.2916 -0.502907
320.914 1.03778 -0.224942
363.282 2.28601 -0.353796
14.709 7.4449 0.356187
4.46295 31.1416 -0.245741
171.082 18.7356 0.36438
71.9476 41.452 -0.219233
70.0693 28.579 0.315516
448.362 14.3091 -0.432668
388.455 34.7696 -0.464631
797.495 51.0728 -0.106662
20.5514 4.02548 -0.269641
74.4697 6.88923 0.139225
661.706 39.483 -0.138789
311.944 0.948533 0.304942
386.571 16.2037 -0.0880877
249.266 4.63482 -0.380794
691.814 23.8557 -0.186647
478.303 8.27392 0.414212
785.433 24.1961 0.384154
668.946 30.0134 -0.283871
709.465 18.8229 -0.0855331
445.794 26.4775 0.48818
107.916 44.655 -0.31053
574.891 43.6458 -0.081789
778.862 12.4308 -0.313458
251.791 30.3362 -0.242614
33.7444 17.1448 -0.163711
356.068 13.7539 0.489047
113.664 40.3081 -0.4634
283.24 42.5462 -0.192156
450.857 1.09223 -0.22631
819.91 44.9996 -0.417611
727.72 0.730611 -0.534817
351.946 3.16146 0.527255
317.99 26.3814 -0.149152
490.428 42.0032 0.216587
85.9784 7.96309 0.440151
209.119 44.7376 -0.378304
803.257 42.9 -0.36086
524.824 39.7959 0.0796426
211.632 40.9463 0.271345
170.118 42.2743 0.169936
841.308 40.8689 -0.442863
839.009 13.2369 -0.452159
644.015 3.51675 -0.482827
201.35 24.3768 -0.0975117
583.036 29.1255 -0.100985
585.121 28.6568 0.257891
434.009 5.69032 -0.134796
510.582 0.930846 -0.280539
797.773 54.5262 0.466134
89.6566 30.7466 0.215773
698.117 19.0277 0.416279
290.648 15.4449 -0.339206
10.27 2.33118 -0.346014
132.755 36.7421 -0.18792
70.4379 23.0213 -0.448376
743.718 41.0846 0.291696
830.187 72.9205 0.162077
196.481 28.0498 -0.183489
832.568 14.3652 0.531888
48.1166 37.3281 -0.256708
96.0586 29.0432 0.149667
673.65 13.2082 -0.401119
438.577 18.2037 -0.501817
550.406 16.6224 0.107732
252.277 28.3574 -0.179588
660.638 4.15152 -0.530301
842.184 11.7013 0.503525
31.5748 31.5003 -0.263693
286.323 7.67763 0.188153
235.238 15.1416 0.260297
1.07804 35.7734 0.150333
238.676 14.5663 -0.354232
224.213 10.9427 -0.142771
227 26.1935 0.283633
141.094 27.8028 -0.116295
580.99 15.1092 -0.334619
176.875 14.1573 0.34317
819.629 65.0362 0.222441
184.258 3.86093 -0.49309
50.6599 38.4249 -0.374089
773.299 60.3537 -0.425895
298.063 31.7118 0.39663
715.714 26.7287 -0.446665
825.579 38.0422 0.471079
319.048 9.18734 -0.107465
772.684 34.7492 0.368134
348.735 2.59489 -0.376893
442.171 23.9228 0.362955
714.13 16.2332 -0.406816
111.686 11.8139 0.461093
512.303 3.90999 -0.481244
788.63 22.8954 -0.188002
93.4418 7.71297 -0.202483
298.786 14.7228 0.175787
449.517 11.4389 -0.232759
831.956 2.81181 -0.467053
422.342 1.9548 -0.523303
187.164 39.2742 0.308264
781.232 10.3917 -0.551108
136.075 36.1541 -0.194053
278.935 31.3541 -0.39802
424.772 21.7723 0.208873
610.139 14.2852 -0.302591
410.995 9.81964 -0.476071
483.601 28.3002 -0.435881
807.668 65.5564 0.392078
50.3661 10.7725 -0.10139
317.218 38.6642 -0.267576
402.882 26.0088 -0.407886
434.713 21.2308 0.247152
552.822 44.6716 0.356387
791.708 51.5783 -0.195258
705.037 39.3196 -0.354563
238.882 33.9599 0.388334
14.6073 31.5847 -0.14935
700.085 40.9899 -0.116149
540.419 44.2912 -0.487898
243.099 38.6689 -0.110589
723.053 33.3538 -0.106526
160.163 9.22603 0.201161
389.512 22.0217 0.296647
492.29 42.9666 0.110773
439.667 19.5145 0.194651
803.695 64.8799 -0.291024
452.399 3.3941 0.443173
52.531 25.3028 -0.319454
498.361 31.7174 0.326516
461.149 41.4512 -0.371439
817.441 50.6465 -0.24182
769.456 34.8415 0.228862
575.45 18.8102 -0.1358
811.208 55.11 -0.423902
311.22 2.18015 -0.443135
402.876 29.0206 -0.46134
30.679 38.6738 0.309395
775.448 35.9648 0.155997
648.677 19.8776 -0.482533
491.452 0.76541 -0.481761
133.564 4.52395 0.276001
452.482 40.8166 -0.101104
12.8003 0.915503 0.344073
830.394 8.38532 0.10509
[...]
POINT_DATA 13483
TENSORS Strain_matrix float
-0.297326 0.0992556 -1.00905 
-0.0284808 0.244232 1.0355 
-0.0133466 0.00855094 -0.0114866 

-0.0145581 -0.0449519 -2.10615 
0.0514777 0.187399 -1.48339 
0.00562704 -0.0357864 0.0349917 

-0.0102838 3.02468e-05 5.98383e-05 
0.00229131 0.00693446 0.00498302 
0.000376788 0.000308948 0.00905558 

-0.0381972 0.099369 -0.0378638 
-0.0736076 0.0234145 -0.0575922 
0.00200694 0.000600599 0.0513701 

-0.046835 -0.0192275 -0.0083258 
0.0126698 0.0525895 -0.228871 
-0.00975398 0.0117562 0.155501 

-0.0178566 -0.0164248 1.1251 
0.0189152 0.0152191 0.0228425 
0.000779905 0.00021385 0.0575667 

-0.011977 -0.000311768 -0.0368737 
-0.000538149 0.00561486 -0.050866 
0.000148559 0.000105293 0.0160759 

-0.0188233 -0.000840459 -0.0157731 
0.00863213 -0.0140625 -0.00789239 
-0.00435903 0.000391643 0.061548 

-0.0264704 -0.00654743 0.373557 
0.0161327 0.0136906 -0.345307 
-0.0312925 -0.0159954 0.616787 

-0.00225226 0.0888301 0.116093 
-0.0188015 0.0279393 -0.22626 
0.0066021 -0.0073767 0.0247408 

-0.0114817 0.00419306 -0.0588916 
0.00419913 1.53732e-05 0.0692583 
0.000121527 0.000294275 0.00273148 

-0.00815496 -0.00265675 0.00376925 
0.000198623 0.00334854 0.00406539 
0.00197619 0.000269441 0.01834 

-0.0449321 0.14501 -0.109635 
-0.13899 0.0868693 0.690488 
0.000913959 0.0222706 -0.0671574 

-0.118547 0.116979 0.139128 
-0.0321648 0.0463231 -0.145038 
0.0132718 -0.0207502 0.319927 

-0.00998041 -0.00282953 -0.0982378 
-0.00231813 0.0120437 0.279098 
0.000632937 0.000204351 0.0477398 

-0.0140546 0.00276939 -0.215733 
-0.0106127 0.0120606 0.249845 
0.000228102 -0.000564782 -0.0256247 

-0.00813112 -0.00673961 -0.00648175 
0.00460379 0.000180228 0.00107529 
0.000547793 -0.000127387 0.0111528 

-0.0103194 -0.00599251 0.00472561 
-0.000918294 0.00533913 -0.00820967 
0.000108932 7.37594e-05 0.0100127 

-0.0590779 -0.100866 -0.355997 
-0.104532 0.0333707 0.426779 
-0.000988591 -0.0115855 0.0313484 

-0.0167602 0.00801177 0.1052 
-0.0122199 -0.00666478 0.130088 
-0.00256145 -0.00552226 0.0859308 

-0.0972772 -0.283017 -0.0367595 
-0.0879601 0.0459514 -0.0291992 
0.00370196 -0.00144416 0.0478097 

-0.102267 0.178394 -0.208364 
-0.139021 0.0393603 -0.0421586 
-0.028052 -0.0299289 0.0440696 

-0.129748 -0.101102 1.84342 
-0.206158 -0.00251084 0.653755 
0.00711114 0.0019001 0.089999 

0.10869 -0.128761 0.653681 
0.41559 -0.0824386 -0.455969 
0.0400274 -0.00567836 0.43424 

-0.0441774 -0.0495412 0.183475 
-0.0659653 -0.00634531 -0.0311652 
-0.00557769 -0.00436404 0.0917074 

-0.0193105 -0.00375437 -0.0862065 
0.0112758 0.00588889 0.0309342 
-0.0166681 0.00168688 0.0713167 

0.00584415 0.0031158 0.465258 
-0.00929585 0.00333986 -1.17183 
0.000861158 -0.000670238 0.142573 

-0.00698501 0.0393646 -0.123122 
0.0090239 -0.0256734 0.0618058 
0.0197777 -0.000870775 -0.147296 

-0.0119273 -0.0347699 0.47023 
-0.0182162 -0.0100778 0.851481 
0.000128332 -0.000252067 0.0831153 

-0.157709 -0.518394 1.22949 
0.415405 0.172054 0.974484 
-0.00327475 0.00731988 0.00019445 

-0.0131906 0.00254146 0.0190833 
0.0237417 0.00311294 -0.00463741 
0.00024348 0.000150471 -5.51383e-05 

-0.044409 0.0458781 -0.171209 
-0.0357478 0.0603468 -0.151611 
-0.00093085 -0.000861445 0.0133228 

0.0134545 0.0412448 0.189406 
-0.0892951 -0.0124501 -0.280205 
0.000421648 -0.00135265 -0.00292835 

-0.0352349 -0.00776824 -0.429841 
0.0183494 0.0344327 0.516861 
-0.000766952 -0.0235544 0.185234 

-0.00312505 -0.0106734 -0.0151071 
0.00853905 -0.00614816 0.00387371 
-0.00551051 -0.00212012 0.0330159 

-0.0536118 0.0931946 0.0556671 
-0.102828 0.0794941 -0.150899 
-0.000699901 -0.00232777 0.0148066 

-0.0233709 0.00807914 -0.388771 
0.00407694 0.0247152 -0.251212 
0.00171532 0.000335505 0.133273 

0.0243096 -0.0300184 -0.0256419 
0.0299134 -0.0360948 0.129441 
0.0052424 0.00210322 -0.021313 

-0.0246266 0.013522 0.0527574 
-0.0045008 0.00997054 -0.0471408 
-0.000701935 3.83308e-05 0.0105813 

-0.0127712 -0.098993 -0.290988 
0.0457982 0.0353318 -0.0551668 
0.00241545 -0.012222 0.0653134 

-0.00546717 -0.0488389 -0.162089 
-0.03768 0.00459982 0.10721 
-0.000750999 0.0017628 0.0309969 

-0.0248371 -0.0582264 0.10992 
-0.0233175 -0.0321205 -0.0319959 
-0.00673569 0.0113927 0.0541257 

-0.0536767 -0.00974511 0.00502478 
-0.00213481 0.00751484 0.0545958 
-0.0262637 0.0165017 0.0297692 

-0.00591783 0.00404634 0.0268936 
-0.000522546 0.00387625 -0.00250389 
-0.0017343 0.000410316 -0.0185743 

-0.01575 0.00467664 0.00455638 
-0.00567734 0.0020713 -0.0039329 
-0.00130197 -0.000502048 0.0149297 

-0.0152071 -0.0105124 -0.00188213 
1.62469e-05 0.00611108 0.00268916 
-0.000385837 6.69337e-05 0.00811038 

-0.251191 -0.224003 2.03969 
0.0922634 0.113006 -0.395628 
-0.032806 -0.0225037 -0.0449732 

-0.00656703 0.000266742 -0.0049134 
0.00716973 0.00196868 -0.000992742 
0.00103097 0.000427923 0.0053716 

0.0257939 -0.177752 -0.0284525 
0.190197 0.0178442 -0.0338012 
-0.00933622 -0.0174016 -0.055803 

-0.107447 -0.139029 -0.547601 
0.208821 0.043976 -0.819208 
0.00543021 0.00197412 -0.0477503 

-0.00980933 -0.0133024 0.0177265 
0.0120386 0.00878074 -0.0201718 
0.00804335 -0.0151433 -0.0669542 

-0.301824 0.0834278 1.02209 
0.0366404 0.235081 1.3018 
0.0200823 -0.0313295 -0.0318579 

-0.010235 0.00926041 0.036053 
-0.00925695 0.00700149 0.00708105 
0.0104035 -0.0241153 0.172907 

-0.0231448 0.0039409 0.0173041 
0.000442757 0.0111836 -0.0123852 
-0.000515113 -0.00167892 0.00128028 

-0.0137903 -0.0103645 -0.422938 
-0.00422614 -0.00645225 -0.223867 
-6.20574e-05 0.000243772 -0.0169816 

0.0505717 -0.047968 0.779279 
0.000255389 -0.030931 -0.877554 
-0.0009219 -0.000171829 0.0897618 

-0.0166759 0.0953034 -0.318325 
0.0110951 0.0138367 -0.144664 
-0.0022814 -0.000110125 -0.0330058 

-0.00906648 0.0106438 -0.0197454 
0.000962238 0.00448606 0.00940975 
-0.00033598 -0.00531462 -0.00579952 

-0.0103812 0.000647096 -0.0324223 
-0.00371595 0.00214492 -0.00838048 
0.000543749 0.000650564 0.00929595 

-0.0107612 0.00277074 0.00605052 
-0.0046626 0.00849312 0.0168529 
0.000393142 -0.00165177 -0.00498118 

-0.00562994 -0.683481 -0.227486 
-0.0746906 0.0543662 -0.357953 
-0.000671619 -0.0265937 0.0911126 

-0.111928 -0.0790232 -1.3232 
-0.085365 0.139865 0.443823 
-0.000854056 7.39706e-05 0.0189941 

-0.0119398 -0.0085835 -0.0227722 
-0.00299701 -0.00159082 -0.00740584 
6.91183e-05 0.000552217 0.0119704 

-0.0733548 -0.0218988 -0.155471 
0.0247213 0.053438 0.196209 
0.0187083 -0.0593699 -0.0511098 

-0.0329203 0.0228606 0.0101497 
-0.00398663 0.0242817 -0.106708 
-0.00210091 0.0105581 0.0219398 

0.0140643 -0.0134219 0.00634192 
-0.0173184 -0.0342524 0.0168391 
-0.000869761 0.000995777 0.00467989 

-0.00139221 0.0731461 -0.00431266 
-0.0472401 -0.0158543 -0.0534739 
-0.00565274 0.00100855 0.0368682 

0.00437529 -0.152717 0.061117 
0.143032 0.0239927 0.0515618 
-0.00106794 0.00121294 0.00322097 

-0.0226872 0.000426091 -0.201852 
-0.00504932 0.0117493 -0.3494 
0.00132013 0.00129736 0.0507526 

-0.0406985 0.0368111 -0.0519262 
-0.0681912 0.00657959 -0.180774 
0.00705531 0.00191682 0.055908 

-0.266784 0.407441 -1.02952 
0.0697163 0.0657425 0.358305 
0.0015383 -0.00772801 0.0893418 

-0.00853946 0.000633679 -0.0117576 
0.000457796 0.00199036 -0.00795691 
0.000719154 0.000361461 0.0119216 

0.0229611 0.0228496 0.218919 
-0.0256164 -0.00659316 -0.244566 
0.0120725 0.0379564 0.226487 

-0.047606 -0.0554459 0.135428 
-0.00728567 0.0442636 0.139724 
-0.0050334 0.00144872 0.0633582 

-0.00787622 0.000549045 -0.0165648 
0.00257288 -0.000242961 -0.0866151 
-0.000305827 -3.4143e-05 0.0106156 

-0.0140827 0.00244144 -0.00453642 
-0.00120058 0.00243442 0.0230602 
-0.00170295 0.000131385 0.0149174 

-0.0327467 -0.304599 -1.96088 
-0.120258 0.0484771 0.0672562 
0.00454925 -0.00261587 0.0147461 

-0.00738499 -0.0324328 -0.195381 
0.00397288 -0.00826817 0.0115058 
-0.0268781 0.00677111 0.145483 

-0.116138 -0.0309691 -0.464991 
0.103972 0.0874885 0.172165 
-0.00298312 -0.0015915 0.0268001 

-0.20919 -0.190456 0.54881 
0.00575445 0.10871 -1.10027 
0.011842 -0.0570982 0.148767 

-0.0143066 -0.025937 -0.0323849 
0.0924146 -0.0254577 -0.0401132 
0.00106718 -0.00492174 0.0296445 

-0.0509862 0.0350035 0.270588 
-0.0447351 0.00678339 0.254547 
-0.0019644 0.0221574 0.146071 

-0.0053473 0.000151952 -0.0417203 
-0.00115206 0.00194323 0.0415795 
0.000177964 -6.28779e-05 0.00918053 

-0.104346 0.00273041 -1.54552 
0.0483898 0.20572 0.16242 
0.00713175 -0.0106768 0.0298534 

-0.0352392 0.14572 -0.00928107 
0.0665032 -0.00534463 -0.0388246 
0.00131963 0.00397027 0.00989827 

-0.0808224 -0.211647 0.391298 
-0.0635204 0.123337 0.250189 
-0.00246139 -0.00347822 -0.0091783 

-0.114472 -3.66606 0.650384 
0.0155497 0.214831 0.369567 
0.00106414 0.0119827 0.164628 

-0.0025108 0.00540079 -0.00507131 
0.00120913 0.000199304 -0.0205208 
-0.000183399 8.21516e-05 0.00471637 

-0.0287621 0.0215127 -0.0136467 
-0.0173741 -0.00987164 0.0124097 
-0.00233826 -0.00269672 0.0358823 

-0.0174888 0.00667526 -0.0438157 
0.00390887 0.00668808 -0.00429011 
-0.000606346 -0.00105083 0.0188601 

-0.00702786 -0.00391662 0.00154558 
0.00157378 5.09672e-05 0.00361198 
0.00140727 0.00261424 0.0140378 

-0.0211518 -0.0225299 0.00753802 
0.0357835 0.00481892 0.0112082 
0.000168097 -0.00114852 0.0271731 

-0.0815467 -0.403903 3.15651 
-0.0838573 0.0961105 0.685819 
0.0071879 -0.000305901 -0.0136803 

-0.013655 -0.0131873 0.0417618 
0.001891 0.00549516 0.0369488 
0.000286909 -8.40478e-05 0.0110334 

-0.0157625 0.211657 1.12653 
0.00501558 0.00373806 -0.119541 
0.0135971 0.00105696 0.130652 

-0.0292299 0.00421716 0.00741064 
0.0139191 -0.0176331 0.0561738 
-0.0043815 -0.0694119 0.169123 

-0.011032 0.00408005 0.00169565 
-0.0023482 0.00417424 0.00204547 
-0.000520236 0.000176276 0.0079535 

-0.917845 -0.578317 -0.816528 
-0.350659 0.215573 -0.456944 
0.093487 0.0132705 0.739004 

0.0178292 -0.108604 -0.208672 
0.0217909 0.0112106 -0.0389243 
0.001553 0.0034594 -0.0323083 

-0.00453199 -0.0309189 -0.00877739 
0.023986 0.00495847 0.00259237 
0.00114924 -0.000550719 0.000750489 

-0.00326448 0.00135238 -0.143309 
-0.00504579 0.00399901 0.180748 
0.000136961 0.000517032 -0.015482 

-0.0186662 -0.0326627 -0.124473 
0.0113834 0.0107461 0.7676 
-0.000378079 0.00159904 -0.0136171 

-0.0178321 0.00271006 -0.270398 
-0.00446478 0.00451308 0.0619698 
0.000140293 0.000655058 0.00252267 

-0.00497719 0.0298431 0.175373 
-0.00708447 -0.00912076 -0.0281634 
-0.000375204 0.00102355 -0.00461151 

-0.0123076 -0.00181948 0.192971 
-0.0018801 0.00601046 -0.0292163 
-0.000360873 2.07788e-05 0.00562477 

-0.0342399 0.0422869 -0.0469834 
-0.0740887 -2.8043e-05 -0.0123298 
-0.00520838 0.00144221 0.0280093 

-0.15452 -0.0947856 -0.389087 
-0.0619752 0.18981 0.499212 
0.00531371 0.00571741 0.0286073 

-0.0109933 0.00195755 0.0758832 
0.00198761 0.00538551 0.0693237 
0.00444723 -0.00671031 0.321523 

-0.01766 0.0180465 0.0397122 
0.0157705 -0.0134916 -0.0300941 
0.000427986 0.00224834 0.0431859 

-0.0362038 0.000294103 -0.261395 
0.00672268 0.00888862 -0.294238 
-0.0121179 -0.014377 0.0250033 

-0.0203751 -0.00382615 0.564514 
-0.0344943 0.0434069 3.23522 
-0.00251378 -0.0107493 -1.09861 

-0.0327222 -0.0188041 0.300779 
-0.0244867 0.00841256 -0.0116062 
0.000798197 8.32914e-06 0.0248976 

-0.0168516 0.00683749 -0.0335056 
-0.000859152 0.00345932 0.00991762 
0.000613093 0.000587686 0.0140953 

-0.0175099 -0.0322239 0.154333 
0.0920996 0.0763863 -0.272763 
0.00384261 0.00109939 0.0346057 

-0.0828334 0.163013 -0.0646609 
-0.00664082 0.0543222 0.00449814 
-0.00104851 -0.000813092 -0.0272034 

-0.0124583 -0.00292924 -0.109416 
0.00437757 0.00478722 0.0518923 
-0.000345981 0.000436192 0.0026776 

-0.000606102 0.00228145 0.00732302 
0.00794746 0.00214972 0.0141744 
-4.30044e-05 3.49901e-05 0.00405592 

0.0103215 -0.0231984 0.0231366 
0.0396664 -0.0142403 -0.0473169 
-0.00370481 -0.00041355 0.0124577 

-0.204987 -0.0122102 0.264214 
0.0107579 0.150808 -0.519653 
-0.00178602 0.00632972 0.0407705 

-0.0167902 0.0736859 -0.0596486 
-0.0268241 0.00415711 0.101003 
-0.00229448 -0.00220695 0.0353456 

-0.160373 -0.157767 -0.100236 
0.0350192 0.0922142 0.0869267 
0.101787 -0.00897882 0.263829 

-0.0238528 0.0488355 -0.0177952 
0.0146828 -0.0140126 0.00134881 
0.00854793 -0.000815434 0.0398961 

-0.00399777 -0.0364085 -0.078685 
0.0144528 -0.0119892 0.00425956 
-0.00121464 0.000154699 0.0230587 

0.0045929 -0.14562 -0.128286 
0.0459558 -0.000624387 -0.153964 
0.00305066 -0.000814166 -0.0143452 

-0.0112017 0.00779021 -1.51738 
-0.00187587 0.0219461 3.94363 
4.05501e-05 0.000942107 0.190218 

-0.0106044 0.00951952 -0.118247 
0.000569686 -0.0173241 0.113045 
-0.000132174 0.00152214 0.0581473 

0.000517046 -0.0158056 -0.000333898 
0.0108119 0.00113809 0.0485896 
0.000824138 0.000218047 0.00418087 

-0.0306982 0.0451516 -0.030539 
-0.0125379 0.0767588 0.0316299 
-0.00155269 0.00101071 0.0157548 

-0.00963447 -0.0552164 -0.0370525 
0.0655539 0.017514 -0.0309327 
0.00336708 -0.0135098 0.0410103 

-0.0127742 0.0125175 0.266216 
0.0048983 0.0117155 2.75034 
-0.00144257 -0.00429932 -1.35754 

-0.245524 -0.407361 -0.928788 
-0.0992967 0.362271 -0.0569329 
-0.029547 -0.0103521 0.464075 

0.0169722 -0.196062 -0.00220615 
0.214889 0.0220779 0.0168199 
-0.00889867 0.00726961 0.0529405 

-0.00242052 -0.0417626 -0.220857 
0.0447317 0.0229844 -0.372433 
0.00399593 0.00137061 0.0635554 

-0.0118809 -0.0744251 -0.0307386 
0.024264 0.0491775 -0.2732 
0.00453729 0.0219424 0.0923361 

-0.0929065 -0.0746333 -0.602818 
0.0775855 0.156081 0.485221 
0.00987731 -0.00088948 0.024008 

-0.0245561 -0.0010173 0.0797164 
-0.00735084 0.00395466 0.00693998 
-0.000737325 0.000686519 -0.00305241 

-0.441784 0.552542 0.787317 
0.0621579 0.280713 -0.64854 
0.0090058 -0.0162374 -0.0922632 

-0.00978499 -0.0041434 0.159296 
0.00962793 0.00599417 0.0627404 
0.000170133 -0.000557772 0.0194537 

-0.0117199 0.0114073 0.0764746 
0.0150536 0.0145839 -0.0226565 
0.00443954 -0.000978551 -0.0313279 

-0.030521 -0.0658437 0.00724826 
-0.0500488 0.0176233 -0.236362 
0.000968411 -0.000759123 0.0156526 

-0.0113777 -0.015615 -0.00133189 
0.0116477 0.00436975 0.0143175 
0.000483901 -0.00128129 0.0196273 

0.00396495 -0.0051804 -0.0180695 
-0.00709164 -0.00837209 0.0133668 
0.000176036 0.000693162 0.0050835 

-0.025801 0.0138165 -0.137847 
0.183927 -0.0148356 0.114543 
-0.00161365 0.00289776 0.0411386 

-0.013821 -0.0206841 -0.00742796 
0.0194069 0.0209095 0.0984278 
-0.0278002 0.025393 -0.163342 

-0.0167681 -0.00960292 0.0633241 
0.000275847 0.0123472 -0.0350793 
-0.00048838 2.60483e-05 0.00156778 

0.000814897 -0.132339 0.0257494 
0.174403 0.0230706 -0.0474124 
0.00908872 0.00765311 0.076451 

-0.14886 -0.0134716 0.277207 
0.0291432 0.151184 -0.280774 
0.0497351 0.056344 -0.0216739 

-0.0160935 0.0163735 -0.00623966 
-0.020199 0.00620665 -0.045273 
-0.000634864 0.00136795 0.00323936 

-0.0165068 0.0212751 -0.119846 
-0.0167672 -0.00764523 0.0324396 
0.000337691 -0.00104873 0.0334664 

-0.0118913 -0.00659404 0.0168105 
-0.00116143 0.0104165 -0.00571016 
-0.000688732 -0.000137935 -0.0133333 

0.000697029 -0.00772325 0.79145 
-0.000286096 0.00352389 -0.72855 
-2.38115e-05 -3.8004e-05 -0.00454733 

-0.0767171 -0.105904 -0.110757 
0.199052 0.109967 -0.509098 
-0.00145461 0.000845043 0.0587624 

-0.0185122 -0.0144247 -0.766563 
0.00800317 0.00567708 0.419902 
-0.0029155 -0.000500379 0.0827535 

-0.0249645 0.0329258 -1.16078 
-0.00268754 0.0339378 -0.738676 
-0.000459716 -0.00314025 0.353271 

-0.00734405 0.00627182 0.0192997 
0.002143 0.00456605 0.0914295 
-2.25088e-05 0.000742113 0.0168252 

-0.000830505 0.234369 0.469379 
-0.148425 0.0969431 0.826159 
0.0751916 0.0546344 1.1043 

-0.0003553 0.00620246 -0.177422 
0.0196987 0.00799834 1.00554 
-0.00829407 0.00215553 0.119364 

-0.00547194 -0.00757235 -0.723755 
0.0019249 0.00616373 0.142908 
-4.21666e-05 -0.000759155 -0.0256034 

0.303643 -1.06095 5.08938 
0.742775 0.568994 0.968968 
-0.0341333 0.0182166 1.01877 

-0.403606 0.0817084 -0.834441 
0.484518 0.293806 -0.00934228 
0.0457333 0.127274 0.430755 

-0.108714 0.0119376 9.70041 
0.0656204 0.0796421 13.3555 
-0.00408983 0.00140489 -0.220914 

-0.180761 -0.303973 0.445705 
0.191617 0.14069 -0.963529 
-0.0638475 0.0178541 0.266073 

-0.050139 -0.0254831 2.56717 
-0.0300235 0.0211163 0.29912 
0.00209065 -0.000235983 -0.0138472 

-0.012201 -0.36037 -78.8475 
0.0035672 0.0728177 -6.05789 
-0.00117623 0.0123528 1.7873 

-0.0294454 -0.0446734 0.0615688 
-0.012768 0.00869784 0.115533 
-0.00280723 -0.000523321 0.0422069 

-0.0989815 0.0498868 0.306352 
-0.221081 0.0767288 -0.0392993 
-0.00922811 0.120628 0.178942 

-0.0039281 0.0060598 0.0147825 
-0.0142492 0.00140413 0.00483687 
-0.000596747 -0.000785391 0.0139272 

-0.00287091 0.000701355 0.0235251 
-0.0018072 0.00573969 0.0213406 
-2.90325e-05 -0.00035522 0.00744431 

-0.00841883 -0.000209186 -0.00896935 
0.00154788 0.00470401 0.00773344 
-0.00102195 0.00199768 -0.00100335 

-0.0146462 -0.00118294 -0.0148156 
0.00163961 0.00834877 0.0103796 
-0.000479464 -0.000689008 0.0281433 

-0.0346722 -0.00894439 -0.0238919 
0.0136334 0.0119019 -0.0292649 
0.0145558 -0.0201415 0.222026 

-0.0132628 0.00332394 -0.025232 
-0.0111674 0.0138795 0.0483361 
-0.000135725 -0.000259713 0.0057021 

-0.0887482 -0.0183019 -0.215503 
-0.0832054 0.0638591 -0.314939 
-0.0201508 -0.0734523 -0.128248 

-0.0690453 0.0165207 0.866631 
-0.0254291 0.060983 0.203647 
-0.00615366 0.00488511 -0.0743649 

-0.0239368 -0.106631 -0.0711127 
0.202816 0.0579965 0.17849 
-0.00201034 -0.00140904 0.110428 

0.0200029 -0.0552196 0.26376 
0.0108236 0.013398 0.591069 
-0.00198046 0.00129223 0.0417615 

-0.419197 0.0879302 2.24918 
-0.46123 0.227024 -0.229377 
-0.0103648 0.0229735 0.622197 

-0.0431686 -0.0189031 0.0173171 
0.0251697 0.0138664 0.000824302 
-0.0342993 -0.0064697 0.352424 

0.0310882 0.00169389 -0.325838 
0.0168918 -0.0115569 0.293638 
-0.00592631 0.00480531 0.0448364 

-0.049674 -0.00702944 -0.0297583 
0.0172457 0.0183371 0.0119408 
0.00460438 0.000985377 0.0264294 

-0.0289028 -0.0305758 0.0583731 
0.0343537 0.0437591 0.220125 
0.000720693 0.000807479 -0.0129605 

-0.0460931 0.000913188 0.0062842 
-0.0228947 0.0286827 -0.0971997 
-0.00153559 0.00252135 0.0272001 

-0.012158 0.010991 0.0170451 
-0.00739897 0.00112413 0.0360088 
-0.000125502 2.77915e-05 0.0227414 

-0.0090068 0.000435363 0.157402 
-0.000384757 0.00460439 -0.0812987 
-0.00102669 0.000197543 -0.0327982 

-0.0568551 0.053419 -0.0853533 
-0.108179 -0.0235047 -0.189711 
0.00152588 -0.00226202 0.0498661 

-0.0220742 -0.00825256 0.0314231 
0.0141029 0.00682409 -0.0191512 
-0.00237275 0.00516747 0.033378 

-0.000642479 0.0112186 0.00341008 
-0.00672992 0.00108675 0.026984 
5.04856e-05 0.000116004 0.0100724 

0.229852 -0.611005 -0.0125264 
0.698707 0.269193 0.0235758 
-0.0021745 0.0013206 -0.0113836 

-0.0144274 -0.00397993 0.0335362 
0.00334225 0.00407869 -0.371797 
0.000373052 0.000156376 0.0307839 

-0.0311668 -0.0524009 0.0222711 
0.0436469 0.0117499 -0.0345129 
-0.0138603 0.0053244 0.0976019 

-0.560774 0.219924 1.77508 
0.412642 0.328795 2.42795 
0.00750113 0.0339249 -0.0909194 

-0.011907 0.00105083 0.0185351 
0.00627638 0.0060973 0.0177474 
0.00101302 0.000401988 0.00221279 

-0.142196 -0.111377 0.114516 
0.0249415 0.164579 -0.169647 
0.0158486 -0.0397569 0.167901 

-0.151497 -0.0441617 -1.03208 
0.0668191 0.155912 0.0298512 
0.0149734 -0.0132971 0.220853 

-0.208956 -0.443491 0.025031 
0.0388941 0.153984 0.0362258 
-0.0119757 -0.00192327 0.0451021 

-0.0295051 0.00737085 -0.0269039 
0.00262861 0.0230532 -0.136821 
0.000156779 0.00154135 0.0245317 

-0.0158855 0.00654446 0.0594434 
-0.0227806 -0.00080863 0.0259213 
-0.0125066 -0.0288192 0.177587 

-0.0242711 0.0876335 -0.0615645 
-0.0746359 0.01245 0.0333836 
0.000807596 0.000760159 0.0175231 

-0.0600165 0.0355631 0.0381104 
-0.025035 0.038616 0.016684 
-0.0258055 -0.0313927 0.283516 

0.0249975 -0.0899629 -0.0491834 
0.0959209 -0.00817763 0.0677087 
0.00120387 -0.00445103 -0.0224476 
