# vtk DataFile Version 3.0
Output file generated by Yade's KinematicLocalisationAnalyser
ASCII
DATASET UNSTRUCTURED_GRID

POINTS 13483 float
477.223 62.352 -0.414396
573.603 93.0773 0.442065
110.367 6.1091 -0.447906
596.174 9.14622 0.327644
427.599 8.30838 -0.377461
285.883 47.2356 0.5066
145.172 7.26619 0.450327
455.392 32.0756 0.146648
420.733 25.7039 -0.171965
547.704 16.4229 0.617577
193.298 9.29896 -0.114682
236.752 6.62837 0.29889
500.679 53.7397 0.143245
497.92 16.3487 -0.129233
126.89 18.738 0.497185
204.862 38.1395 -0.283959
200.467 13.1195 -0.306385
264.368 10.0637 0.462738
308.56 39.4108 0.425614
448.372 7.78313 0.508845
369.88 64.3762 0.0954911
470.796 80.8401 -0.261411
586.79 61.7026 -0.527624
532.191 80.387 0.501653
395.047 18.698 0.352675
221.579 50.0141 0.128926
403.442 35.3517 -0.588136
467.522 44.9096 -0.231627
42.409 16.9199 -0.526111
540.285 43.8993 -0.393805
413.743 4.46913 0.426543
14.683 24.96 -0.278651
580.61 79.7846 0.26101
425.464 2.22614 0.649915
72.7041 46.4113 -0.114504
417.581 41.5606 0.342589
453.177 16.9192 -0.481195
310.092 27.9416 -0.208652
426.479 44.1839 0.33511
319.055 41.3372 0.455369
222.528 14.9482 -0.331738
374.334 47.2638 0.0692281
524.905 29.3258 -0.162373
177.468 6.14213 0.438168
51.1662 7.18362 -0.107951
63.0994 8.95883 -0.247078
524.436 12.264 -0.611528
21.7252 12.2033 0.316681
492.657 89.9129 -0.107223
520.779 48.9694 0.3398
157.477 35.1068 -0.288919
563.504 83.291 -0.12256
32.0287 30.1465 -0.111464
457.923 2.56134 0.362099
131.688 7.26793 -0.508447
478.667 72.4551 0.374123
405.816 43.6172 -0.127354
162.504 1.02938 -0.30891
30.077 2.38718 0.348874
313.732 21.4996 0.402893
504.365 94.0425 -0.133978
397.774 40.8813 0.176263
345.951 0.996094 0.22463
532.947 7.78525 0.372362
23.3695 44.9551 0.246167
236.009 34.5786 -0.299649
549.17 9.36858 0.564783
509.422 86.5752 0.343223
362.51 9.66736 -0.653836
465.025 14.3039 -0.533362
556.962 68.4602 0.452875
121.171 7.86693 -0.259191
417.291 27.2373 -0.174994
409.464 13.5326 -0.423394
270.772 16.839 -0.349202
19.0564 14.1591 -0.299276
576.102 67.9289 0.31074
301.72 46.2534 -0.327729
521.795 45.4224 0.436681
526.058 20.9549 0.29563
582.966 31.5991 -0.375654
398.413 45.0534 0.168124
86.6288 41.2896 0.275374
525.232 88.4969 0.206259
495.09 67.5622 -0.122439
591.115 65.9962 0.156338
596.441 0.784708 -0.690331
268.021 31.6138 0.441932
490.203 6.77819 -0.181193
23.1795 6.30733 0.646045
121.233 40.947 -0.167278
440.493 15.329 0.299858
571.87 53.8014 -0.525553
180.333 30.9711 0.249119
40.6881 38.2768 -0.280429
424.307 1.14826 0.136857
217.815 9.19518 -0.451891
548.238 91.033 -0.261959
568.843 63.3719 0.270414
323.107 25.8043 0.292963
151.143 29.4607 -0.47392
434.496 66.0789 -0.449607
337.017 25.4916 -0.519908
368.444 52.2196 0.108872
336.148 7.80135 0.553234
436.991 29.2834 0.10672
594.14 24.9954 0.327749
74.9711 41.1317 -0.430603
304.942 6.58653 -0.442222
450.086 31.4078 -0.438998
325.907 55.4898 0.470662
22.7334 26.2805 -0.455506
28.5512 6.19602 0.417868
454.959 62.0012 0.411107
425.647 25.0614 -0.168495
22.7814 38.4215 0.433622
87.9825 33.0979 -0.2251
296.641 19.6417 -0.288847
478.829 33.7117 -0.119713
397.461 59.4266 0.157376
562.774 7.1687 -0.541969
555.593 8.02289 -0.340235
353.098 51.661 -0.103759
496.041 40.0998 -0.102788
220.645 17.6126 0.584545
302.082 5.98829 0.600676
97.1217 35.0425 -0.300333
107.703 25.0654 0.297963
429.843 64.9587 0.0762646
281.767 18.928 0.541024
527.705 56.9475 -0.110013
513.229 90.1102 0.103767
412.462 20.3517 -0.456255
561.964 35.8158 0.350556
366.097 31.0726 -0.23813
256.891 25.4448 0.333684
517.258 73.4029 -0.341563
258.074 30.7661 0.36532
464.39 36.6617 -0.239576
302.148 42.751 0.239746
435.152 12.6924 0.592922
336.486 42.2691 -0.0829443
373.703 20.0153 0.158451
290.911 54.2816 -0.449613
176.599 32.7884 0.1133
574.544 87.9639 -0.146306
591.782 27.0599 -0.263413
5.85794 12.3389 0.443591
373.768 26.8483 -0.483983
35.9356 24.4971 0.0736122
345.456 43.792 -0.461944
353.746 33.401 -0.30258
69.3316 12.4975 -0.470132
47.1784 38.5248 0.57688
210.092 15.1487 0.583345
479.445 46.6241 -0.433494
460.826 49.0556 -0.493703
68.3893 23.1728 -0.514197
534.846 77.2544 0.425468
586.111 3.79898 -0.58925
507.982 77.9049 0.453613
528.639 1.9 0.644734
440.776 53.6285 0.43656
472.098 81.8526 0.448131
443.915 19.0068 -0.473476
594.274 9.04097 0.357395
208.48 28.5196 0.133804
116.673 38.1094 -0.190261
229.784 6.80199 0.425562
87.0166 4.91881 -0.263941
59.544 10.5038 0.271556
255.975 39.4786 -0.415862
15.4835 26.6444 -0.400021
446.348 42.3426 -0.415023
493.719 84.9905 -0.200647
402.184 25.061 -0.429965
594.647 89.6819 0.345752
356.336 8.94401 -0.164366
374.28 39.8769 -0.465104
464.788 3.92872 -0.433767
20.8494 25.1058 0.416036
463.923 20.8624 0.43332
471.513 6.55857 0.624817
192.054 12.1285 0.529831
370.969 18.4898 -0.350262
289 6.35338 0.434611
346.885 27.7775 -0.408704
546.757 77.2078 0.108845
179.57 27.2023 -0.418538
577.552 22.5962 -0.329292
550.285 76.3806 0.310309
340.912 17.3968 -0.197092
548.28 2.43027 -0.511866
476.418 40.8519 -0.608784
567.705 17.7899 -0.629251
383.073 54.2755 -0.291077
430.467 13.475 0.518934
387.886 60.8288 -0.22368
389.123 11.8422 -0.211926
511.397 79.8436 0.253887
511.984 75.7575 -0.293309
178.902 41.8765 0.355767
580.768 31.4833 -0.21963
473.864 83.2765 0.241863
10.0268 17.9085 0.263702
360.875 34.92 0.364449
175.192 24.587 -0.452265
87.131 43.1256 -0.202331
569.962 52.061 -0.424787
502.16 81.5923 -0.295205
293.691 30.7508 0.352817
462.038 9.74513 0.383493
77.4589 46.3385 -0.19272
229.388 28.2514 -0.521628
446.677 48.1106 0.38142
422.243 18.9305 -0.614188
244.358 0.879442 -0.537838
443.467 69.8777 -0.370131
422.543 64.4306 -0.411976
407.861 64.0144 0.397669
434.566 2.14755 -0.662891
535.722 20.6775 0.447742
168.34 13.1505 -0.255157
424.272 72.6416 0.41635
454.157 69.7844 0.112584
68.923 0.924327 0.348659
235.02 5.19122 0.195178
591.297 30.5228 0.239489
582.968 33.6055 -0.466252
596.157 30.3556 -0.665997
281.796 8.64059 -0.252827
548.91 42.867 -0.505907
371.365 69.6665 -0.214489
389.546 0.852646 0.652505
501.143 68.2913 -0.50299
23.8591 32.0386 0.309144
304.239 48.7797 0.467691
235.719 3.36749 0.440685
582.283 75.7108 0.167252
537.899 70.9797 0.248347
266.862 11.3839 0.321937
509.398 66.0806 -0.0720458
474.283 5.66035 -0.329226
468.966 11.3485 0.455506
90.5217 18.9237 0.526246
281.681 1.04445 -0.25382
312.807 3.22599 0.541921
13.4546 7.65163 0.481429
4.8375 34.0342 0.232025
152.141 20.1231 0.389
64.2935 44.5268 0.235244
60.7521 31.7101 0.314544
370.578 15.553 -0.605466
338.236 48.3595 -0.501625
560.565 87.9085 -0.114314
19.0975 4.11692 -0.27294
66.2968 7.21081 0.11837
485.694 52.7277 -0.160317
273.34 0.911317 0.4246
327.497 20.3568 -0.0944137
220.203 5.07865 0.421634
505.118 38.7601 0.189655
392.495 10.9524 0.451045
569.647 27.1883 -0.458982
497.196 43.063 -0.338212
520.918 43.7412 -0.0884964
369.516 40.4807 0.536057
93.6951 50.9175 -0.303428
432.379 69.3818 -0.0852321
566.551 12.6176 0.411041
222.315 33.4475 0.240854
29.9361 19.0178 0.19487
308.492 16.6192 0.64702
99.6294 46.9688 0.473384
251.325 45.4202 0.193489
373.942 2.55312 -0.215772
572.567 57.7592 0.468196
522.586 4.87003 0.61526
305.204 5.36824 0.703878
279.059 30.8302 0.159154
390.036 58.0502 -0.219955
76.3741 9.48532 -0.550554
184.878 48.0569 -0.396478
568.012 68.4008 0.3972
418.808 73.8616 0.0635609
187.181 43.8269 -0.310556
148.622 45.6483 0.399473
597.484 57.972 0.445582
593.413 26.3764 -0.583364
483.172 6.02508 -0.644736
178.132 26.1014 0.109933
442.588 54.1187 0.0992003
445.174 56.4364 0.266499
360.764 6.00338 -0.12478
419.489 0.911381 0.452066
561.623 93.0545 -0.505049
80.624 32.6944 -0.225356
508.735 38.4412 -0.481835
255.359 16.8997 -0.403737
9.01403 2.38424 -0.328141
115.686 39.9773 0.210697
60.4972 25.1209 0.483012
524.441 67.1667 0.313214
589.096 83.5536 -0.16864
174.547 32.002 0.193833
591.225 33.3342 -0.450126
41.6204 40.5119 0.242141
86.8725 31.4995 0.161533
505.316 17.5222 0.474318
364.489 18.4085 -0.569433
451.304 16.862 -0.146722
221.915 31.5242 -0.193893
496.872 4.67958 -0.609938
596.163 25.256 0.451062
27.032 33.1714 -0.261921
250.924 8.90963 -0.188575
207.815 16.0003 0.29143
1.09275 39.3718 -0.155669
210.998 15.8311 -0.450717
198.108 11.3154 -0.157393
201.315 27.5409 -0.303267
123.27 30.8993 -0.131051
442.17 36.756 -0.298199
157.126 15.5574 -0.346888
578.172 80.4116 0.26331
164.334 4.34427 0.580767
43.1715 43.2763 -0.357265
540.421 84.9027 -0.480689
262.313 34.8708 -0.388311
526.246 49.5592 0.469384
577.559 60.0741 -0.533194
279.951 9.33999 0.168787
547.515 55.2539 -0.356785
303.627 2.94554 0.596394
362.99 28.4731 0.422076
527.687 43.7022 0.505302
98.9023 12.0717 -0.549646
421.546 3.66108 -0.557066
557.371 33.4481 0.179313
82.1804 7.99377 0.310946
262.668 15.3925 0.21132
371.736 13.9722 -0.315091
594.096 12.9389 0.647809
351.115 1.66247 -0.592116
164.493 42.1481 0.354511
569.194 10.1792 -0.526493
118.629 39.0532 0.218958
245.651 33.8013 -0.406017
357.311 31.1741 0.242242
464.939 39.7001 0.483029
345.002 14.4434 -0.624515
396.772 33.1021 -0.429054
573.138 91.6005 0.373381
44.9435 12.3232 -0.130487
278.041 42.5374 -0.26518
345.584 37.0171 -0.401819
360.607 21.678 -0.309476
411.497 57.938 0.365004
555.002 93.1354 0.230305
517.105 79.491 -0.0749129
212.578 39.5932 -0.429836
10.5203 35.3462 0.161362
510.461 74.4173 0.139682
434.997 76.2053 0.364664
216.405 44.0993 0.117602
519.068 74.3054 0.113179
142.439 9.46953 0.254051
329.527 28.225 0.287943
389.885 60.0985 -0.132243
364.382 20.232 -0.290092
572.032 97.039 0.291084
374.785 5.43332 0.620816
46.1538 29.142 -0.329069
402.159 54.6628 0.360366
375.448 45.4829 -0.181249
577.795 72.9466 0.245087
544.696 47.7067 0.259636
436.244 40.0555 -0.152408
570.79 81.694 -0.517848
273.063 2.17282 -0.49591
348.385 42.1687 0.455602
25.7155 40.3333 0.34102
553.989 60.5477 0.146822
488.642 25.2924 -0.688776
402.579 0.744198 -0.562772
118.251 4.8002 0.346492
381.592 55.6647 -0.121255
11.3703 0.903223 0.317046
591.829 14.1614 0.150734
341.623 54.5135 -0.432139
487.494 8.87201 0.697517
[...]
POINT_DATA 13483
TENSORS Strain_matrix float
-0.598409 1.88072 -3.85712 
-0.0746963 0.727863 1.06082 
3.0686e-18 2.00798e-18 1 

-2.2845 1.21118 47.6828 
-0.229135 0.544654 16.2545 
-4.786e-18 2.38776e-18 1 

-0.260258 -0.0154826 -0.398685 
0.083549 0.0731808 -1.6979 
-6.58565e-18 -2.08764e-17 1 

-2.62151 -1.61339 -0.363619 
0.781677 1.04185 0.444844 
6.86213e-18 1.34513e-17 1 

-0.715796 -0.412301 0.0655587 
0.024167 0.0713071 -0.270227 
-8.31767e-18 8.54738e-20 1 

-0.590118 -0.499448 -0.859377 
0.337592 0.426345 -0.180722 
-5.63377e-19 -7.25658e-18 1 

-0.155839 -0.0446654 -0.2194 
0.049023 -0.0633481 -0.161067 
1.25665e-17 1.09433e-17 1 

-0.296893 -0.179696 -1.7094 
0.313032 0.20638 -0.0764874 
9.65082e-19 2.57355e-19 1 

-0.453029 -1.91015 -1.06983 
0.367755 0.769146 -1.15565 
1.06008e-17 9.55237e-18 1 

-0.620494 -0.187127 1.53158 
0.431693 0.175095 -1.34185 
1.93243e-17 2.66542e-18 1 

-0.211175 0.0226143 -0.0457822 
-0.0166695 0.0358431 -0.0555216 
6.96899e-19 -1.46497e-18 1 

-0.312009 -0.0242715 -1.02145 
-0.172405 0.0365687 -1.18638 
-1.71846e-19 -4.37888e-18 1 

-0.821696 0.128953 -0.980568 
0.404373 0.388848 -1.61622 
8.99737e-18 2.27654e-17 1 

-0.533965 0.144788 0.582911 
0.125392 -0.00659276 -0.199168 
-1.38801e-17 1.43035e-17 1 

-0.169569 -0.190357 -0.603078 
0.174624 0.0121057 0.103109 
-2.76813e-18 -1.72066e-17 1 

-0.0825832 -0.300319 -0.812368 
0.266548 0.0762187 -0.662203 
-4.54793e-18 -1.33864e-17 1 

-0.118623 -0.0398833 -0.137982 
0.00369614 -0.110081 -0.01115 
7.43215e-18 7.50799e-18 1 

-0.227622 0.0107209 0.0212491 
0.0184569 -0.115055 -0.126101 
-2.14189e-17 7.94841e-18 1 

-0.0974076 -0.00543652 0.013445 
-0.0695571 -0.103435 -0.214812 
-7.08521e-19 -1.31648e-17 1 

-0.254688 0.143725 0.79908 
-0.215499 -0.0500886 1.86721 
-5.28934e-18 -6.41248e-19 1 

-0.201422 -0.0494141 0.359873 
0.153635 0.0512546 0.303755 
1.0044e-18 -4.3001e-18 1 

-0.0653677 -0.475844 -0.420498 
0.40126 0.0743021 -0.311908 
-1.10425e-17 1.6041e-18 1 

-1.0356 -0.215288 -1.90192 
-0.263611 0.308682 5.56244 
1.09192e-18 2.41132e-19 1 

-0.502994 1.32875 -28.1728 
-0.769352 1.18589 16.068 
-1.89817e-19 -4.75493e-18 1 

-0.620088 0.0623918 -0.574604 
-0.362023 0.322783 0.389521 
-2.2853e-17 3.96284e-18 1 

-0.400436 0.00320802 1.06365 
-0.0212188 0.2049 -0.276883 
-1.86454e-18 -1.258e-18 1 

-1.53193 -0.431122 -4.63158 
-0.0125949 0.413093 7.96243 
-3.84631e-18 4.39597e-18 1 

-0.669085 -0.8043 5.86018 
-0.33549 0.161955 2.93617 
3.35599e-18 8.93533e-18 1 

-0.206873 0.0397665 2.90298 
0.016618 0.037814 0.0538803 
8.8773e-19 4.46926e-18 1 

-2.93815 -5.30298 -5.27376 
0.836466 1.55023 1.0886 
1.25018e-17 1.55986e-17 1 

-0.181257 -0.131006 -0.068555 
0.0801016 -0.313938 0.2747 
-9.29282e-18 4.30148e-18 1 

-0.337342 0.270358 -0.938726 
-0.0163548 0.153532 -0.0592707 
-2.24262e-17 -6.45267e-18 1 

0.0446177 0.625603 0.096826 
-0.608695 0.281509 2.11438 
-1.05719e-18 2.23185e-18 1 

-0.369517 0.00211884 -2.3425 
0.00307918 0.0700123 -1.83127 
3.03553e-18 1.17988e-17 1 

-0.165039 0.0625366 0.168525 
-0.123696 -0.0850209 0.391437 
-1.09903e-17 1.95355e-17 1 

0.200301 -0.911119 0.273592 
0.798174 0.48755 -0.130345 
4.3118e-18 1.31676e-18 1 

-0.720554 -0.532849 -0.800899 
0.0542809 0.461207 -1.68255 
8.32663e-18 -8.2749e-18 1 

-0.285131 0.198774 -0.072742 
-0.241763 -0.0271022 -0.37787 
1.06577e-17 -3.04507e-18 1 

-0.309136 -0.522952 1.25766 
0.740403 0.581742 1.69572 
-3.41511e-18 6.7235e-18 1 

-0.139855 0.0797122 -7.28312 
0.237881 0.0047429 1.55605 
9.53663e-18 -1.13161e-17 1 

-0.320132 -0.088637 0.804823 
0.0474766 0.0509408 -0.439052 
9.7685e-18 -1.6628e-17 1 

-0.1654 1.64732 1.21692 
-1.44976 1.86742 -0.0388209 
-1.13598e-17 -3.96152e-18 1 

-1.19905 -0.154469 -0.615256 
-0.55584 0.0903445 -0.312332 
-2.52419e-18 -3.97044e-18 1 

-0.49522 0.254627 -0.367247 
-0.241388 0.0846622 0.0236868 
2.80394e-17 -2.77008e-17 1 

-0.140575 0.0651196 -0.0756455 
-0.048456 -0.0596461 0.18574 
-8.86687e-18 6.56805e-19 1 

-0.106536 -0.0612595 -0.0380044 
0.0110097 -0.0105254 -0.0867352 
6.21076e-18 1.05516e-17 1 

-1.55094 0.522385 -0.890392 
-1.6101 0.788617 0.368129 
-2.32177e-17 -3.0799e-18 1 

-0.0640446 -0.0332778 0.0252136 
0.0329313 -0.194878 -0.0241378 
9.98656e-18 -9.80162e-18 1 

-0.0251613 -0.238421 -0.0683294 
0.261115 0.0192547 -0.132433 
4.94848e-18 2.48434e-17 1 

-0.31325 -1.28469 -0.222466 
0.604388 0.25197 0.676878 
-1.93721e-18 -6.00274e-18 1 

-0.148353 -0.186162 0.0299459 
-0.0282152 0.0629381 -0.111339 
0 2.96982e-18 1 

-3.19551 -1.93198 -12.9865 
-0.125428 0.694066 0.454494 
-9.54153e-18 1.22677e-17 1 

-0.107976 -0.0445755 0.20567 
0.0185778 0.00110272 -0.125112 
-4.77132e-18 -5.34435e-18 1 

-0.416559 0.051412 0.0021842 
-0.0965715 0.0166088 -0.3214 
2.49416e-18 -8.72957e-18 1 

-0.211659 0.0379832 -0.343267 
-0.0349874 -0.0808585 0.250327 
-5.70821e-18 -2.49734e-18 1 

-1.35893 1.04228 -33.6573 
0.291293 0.395143 -7.61541 
7.22485e-18 -2.79371e-19 1 

-8.13485 1.57731 -3.5596 
-1.31006 0.762728 5.91828 
9.77047e-18 -1.42652e-17 1 

-0.186223 0.603747 0.701574 
0.0145521 -0.0188199 -0.830394 
1.10706e-17 -2.18408e-17 1 

-0.114908 0.124708 0.248214 
-0.0916 -0.0546447 0.186145 
-6.88029e-18 -2.32668e-17 1 

-0.59152 -0.0718167 1.40595 
-0.120971 0.181189 0.390701 
-2.43893e-19 7.70702e-18 1 

2.1841 -17.5634 30.6238 
0.22551 0.23548 0.434734 
-4.74412e-18 1.27234e-17 1 

-0.588316 -0.416166 -2.16304 
0.675117 0.524525 2.1125 
3.68727e-18 -3.96556e-18 1 

-0.436793 -2.14524 2.02243 
-0.105032 -0.0106481 0.993456 
8.74028e-18 1.49967e-18 1 

-0.246938 0.0575875 -0.317937 
-0.000419767 -0.0113646 0.293537 
-1.14949e-17 -1.71869e-17 1 

-0.730576 0.201269 1.65683 
-0.0370153 0.312778 1.01783 
7.44749e-18 -5.64204e-18 1 

-0.23224 0.337793 0.303862 
-0.240417 0.182922 0.661735 
1.46409e-18 6.69114e-18 1 

-0.54113 -0.0674537 0.464089 
0.352104 0.0890123 -1.42373 
4.23113e-19 -1.05778e-18 1 

-2.0911 -0.592305 23.1856 
0.521712 0.522064 1.19902 
-4.22935e-18 -1.13804e-18 1 

-0.392444 0.0108569 -0.420512 
-0.093827 0.0336309 -1.6807 
2.15295e-19 6.42719e-19 1 

-4.50205 -7.79533 -13.4345 
1.72775 2.75569 10.4882 
-2.87335e-17 -1.56522e-17 1 

-3.69696 1.44036 -5.61509 
0.639509 0.41833 -8.2498 
1.33761e-18 -1.85208e-18 1 

-0.137246 0.116119 0.125333 
-0.0550619 -0.028066 -0.107565 
-3.78931e-18 -6.38199e-18 1 

-0.291555 -3.7332 -3.11099 
0.325261 0.234354 -1.03573 
-3.74392e-18 -7.48785e-18 1 

-0.344099 -0.139104 0.0576997 
-0.0092442 -0.120916 -0.0425839 
1.25968e-17 1.18349e-17 1 

-0.247965 0.0591483 0.611992 
0.00414075 0.0242717 -0.501362 
4.99688e-18 7.31458e-18 1 

-0.152318 0.0330314 0.0466532 
-0.110929 -0.07876 -0.10812 
-5.45635e-18 -1.10258e-17 1 

-2.88487 0.202173 -3.40368 
-0.0583355 0.693731 -1.3965 
-1.08481e-17 -1.02808e-17 1 

-0.162057 0.285418 -0.415429 
-0.401344 0.0685446 -1.17012 
2.68039e-18 -7.01277e-18 1 

-0.0505932 -0.711107 -0.592123 
0.427246 0.0976328 0.10374 
-9.02243e-18 6.61645e-18 1 

-1.86127 1.86964 4.38505 
-1.26947 1.2193 1.16315 
-7.97623e-18 -5.25125e-18 1 

-0.302554 -0.112362 0.133704 
0.170265 -0.120931 0.188888 
2.11747e-18 -5.5491e-18 1 

0.259032 -0.419887 -1.62343 
0.786598 0.294152 0.00504164 
0 1.18026e-17 1 

-0.272531 -0.312138 0.516038 
0.243379 0.219778 0.242385 
0 3.93569e-18 1 

-0.948755 -0.394684 1.77895 
-0.261559 0.516642 -0.157621 
2.3264e-17 -1.98461e-18 1 

0.000589432 -1.12376 0.290911 
0.56788 0.524294 0.500925 
-1.35906e-18 -3.71953e-18 1 

-0.420752 0.656591 0.682752 
-0.51629 0.421477 -0.479508 
-8.39974e-19 -6.69709e-19 1 

-8.87164 9.60641 162.776 
-0.0645765 0.374312 2.89442 
-3.81231e-18 3.36849e-17 1 

-0.0253215 -0.0667715 0.720998 
-0.0667927 -0.173991 0.137461 
-6.31308e-18 1.13635e-17 1 

-0.213601 0.156785 -0.25304 
-0.197413 -0.0532992 0.00539853 
-1.46475e-17 -1.17895e-17 1 

-0.245902 0.00676576 3.17425 
0.0418069 -0.0716538 -1.84879 
-7.7995e-18 9.61215e-18 1 

-0.134191 -0.0832912 0.151678 
-0.075767 -0.0339942 0.0174559 
-1.34059e-17 -1.07248e-17 1 

-0.381849 0.186618 -0.144918 
-0.153424 -0.0758985 0.442849 
3.73092e-18 -9.15772e-18 1 

-1.66 0.0157537 14.715 
-0.202188 0.457988 -3.78039 
1.79651e-18 1.69533e-18 1 

-0.152362 -0.139843 0.353579 
0.0498711 0.0625904 -0.147347 
-6.07964e-18 -9.67693e-19 1 

-0.0870223 -0.163968 0.031387 
0.193537 0.0951966 -0.686424 
2.05186e-17 -7.22061e-18 1 

-0.315569 0.199401 -0.101364 
0.0128036 -0.0933104 -0.0510655 
1.36035e-18 -2.35576e-17 1 

-0.201996 -0.0140179 -0.0940286 
0.0446926 -0.0113487 -0.390458 
1.51644e-17 -4.07553e-18 1 

-0.160581 -1.19681 1.10386 
0.736357 0.734733 0.394251 
8.18053e-18 -4.38602e-18 1 

-3.99233 -0.221709 0.120958 
-0.360301 0.923531 -0.377336 
-1.4632e-18 -1.18777e-17 1 

-0.982536 0.277074 0.589361 
0.0152113 0.44688 -0.877342 
-7.28096e-18 -7.88245e-18 1 

-0.180579 -0.256191 -3.37649 
0.110836 0.118042 1.31776 
-7.5164e-18 3.51832e-19 1 

-0.417923 0.106477 -58.8392 
0.167226 0.0727923 -13.4341 
-4.09929e-18 1.43417e-17 1 

-0.568285 -0.146562 0.858857 
0.198473 0.112329 3.82894 
3.0097e-18 -1.04085e-17 1 

-4.11259 3.27289 -9.18096 
-0.0458309 0.865631 -0.88009 
-1.66408e-18 5.52559e-18 1 

-1.18851 -0.0558889 1.33597 
0.136602 0.399353 0.633094 
-2.01591e-18 2.12074e-17 1 

-3.51109 -4.60099 2.76481 
1.8624 2.31225 1.45644 
-2.15908e-18 8.6664e-18 1 

-1.01175 0.000829249 -0.38408 
-0.148176 0.235818 -0.171846 
-1.53544e-17 3.87817e-18 1 

-0.154828 0.00492983 -0.354995 
-0.107153 -0.00975645 -1.42021 
-2.97212e-18 -1.55067e-18 1 

-0.671871 0.0937942 0.622505 
0.0918487 0.0946327 0.545681 
3.82771e-18 -1.31002e-19 1 

-0.314025 -0.0480838 0.406245 
0.117149 0.0534879 -0.735979 
3.26339e-18 3.20808e-18 1 

-0.261523 0.111024 3.91791 
0.0551018 0.907565 14.7452 
-1.62526e-18 9.39305e-18 1 

-0.190596 -0.170283 -0.717943 
0.0570752 0.0173084 0.208504 
-2.26637e-17 -3.96128e-18 1 

-0.223653 0.226383 -0.406214 
-0.206102 0.00869791 0.861502 
-1.60389e-17 1.98056e-17 1 

-0.203301 0.557721 0.73262 
-0.00396162 0.118683 -1.16277 
-1.94376e-19 1.95105e-17 1 

0.431029 -3.1541 1.55492 
0.101192 0.0521759 -1.61567 
-7.93353e-18 2.90896e-18 1 

-0.205753 -0.047238 2.89813 
-0.00327952 0.0479458 6.39434 
-1.57461e-18 -8.03529e-18 1 

-0.106588 -0.00586254 -0.00499996 
0.118897 0.0163881 0.261042 
-4.52982e-18 -9.26554e-18 1 

-0.404165 0.00426878 -0.620229 
0.187514 0.139258 0.0258886 
-1.02177e-17 -9.59956e-18 1 

-1.56813 -1.51104 0.0373252 
-0.317296 0.169305 -0.0859175 
7.1476e-18 8.5678e-18 1 

0.259391 -0.797462 0.334494 
0.815912 0.437296 0.34134 
7.01809e-18 1.36268e-17 1 

-0.671522 -0.209511 -0.430946 
0.231592 -0.138822 -0.0421293 
-1.84323e-17 -1.30966e-17 1 

-0.4773 0.394809 0.406939 
-0.771337 0.133482 0.443101 
-3.78765e-18 5.1051e-18 1 

-0.0337356 -0.391074 0.215743 
0.307008 0.0428726 0.112348 
4.47749e-18 2.1471e-18 1 

-1.63654 0.331506 1.88963 
-0.0523537 0.679631 -1.55846 
-2.86896e-18 8.21566e-18 1 

-0.268435 -0.0881115 0.2897 
0.146534 0.0680015 3.32623 
-8.44648e-19 6.55447e-18 1 

-0.458955 -0.228083 -0.278881 
0.0230049 -0.28319 -0.881329 
-2.45357e-19 -4.55819e-17 1 

-0.291821 -0.360614 0.997386 
0.190787 0.220734 0.625328 
-1.68472e-19 -3.20829e-18 1 

-0.344877 0.136102 -0.690269 
-0.26483 0.218732 0.826984 
-5.21397e-19 1.53745e-19 1 

0.0225083 -0.428063 0.00116107 
0.379678 0.0337665 -0.25949 
5.19162e-18 -3.01299e-18 1 

-0.653844 -0.275453 0.306227 
0.332844 0.343948 -0.330211 
1.01712e-17 3.38475e-18 1 

-1.75012 -2.24891 4.40429 
-0.736294 -0.463736 0.8357 
-3.94349e-18 6.59127e-18 1 

0.229595 -0.71981 0.301912 
0.884249 0.460976 0.152343 
1.62346e-17 3.4504e-18 1 

-0.575849 -0.458663 -2.15213 
0.116487 0.205298 1.00541 
-7.17972e-19 -1.07901e-17 1 

-0.728974 0.243622 0.784326 
-0.388507 0.153654 0.779547 
-2.83249e-18 2.13807e-17 1 

-1.24888 0.305584 -2.30104 
0.190638 0.456577 1.23971 
-1.15161e-17 -4.00184e-18 1 

-0.163393 -0.0121481 1.01949 
-0.0435164 0.115044 0.954698 
7.34847e-18 -4.15374e-18 1 

-4.73997 0.548454 12.1194 
-0.105729 1.04904 -1.32434 
-3.27917e-18 1.55761e-18 1 

-0.325259 -0.0953298 -0.380005 
0.106364 0.186209 1.71826 
-1.14326e-17 -1.09791e-18 1 

-1.63242 0.464647 1.16715 
-0.293638 0.50382 -0.344801 
5.99674e-18 -3.57253e-18 1 

-0.0982686 0.17568 0.887756 
-0.344648 -0.0896071 1.33958 
7.28271e-19 3.63225e-18 1 

-0.312616 -0.15765 -0.328274 
0.114116 0.00489015 -0.740052 
-1.00285e-17 2.11126e-18 1 

-0.929394 0.695251 2.08109 
0.032108 0.552913 -0.0320938 
-2.16571e-18 -1.01565e-17 1 

-0.228953 -0.272245 0.00910705 
0.333253 0.0533311 -0.596283 
-1.77182e-17 -1.33027e-17 1 

-0.279904 0.0536345 -4.9802 
-0.0232462 1.01257 -34.9867 
-4.68863e-19 1.67472e-18 1 

-0.230036 -0.382775 -0.384307 
-0.128932 -0.0356503 0.849145 
2.13255e-17 1.03774e-19 1 

-0.188946 0.682645 0.312891 
-0.56234 0.379604 -0.306733 
-2.22123e-18 2.99012e-19 1 

-1.01635 0.0256602 0.270462 
-0.523247 0.321538 -0.204739 
-7.33892e-18 -1.0581e-17 1 

-0.190615 -0.027519 -0.558316 
-0.0378754 -0.0331002 -0.0439348 
-7.72159e-20 7.77227e-18 1 

-0.1029 -0.414458 -1.09526 
-0.109302 -0.0568777 -1.77233 
-7.48677e-18 -5.63866e-18 1 

-0.0979217 0.0331243 0.439179 
0.0218503 0.0625972 0.308456 
8.80276e-19 -9.18161e-18 1 

-0.149223 0.348983 11.2327 
0.0249809 0.0765963 1.46539 
-2.42981e-18 -9.91598e-18 1 

-0.936581 0.644127 -2.40281 
0.027271 0.551565 -0.0529924 
-4.11698e-18 7.5889e-19 1 

-0.230475 -0.12022 0.487861 
0.0836816 -0.00713736 0.28278 
-1.68378e-18 -8.85945e-18 1 

-0.224093 -0.0858248 -14.6313 
-0.00317531 0.137617 5.95814 
-1.81318e-18 2.08213e-18 1 

-0.219288 -0.0774424 -0.0474453 
0.00495259 -0.0147742 -0.077426 
-8.74405e-18 3.75678e-18 1 

-0.794455 -0.752601 -0.661457 
-0.891556 0.0357974 -4.89316 
-2.74697e-17 -2.28914e-18 1 

-0.583905 -0.641585 2.76007 
0.0316515 0.196924 2.75795 
2.24561e-19 5.21746e-18 1 

-0.15907 -0.0172387 -1.3485 
0.0101039 0.0492504 -0.924795 
-2.17182e-18 -1.18814e-17 1 

-2.10627 0.640623 -15.337 
-0.509474 1.07535 10.3242 
-6.83062e-18 -1.18894e-17 1 

-1.42396 -1.11716 0.759212 
0.486021 0.475741 0.123957 
9.81494e-18 1.95422e-17 1 

-0.839007 0.638795 108.005 
0.482731 0.406733 18.8284 
1.27924e-17 2.06099e-18 1 

-0.465728 -0.550517 4.4685 
0.0409894 -0.36042 1.01439 
-2.01649e-18 -8.02284e-17 1 

-0.60115 -0.0123323 -13.2777 
-0.188373 0.263976 -9.74288 
-1.22772e-17 1.29207e-18 1 

-0.570296 0.954354 5.77899 
0.217012 0.529691 8.25662 
8.52999e-19 1.48361e-17 1 

-0.551085 -1.68894 17.7238 
0.191689 0.293459 -4.38852 
2.81689e-18 -1.28821e-17 1 

-3.24689 -1.13851 4.60936 
-0.353459 0.21182 0.334635 
-1.67996e-18 1.4127e-17 1 

-0.195745 0.208326 0.592658 
-0.196511 0.17709 -0.185712 
-1.07947e-18 1.46219e-17 1 

-0.269569 0.108876 -0.0621789 
0.135505 0.0912541 0.252309 
-4.52197e-18 -1.86531e-18 1 

-0.168048 -0.112817 -0.017894 
0.142301 -0.0797019 -0.145038 
5.12659e-18 5.03504e-18 1 

-0.272806 -0.0985443 0.152097 
0.0208974 0.00500888 0.755191 
-5.31464e-18 1.40643e-17 1 

-0.276735 -0.0833254 0.121015 
-0.021093 0.0591598 -0.443199 
-8.95226e-18 6.0235e-18 1 

-0.155042 -0.0550358 -0.0332525 
0.136968 0.0548861 0.43652 
-8.0749e-18 5.35846e-18 1 

-0.720949 -0.115038 2.86925 
0.0460721 0.219448 -1.21133 
9.07807e-18 5.28178e-18 1 

-0.0283829 -0.925411 2.24417 
0.0285629 0.0010667 -0.450465 
-2.52353e-18 -2.07015e-17 1 

-0.0224566 -0.244047 -0.0342498 
0.27019 -0.0160127 -0.107182 
-2.16236e-17 1.19021e-17 1 

-0.821768 -0.318126 1.82464 
-0.362927 0.444523 0.388684 
9.28896e-18 1.12757e-17 1 

0.0212293 -1.1856 0.0394472 
0.816345 0.956738 -0.370599 
1.06413e-17 -1.02535e-17 1 

-0.210048 -0.0161926 0.079446 
-0.0371656 -0.0556586 -0.108563 
9.37803e-18 1.80723e-17 1 

-0.16047 0.0412989 -1.94044 
-0.346226 -0.0269486 -1.74669 
3.0853e-18 -1.79349e-18 1 

-0.517669 -0.201827 0.0448911 
0.305076 -0.00834951 -0.195759 
-1.32984e-17 1.15732e-17 1 

-0.254423 -0.0476113 1.16712 
-0.017883 0.041034 0.10907 
-3.18976e-18 1.80578e-18 1 

-1.50448 -1.1284 5.67161 
-0.0519757 0.718618 -0.846765 
5.51792e-18 -5.8943e-18 1 

-4.63817 -5.51607 -9.65521 
0.651377 0.881616 3.69475 
-8.36983e-20 3.0904e-18 1 

-0.199223 0.0629568 1.19568 
-0.0549815 -0.000631429 -0.542626 
-2.59292e-17 7.93222e-18 1 

-0.708429 0.0499495 -0.388602 
0.369646 0.142529 -0.571994 
-7.40888e-19 -5.32199e-19 1 

-0.332429 -0.0754925 -0.971107 
0.120342 -0.0433924 0.284647 
6.76245e-18 -7.66229e-18 1 

-0.26851 0.341827 -1.30499 
-0.576651 0.16237 0.7855 
6.19869e-18 -9.43174e-18 1 

0.97091 -1.05404 -0.0108004 
1.10645 1.19113 0.0653953 
-5.79601e-18 3.10501e-19 1 

-0.181842 -0.0900647 0.838547 
0.160456 0.0109259 -0.980017 
-1.03845e-17 -1.08172e-17 1 

-8.10577 -5.39534 1.79675 
1.23041 1.80858 2.90513 
-7.64314e-19 7.38836e-18 1 

1.09744 -1.04243 0.66109 
1.10835 1.13456 0.158102 
-2.3185e-17 -2.42122e-18 1 

-0.688875 -0.148733 -0.160705 
0.0284879 0.336982 -0.599833 
1.38372e-17 -3.66278e-18 1 

-1.13308 -0.770644 -0.755158 
0.0154414 0.446615 0.997029 
-5.72355e-18 2.28942e-18 1 

-1.93328 -0.916052 -41.9585 
-0.555922 0.31697 -34.312 
-5.81491e-18 -4.61772e-19 1 

-0.828775 -0.295028 -3.36048 
0.408699 0.150614 -3.37259 
3.9725e-18 -5.87142e-18 1 

-1.00319 0.821123 22.6364 
-0.807429 1.4495 -1.84031 
-5.73602e-18 6.22075e-18 1 

-0.468721 0.0446921 -0.173919 
-0.213482 -0.0113943 -0.221423 
2.6097e-17 2.36562e-17 1 

-13.9593 -0.0327654 -7.19573 
0.126571 0.488256 0.83054 
2.54836e-17 -8.96646e-18 1 

-1.09316 0.393835 0.342232 
-0.309937 0.536465 -0.63001 
-4.20751e-18 -1.79209e-17 1 

0.419223 -0.939668 0.247171 
0.813701 0.471141 0.673905 
1.90279e-18 -1.84465e-17 1 

0.0535789 -0.474218 -0.585902 
0.869844 0.199346 -0.559676 
1.22304e-18 -8.93348e-18 1 

-0.124313 -0.0475239 -0.13816 
-0.0326738 -0.0402016 -0.0383155 
1.06238e-18 -4.30263e-18 1 

-0.454222 0.00808562 -0.382628 
0.0652842 0.0797041 0.25153 
-1.0132e-17 4.66953e-18 1 

0.0221948 -0.466839 0.0661163 
0.453636 0.15651 -0.210012 
1.39369e-17 1.27558e-17 1 

-0.169353 -0.0204585 -0.191898 
-0.0756929 -0.0774345 -0.189604 
-7.50679e-18 4.61368e-18 1 

-1.35136 0.127091 -2.0192 
-0.740984 0.525551 -5.3729 
9.34266e-18 1.36073e-17 1 

-0.371667 -0.248207 0.881977 
-0.0338096 0.194428 -0.432731 
-5.85296e-18 1.66366e-17 1 

-0.251815 -0.255558 0.226621 
0.207984 0.149651 0.00427348 
5.11984e-18 -1.94722e-18 1 

-0.696413 -0.415609 -5.59001 
0.077823 0.246286 -1.67346 
6.89512e-18 -6.75722e-18 1 

-6.82478 6.13715 -26.8955 
-0.809157 1.41332 -3.61056 
-1.78779e-18 5.58685e-20 1 

-0.730162 0.0681953 2.2467 
0.290818 0.272905 -0.484931 
1.05373e-17 -2.41215e-18 1 

-0.621624 -0.130491 -1.08165 
0.221311 0.106309 0.272564 
1.13311e-17 -1.19172e-17 1 

-0.28942 -0.241268 1.15994 
0.13518 0.0452646 0.428108 
1.32759e-17 1.4751e-17 1 

-0.34412 0.0316522 -2.95148 
-0.0221362 0.115979 0.42218 
-6.62645e-18 1.22441e-17 1 

-0.501826 -0.356853 0.257659 
0.149928 0.144102 -1.67337 
-6.03384e-18 6.12186e-18 1 

-0.345195 -0.67587 5.42394 
0.0943706 0.139735 2.4247 
-1.46771e-18 2.6606e-18 1 

-0.312294 0.104769 10.3208 
0.0188235 0.102133 -1.86694 
1.1143e-18 1.69884e-16 1 

-0.0791407 -0.338478 1.43964 
0.269761 0.0732741 0.865188 
1.40694e-19 -1.88178e-18 1 

0.689091 0.798899 -86.7878 
0.673193 0.383264 -16.9364 
-4.62102e-18 9.08131e-18 1 

-2.2528 0.361957 -1.20489 
0.25722 0.331325 -1.36261 
-1.35887e-17 -4.40713e-18 1 

-0.556614 0.342481 33.4404 
0.0153755 -0.0646872 -1.8221 
-5.24273e-18 -4.4292e-18 1 

-0.69855 0.463204 1.30634 
0.212165 0.0877361 -0.270485 
-1.39405e-17 -2.31659e-17 1 

-0.16142 -0.013306 0.156328 
0.0462444 -0.0235977 -0.0358719 
8.54487e-18 3.56036e-18 1 

-0.155483 0.694818 -71.4326 
0.162474 0.232896 -14.4918 
2.76451e-18 8.48569e-18 1 

-0.256204 -0.402165 0.510898 
0.0886428 0.0241971 0.468685 
4.27323e-18 2.17546e-18 1 

-0.245059 -0.240175 -0.773414 
0.00208133 0.0351682 0.0312559 
-5.94128e-18 1.67806e-17 1 

-0.118804 -0.0344646 -0.213057 
-0.0157631 -0.0731844 0.0397195 
-6.15847e-18 -5.27869e-18 1 

-2.31335 0.918451 1.78975 
-1.35653 1.00446 -0.242738 