# vtk DataFile Version 3.0
Output file generated by Yade's KinematicLocalisationAnalyser
ASCII
DATASET UNSTRUCTURED_GRID

POINTS 13483 float
544.96 39.1961 -0.493055
652.187 70.2563 0.502067
114.205 6.15141 -0.435199
677.525 6.68934 0.588401
468.024 8.62692 0.391749
302.651 37.1563 -0.470806
149.005 6.95681 0.46326
525.471 12.1913 -0.20345
466.707 27.1801 -0.155798
614.645 13.6778 0.463196
201.721 8.86789 -0.126073
247.672 6.47712 0.31973
576.1 67.2506 0.131643
568.834 18.1372 -0.125047
131.081 17.9279 0.580542
212.531 34.5429 -0.408017
209.106 12.9778 -0.303458
278.135 9.98982 0.412461
327.97 34.3515 0.529661
489.726 7.79039 0.555722
392.818 42.0177 -0.109063
542.05 68.1028 -0.253396
666.993 54.3175 -0.472155
615.755 75.8678 -0.522052
434.622 21.0628 -0.426769
231.243 45.4305 0.131811
464.432 33.994 0.493049
534.591 28.7672 -0.263779
41.9781 16.5868 -0.440928
638.893 73.548 0.322844
453.369 6.21415 0.345596
16.016 25.8669 -0.286511
662.11 77.2825 0.302701
464.457 2.1582 0.652445
73.9757 45.5026 0.112825
487.238 36.4744 -0.403027
493.092 19.3813 -0.50626
330.099 23.6329 0.201073
495.436 31.7606 0.360739
336.639 35.7339 0.583352
232.051 14.4077 0.342204
414.265 41.4754 -0.0723248
587.095 32.1314 0.121401
184.168 6.28864 0.356103
51.6683 7.15763 -0.112144
64.5934 8.8991 -0.267959
594.007 18.7767 0.663355
21.5332 12.2778 0.287708
548.962 63.0978 0.418846
593.78 55.2482 0.320108
164.416 33.1131 -0.313856
654.28 57.4451 -0.16083
32.0135 30.1341 0.108205
499.291 4.47942 0.529315
135.564 7.4879 -0.568852
539.14 53.2797 0.383736
472.044 32.3564 0.145073
167.322 0.955784 -0.288624
30.2675 2.37961 0.34548
335.427 18.3332 0.295055
553.284 70.5973 -0.134986
438.67 38.7817 0.181931
383.343 1.02318 0.2015
602.28 13.9004 0.42904
25.0404 46.4486 0.23578
246.962 32.9291 -0.388981
614.098 8.14744 -0.334974
594.653 81.3372 -0.352978
400.888 9.96592 -0.626342
523.086 3.90686 -0.375472
632.883 47.2621 0.383258
124.894 7.81594 0.271795
469.505 29.5749 -0.177083
450.072 16.8829 -0.196766
284.185 17.1422 -0.334318
19.0397 14.4002 -0.338321
673.821 76.6344 0.304305
320.907 41.3316 -0.324192
590.072 49.2091 0.332876
598.131 30.017 -0.293059
667.792 13.0061 -0.26517
440.928 40.033 -0.181971
88.045 40.179 -0.319582
604.808 63.6067 -0.229614
566.999 74.2432 0.111439
673.541 59.2044 0.118891
661.922 0.743728 -0.582804
280.513 28.959 0.470465
564.097 6.02037 -0.220604
22.9131 6.10082 0.64859
127.368 40.354 -0.142107
481.11 15.6863 0.204972
661.307 44.4494 -0.553307
187.594 29.4972 0.305676
42.0263 35.7707 0.301271
463.286 1.147 0.115028
227.556 8.83984 -0.398493
634.4 57.0367 0.302519
654.679 43.5131 -0.300575
347.341 22.1488 -0.248008
156.11 27.8099 -0.457492
509.1 45.0009 -0.623621
366.446 16.7839 -0.340768
395.316 33.7113 -0.100115
363.907 5.84999 0.403634
509.267 14.9052 0.274951
675.637 23.7556 0.198405
76.2475 40.3586 0.414543
323.679 4.97523 -0.229942
519.834 11.2832 -0.539549
347.289 46.6098 0.489875
22.9662 27.1104 -0.471229
28.5912 6.10217 0.289555
525.622 54.8121 -0.494097
474.075 28.4799 0.146318
25.0201 40.636 0.41778
88.4854 31.5288 -0.251829
314.389 16.9065 -0.282985
547.17 23.2122 -0.104804
451.963 45.3393 -0.194682
630.415 10.4559 -0.397544
623.812 5.64519 -0.179429
372.539 38.6972 -0.130651
570.714 36.7084 -0.0935028
230.853 16.2394 0.541143
319.19 3.90476 0.472631
98.9761 32.4589 -0.408126
111.322 25.9696 0.250317
507.904 48.1521 -0.0775575
296.554 18.9774 0.461655
634.228 75.784 0.102356
597.256 79.2164 -0.116654
456.715 22.9173 -0.396371
655.466 21.5518 0.352233
410.312 28.1576 0.232411
268.639 25.7693 -0.297718
593.782 65.3224 -0.334595
270.844 29.8473 -0.411637
529.252 19.6665 0.209333
322.025 38.0108 0.199834
475.508 12.6452 0.570374
354.467 33.9312 -0.114085
413.635 19.995 -0.103676
308.39 44.4171 0.439505
183.946 31.0586 -0.128154
656.19 72.0831 0.149125
674.056 26.3435 -0.436435
5.98186 12.8419 0.44483
415.098 25.4071 -0.442329
35.6173 24.122 0.075456
363.914 32.7355 -0.437225
382.772 27.1736 -0.261521
71.1582 12.0201 -0.484358
49.0816 34.2645 0.490435
219.506 13.7563 0.426618
556.446 44.8609 0.460243
531.959 30.9751 -0.501261
71.2755 21.4635 -0.488683
615.834 80.7165 -0.405005
646.004 2.45124 0.658686
584.937 82.1567 -0.478665
600.651 4.35182 -0.667163
517.224 37.9879 0.438293
543.616 67.1234 -0.320597
485 18.6355 -0.416256
676.739 4.77166 0.529221
217.424 24.8051 0.119861
122.893 37.186 0.194002
240.506 6.71819 0.446488
90.4818 4.817 0.260402
60.9424 10.1452 0.244936
268.434 37.2444 -0.351078
17.212 27.4725 0.348661
519.082 25.2175 -0.408747
550.697 50.4138 0.246174
442.686 25.2751 -0.423181
675.706 91.1392 0.367748
394.617 8.675 -0.108635
417.887 44.2098 0.532594
505.023 4.39085 -0.167615
21.4658 24.6326 0.41121
533.06 3.68635 0.571068
511.989 6.26967 0.373203
199.969 11.3779 0.478053
409.625 19.9792 -0.282966
303.738 6.45462 0.35092
376.714 18.7998 -0.361302
621.307 58.2285 -0.111919
185.498 27.0729 0.476443
655.267 6.32878 -0.5439
621.154 53.3406 0.377958
371.752 10.6178 0.171235
613.505 1.79934 -0.678098
550.815 31.2896 -0.488028
630.309 24.7526 -0.369456
413.675 51.798 -0.300348
470.995 13.7585 0.495714
444.711 50.5817 -0.277373
428.992 9.46863 -0.278727
588.383 80.1794 0.256095
585.305 78.0736 0.330903
186.313 39.9379 0.347597
665.833 12.0587 -0.188482
546.058 65.4374 0.25073
10.9501 18.6566 0.283998
394.495 27.5075 0.360968
181.922 24.0053 -0.413641
89.6857 40.9909 0.233596
660.603 40.9154 -0.510807
579.979 85.4745 -0.228513
310.721 27.4521 0.340171
501.976 12.1818 0.451584
78.9 45.6653 0.18779
242.227 27.5243 -0.505189
519.354 37.1119 0.386492
463.382 21.5952 -0.402639
256.386 0.923759 -0.363624
513.992 53.4156 -0.409797
502.152 48.7057 -0.522607
461.574 42.6094 -0.455526
473.71 2.26279 -0.668121
606.185 28.7342 -0.473336
173.711 12.645 -0.205563
475.169 43.019 0.408408
522.385 61.1251 0.153089
69.8847 0.961959 0.283901
245.564 4.82773 0.225506
672.345 27.2868 -0.241103
666.951 14.807 -0.553184
677.568 29.4912 -0.597224
296.411 8.61877 -0.232597
632.473 38.8593 -0.392095
393.163 47.5538 -0.342645
431.749 0.779107 -0.477064
573.851 74.9171 -0.45379
25.8625 34.387 -0.34361
322.866 44.3176 -0.615732
246.351 2.98254 0.40717
667.023 78.8756 0.0526807
635.625 88.4879 -0.216384
280.522 11.484 0.2592
588.993 63.8482 0.0831855
519.989 2.56411 0.359264
510.015 9.49692 0.55571
93.5445 19.1178 -0.522337
296.222 1.04671 -0.232888
334.639 2.27334 -0.364168
13.1424 7.8877 0.541257
4.43396 31.7641 0.300973
156.367 19.1628 0.372094
65.3721 43.2301 -0.21142
63.2432 30.3097 -0.306288
409.214 18.1029 -0.533822
357.48 37.5254 -0.514009
652.045 57.854 0.121033
18.7425 4.19645 -0.283472
67.587 6.94097 0.135413
561.634 54.2536 0.182842
287.725 0.946818 0.40038
354.656 16.9708 -0.1119
229.887 4.55802 -0.40528
572.007 48.991 -0.174498
435.425 8.04627 0.612739
630.942 35.486 -0.374239
570.839 56.0157 -0.317745
589.498 46.6646 0.100952
405.655 31.8078 0.512596
98.2945 46.7538 0.328924
506.883 55.745 -0.104891
632.158 18.5365 0.338379
232.62 31.6566 -0.270744
29.8326 18.6784 -0.171673
328.107 13.9232 0.521115
103.749 42.4661 0.472183
261.671 43.858 -0.254897
412.482 2.50435 -0.263968
668.378 62.2035 -0.502325
596.789 1.43111 -0.580164
324.163 3.4614 0.59214
293.796 27.8455 -0.150256
444.421 47.1701 0.253664
78.7361 8.21798 0.445018
192.702 45.9517 0.377653
654.851 50.8073 0.375459
475.734 50.2407 -0.0709445
194.983 41.8701 -0.27986
155.865 43.7376 0.402053
676.213 54.8587 -0.504062
674.1 24.4863 -0.641355
555.567 4.5552 -0.633607
185.385 25.3421 -0.113777
518.957 40.5092 0.104019
520.774 41.4528 0.305686
399.415 6.16505 -0.102861
458.229 1.13883 0.365993
649.22 58.919 -0.536005
81.9315 31.9469 -0.224868
577.212 48.8561 -0.50384
267.925 15.5024 -0.427144
8.81954 2.41881 -0.31313
121.59 38.8359 -0.233712
64.7416 23.1137 -0.48823
626.818 75.263 0.33994
663.354 86.6773 -0.201732
180.322 29.4273 0.171038
671.721 21.5898 -0.63766
43.5911 37.7621 -0.27988
87.4773 29.8564 0.15793
577.991 17.9059 0.44365
401.546 19.6603 -0.53045
491.253 19.2358 -0.162935
233.292 29.7912 0.197018
569.88 5.5219 0.717047
678.245 24.7285 0.439341
28.6502 35.0569 -0.289375
263.994 7.63561 0.197721
217.181 15.35 0.270722
1.05908 36.2792 0.151971
220.463 14.8137 -0.397383
206.587 10.9567 0.142528
209.16 26.4204 -0.269107
129.175 29.9042 0.124093
514.576 19.9736 0.415383
162.168 14.4854 -0.351156
662.117 75.4288 -0.318164
169.258 3.77621 0.538712
45.6419 39.6938 -0.357187
640.832 69.5832 -0.426295
275.484 33.2457 -0.415088
596.76 52.8217 0.439146
661.004 51.0935 -0.538577
294.487 9.2644 -0.102635
622.194 45.5055 0.436267
321.174 2.49443 -0.446664
402.788 26.5584 0.354495
592.359 42.2486 -0.462919
102.49 12.7211 0.544943
460.568 3.90399 -0.52571
633.883 32.5858 -0.239456
85.7642 7.74489 0.192528
275.541 14.9827 0.212341
410.621 15.0416 0.2945
675.862 3.2926 0.540352
388.274 1.96926 -0.543789
171.575 39.6896 -0.297254
635.584 15.4089 -0.491939
124.751 38.4152 0.178222
257.615 32.6343 -0.374823
389.659 23.6774 0.209643
531.929 21.1435 -0.365864
377.378 9.84957 -0.533151
440.808 32.2778 -0.471061
653.237 70.6039 -0.488323
45.2246 12.2114 -0.142446
292.378 39.0861 -0.274062
370.042 29.0769 0.383512
397.062 22.3159 -0.303186
495.909 55.0172 0.356694
642.742 54.858 0.266955
588.859 72.6094 -0.351257
220.78 34.6937 -0.357277
13.032 34.2828 0.177497
583.629 79.1345 -0.134196
483.835 48.6266 -0.603992
224.293 39.8932 0.142737
609.508 62.262 -0.132313
146.312 9.41255 0.241716
356.55 22.1068 0.310942
445.798 48.6665 -0.112223
401.188 21.487 -0.214
648.584 70.7744 0.316934
412.978 4.21205 0.535902
47.4202 26.5636 -0.311114
452.914 38.4841 -0.402245
419.179 50.5132 0.372854
668.696 72.3405 0.235102
621.841 40.3269 -0.258601
509.662 24.9131 -0.168506
661.375 67.1148 -0.464084
287.351 2.25108 -0.473197
368.483 31.2427 0.529081
28.2154 42.3069 -0.294284
624.885 45.7084 -0.343003
557.807 23.7584 -0.64281
443.496 1.06766 0.69164
122.034 4.73061 -0.361184
411.697 46.5041 0.104559
11.1528 0.863336 0.328009
675.592 8.52491 0.186879
361.481 43.6313 0.428878
560.758 6.9815 0.531808
[...]
POINT_DATA 13483
TENSORS Strain_matrix float
-0.163209 -0.259622 -3.70842 
-0.0709828 0.147606 1.26585 
0.00587876 -0.00890895 0.0898014 

-0.0377846 0.0730836 -0.299091 
-0.0799137 0.0518778 0.830468 
0.000273561 -0.00487941 0.0363855 

-0.0162317 0.00387434 -0.00955316 
0.00426272 0.00500096 0.0712766 
0.000980989 -0.00466611 0.0379466 

-0.0323078 -0.000333287 0.0266455 
-0.000370228 -0.00140902 -0.142602 
-0.00283013 -0.0015938 0.00622393 

-0.00591026 0.0131511 0.0304257 
-0.0395934 0.0151473 -0.11209 
-0.00299962 0.00859025 0.0215605 

-0.0636465 -0.0168807 -0.0148568 
-0.0242042 0.0353752 -0.190531 
0.0128947 -0.0154645 0.151058 

-0.0170362 -0.00117571 0.05608 
-0.00205038 -0.000519698 0.0023472 
0.000723651 0.000778883 0.0309512 

-0.0793935 -0.0642078 0.264622 
0.072146 0.00126435 0.215134 
0.00364319 0.00937145 0.119652 

-0.213701 0.242408 0.0583067 
-0.329719 0.261041 -0.588243 
0.0119316 -0.00146528 -0.0193799 

-0.0374831 -0.24265 -0.0807103 
0.181144 0.0448127 -0.713957 
-0.0559548 -0.00362508 0.128605 

-0.00544479 -0.005936 0.00668876 
-0.00186732 -0.000301175 -0.00707768 
-9.2571e-06 0.000327005 0.0130602 

-0.00993911 0.000795704 -0.00968533 
-0.00264187 4.25249e-05 0.00230737 
-0.00030221 -0.000855176 0.00948485 

0.00221651 -0.209212 -0.214302 
0.00679146 0.0855628 0.418399 
0.0484459 0.0673454 0.494585 

-0.0420267 -0.0649138 0.111908 
0.0728384 0.00919387 0.000716697 
0.00571299 -0.00356001 0.054692 

-0.0376022 0.00654357 -2.08601 
-0.0101272 0.0295531 -0.588045 
-0.00923528 -0.00632026 -0.616021 

-0.0277955 -0.0380514 -0.129144 
0.0344805 -0.0115307 0.00886643 
-0.017847 0.0108107 0.146147 

-0.00953789 -0.00669655 0.00803707 
0.00565687 0.00157653 -0.00387024 
0.000534156 -1.70448e-05 0.00631106 

-0.0152093 -0.00635669 0.00143774 
0.0148272 0.00879218 -0.0091669 
0.000315156 0.000795127 0.0181872 

-0.120682 -0.0390115 -1.72171 
0.0175349 0.0926972 -1.28049 
0.0151601 0.00366788 0.0161557 

-0.0942653 0.0312627 0.0613434 
-0.0143056 0.00121764 -0.00834621 
0.00623351 -0.00291153 0.175869 

-0.00483637 -0.0829659 -0.0450626 
0.0825264 0.00413312 0.00315069 
0.0194666 0.00114047 -0.0032211 

-0.574756 -0.692038 -1.74396 
0.102152 0.177634 -0.282656 
-0.140556 -0.0317503 0.817586 

-0.0175482 -0.0408555 0.0100643 
0.0709075 0.0225727 0.263024 
-0.00529022 -0.00257794 0.00727056 

-0.00948102 0.0488546 4.08188 
-0.0482315 0.00593347 1.92242 
-0.000985351 0.000457726 -0.0105146 

-0.195096 -0.0447169 0.975061 
0.0506432 0.129984 0.697229 
-0.0105632 0.0405644 0.163888 

-0.00491698 -0.0297796 0.00380427 
0.0237674 0.000193683 -0.0169991 
0.00763669 0.000988925 0.0186881 

-0.217039 0.0980914 -3.2686 
-0.0484069 0.210874 1.86151 
-0.0120609 0.0356064 -0.141605 

0.000566859 -0.0132446 -0.021937 
0.00574569 -0.0154993 -0.0363002 
0.00248703 0.020689 -0.00752738 

-0.0198911 -0.00910388 0.268647 
-0.0140623 0.00199689 0.583487 
-0.00207909 -0.000189727 0.0968574 

-0.0182066 0.068206 -0.137206 
-0.0251687 0.0464191 -0.133456 
0.00371642 0.0114173 -0.0534439 

-0.0174008 -0.115882 -0.0151982 
-0.0217025 -0.110661 0.233465 
0.0247087 -0.0129874 0.174436 

-0.0131929 0.0349152 -0.308115 
0.0750421 0.0117407 -0.00898154 
0.0024452 0.00223284 -0.0312132 

-0.0119438 -0.118504 -0.260465 
0.099518 0.0117624 0.0612665 
0.00456398 0.00614886 -0.0637294 

-0.0387991 0.0605187 1.89901 
-0.0613326 0.0824028 -0.421602 
-0.00740195 -0.0201773 -0.305937 

-0.0108301 1.88616e-05 -0.0172243 
-0.00217069 0.00219521 0.00626285 
-0.000497738 -0.00067773 0.0130308 

-0.077611 -0.0323539 -0.69527 
0.056648 0.0700134 -0.651708 
0.0175035 -0.0290955 0.393424 

-0.159807 -0.0877728 -0.0507022 
-0.0404328 0.117978 2.89574 
0.000336983 -0.00732998 -0.0520368 

-0.0841325 0.0654994 0.0629684 
-0.180881 0.0868089 0.0665513 
0.00657937 0.0295793 0.106682 

0.0504134 0.215756 -1.20791 
-0.10811 -0.265365 2.27182 
0.00280103 0.00133629 0.057889 

-0.0486754 -0.0286289 -0.105823 
0.00404834 0.0310897 -0.56378 
-0.00923317 0.000474029 0.16318 

-0.0136178 -0.00645487 -0.0695617 
-0.00628486 0.00381703 -0.0149427 
0.00102564 -0.000182658 -0.00102648 

-0.0910769 -0.00564067 0.123282 
0.30916 0.0747203 0.145713 
0.0180022 -0.0188512 0.0370271 

0.00881597 -0.0966571 0.0628251 
-0.00156664 0.0154149 0.0029798 
-0.0310773 -0.0148481 -0.0292322 

-0.0111718 -0.00231295 -0.142628 
-0.0039627 0.00110735 0.0171417 
-0.00126043 -0.000487057 -0.00552031 

-0.0202728 -0.038731 0.0146449 
0.0299789 0.0124099 -0.00779546 
-0.00184229 0.000240419 -0.000492974 

-0.00631112 0.0135377 -0.0211863 
-0.0153896 0.0126924 0.00742302 
0.000709938 -0.00101206 -0.00717484 

-0.136436 0.0575882 -2.18498 
0.121689 0.276178 0.737341 
0.00857509 -0.0021501 0.261686 

-0.0109538 -0.033061 -0.0178075 
0.0138247 0.00774058 0.0150534 
-0.00127818 -0.000407006 0.0021908 

-0.38548 -0.228145 -5.64109 
-0.0319732 0.0778156 3.28028 
0.00745917 0.0051837 -0.457578 

-0.395828 -0.225556 -0.205208 
-0.226935 0.276905 1.45871 
-0.00528516 -0.00822299 0.0677106 

0.00303926 -0.00868481 -0.0232696 
0.00596341 -0.00560016 -0.0115926 
0.00202753 0.000670571 0.00793756 

0.00608642 -0.00516223 0.00482585 
-0.0381345 -0.00199265 -0.209109 
0.0104402 0.00469331 -0.0210174 

-0.0770402 0.204455 -0.168332 
-0.109873 0.145904 -0.266536 
-0.0147306 -0.0735382 1.05598 

-0.213785 -0.0178218 0.340547 
0.0101352 0.134178 -2.15698 
0.00104263 0.029573 0.180672 

-0.0383653 -0.0250387 -0.0870277 
-0.00150277 0.0228893 0.52159 
0.00828165 -0.000596137 0.11024 

-0.582534 0.0221639 1.51705 
-0.37905 0.340325 2.8658 
-0.0169626 -0.0357246 0.132192 

-0.407125 0.00400797 0.112424 
-0.0367813 0.263149 0.178123 
0.0402775 -0.0450394 0.25519 

-0.0156824 -0.0086784 -0.0554826 
-0.00311601 -0.00399949 -0.00311143 
-0.00154511 -0.00335745 0.0664886 

-0.0403667 -0.0108919 0.137321 
-0.00857784 0.0227389 0.149012 
-0.0156652 0.0379111 0.00364755 

-0.0142492 -0.0372653 0.175278 
0.0380678 0.0111038 0.0231595 
0.0079117 -0.0076821 0.00852361 

-0.374887 0.0319679 0.327138 
-0.312899 0.389744 1.16566 
-0.0110188 0.109019 1.30758 

-0.0251695 -0.0193241 -0.227725 
-0.0273571 0.0234422 -0.0150056 
-0.00625359 0.00464229 -0.0601952 

0.00144599 -0.0299312 0.0257535 
-0.00156391 -0.000853598 -0.0144462 
-0.00037844 -0.000650696 0.00286378 

-0.135097 -0.0427838 -0.0843366 
0.0577596 0.131854 -0.0365831 
0.00197797 0.00409246 0.102073 

0.0216927 -0.0153357 0.0265608 
0.0537874 -0.0200879 -0.053668 
-0.000429189 0.000123332 -0.0241737 

-0.019279 -0.00615012 -0.0412807 
-0.000674275 -0.000491255 0.0334411 
0.00106073 -0.000435152 0.0264433 

0.00413026 -0.0166019 -0.0386421 
-0.0678757 -0.0366986 -0.113744 
0.0134942 -0.00513468 0.0291301 

-0.0107833 0.0809495 0.097598 
-0.0230255 0.0282294 -0.9758 
-0.00772916 -0.0270667 -0.0168227 

-0.0781975 -0.104484 3.01012 
0.112887 0.0598913 -2.07807 
-0.00600938 0.0145231 0.0637844 

-0.113394 0.108145 -0.480656 
-0.0960352 0.0912325 0.447166 
0.02463 0.0384984 0.184078 

-0.220294 -0.355512 -1.01252 
-0.25483 0.060258 -0.47514 
0.0398813 0.0815774 0.472269 

-0.0135745 -0.000655263 0.0649815 
0.00722682 0.00435047 -0.0440267 
-0.000140549 0.00278518 0.0209725 

-0.354083 0.102752 0.583686 
0.0258366 0.300231 -0.381118 
0.0114949 -0.0705364 0.290937 

-0.019757 -0.0154589 -0.516722 
-0.0716989 0.0392025 -0.389282 
-0.0309904 -0.0169415 0.130214 

-0.00549682 0.00443287 0.123931 
-0.000577954 0.00919772 0.160519 
-0.0175508 0.0172392 -0.203435 

-0.0455794 -0.0341907 0.118721 
0.040378 0.016625 0.0842358 
0.00543529 0.00123799 0.0184033 

0.0372228 0.0292838 -0.351646 
0.362 -0.0209591 0.223203 
-0.00913964 -0.00426184 -0.109596 

-0.0124296 -0.0169865 -0.189855 
0.0285565 0.0124636 -0.042227 
-0.010738 -0.0291622 -0.0304145 

-0.179854 0.0565643 0.379748 
-0.0367688 0.232524 0.218169 
0.00746926 0.00129647 0.0234582 

0.0296266 -0.120307 0.065048 
0.107823 -0.0235684 -0.0562867 
-0.00117436 -0.00305545 0.0388308 

-0.0549957 -0.0180701 0.0820841 
-0.00661648 -0.00146666 0.0413303 
0.0100296 -0.000581488 0.0362977 

-0.0271256 -0.0433675 -0.196456 
-0.0453727 0.029871 -0.300324 
-0.000470615 0.00127044 -0.0609907 

-0.00335875 -0.00436894 0.0121003 
0.00996161 -0.000663718 0.0533541 
0.00584595 -0.00177774 0.0748201 

0.0190474 0.00907513 -0.0229518 
-0.00991774 -0.028419 -0.00625618 
0.00120382 0.000887393 0.0053111 

-0.0235904 -0.0989949 0.00992874 
0.097805 0.0151316 -0.145681 
-0.00376951 -0.0117131 0.0411131 

0.0108386 -0.190293 -0.0163765 
0.231191 0.0149831 0.170531 
-0.0312902 0.035455 0.178869 

-0.0234098 -0.066546 0.278639 
0.000731337 -0.0220861 0.0369936 
-0.000523396 -0.00787966 -0.00332841 

0.000827379 -0.0488351 -0.012134 
0.041557 0.00379759 0.0246541 
-0.0277961 0.0062688 -0.0761055 

-0.0646623 -0.0803472 -0.129223 
0.15739 0.000670268 -0.0201694 
-0.00760006 0.0263271 0.160796 

-0.0153202 0.109787 -43.194 
0.00171925 -0.0109601 3.92014 
0.000284459 0.00524537 -0.548734 

-0.00363411 -0.0127759 0.00127283 
-0.00179729 -0.00507354 -0.0241445 
-0.00287305 0.00525919 -0.00158345 

-7.9754e-05 0.0245354 -0.0213523 
0.0013348 -0.0335201 0.0150654 
-0.00305585 0.00296488 0.0587486 

0.00198891 -0.159418 0.218074 
0.0801943 0.090866 -1.16317 
9.53017e-05 0.00451569 0.041306 

-0.0191061 -0.0106504 0.0734879 
-0.0158951 -0.0121972 0.00381475 
0.00120349 0.0015008 0.0269216 

-0.0199483 0.045634 -0.134638 
-0.0247081 0.032977 0.140787 
-0.00427384 0.00495321 -0.0502558 

0.0195502 0.0728795 -0.0617197 
-0.012032 -0.0498023 0.0578127 
0.00375074 0.013778 -0.0233018 

-0.0158081 0.0116577 0.023868 
-0.000374448 0.00426619 -0.0101938 
0.0145786 0.0062356 -0.0327261 

0.0475729 -0.0334851 0.0141654 
-0.0380825 -0.104371 -0.139414 
0.00488213 -0.00438095 0.0497935 

0.0806087 0.239762 -0.307776 
-0.328418 0.0227616 0.198727 
-0.0584226 0.063264 0.310462 

-0.127145 -0.0938642 0.107215 
0.00758577 0.137217 -0.0850106 
-0.0105387 -0.0158306 0.0345743 

-0.0289441 -0.0547145 -0.278212 
0.00671315 0.0182126 -0.0892911 
0.000697466 -0.000211225 0.0165782 

-0.169576 -0.127292 6.85645 
0.178876 0.102206 3.59094 
-0.00396015 -0.000578371 0.413118 

-0.0855729 -0.0905009 0.258413 
-0.0637941 0.0883472 -0.0302009 
0.0237228 -0.0682889 -0.020577 

-0.140225 0.0857583 -0.160766 
0.0773523 0.156049 0.17921 
-0.018516 0.00273467 0.132221 

-0.0890309 -0.240105 -0.0772262 
-0.024571 0.053607 0.56399 
0.0102915 0.0757244 0.49331 

-0.274353 -0.303443 0.174135 
0.185985 0.270895 -0.626928 
0.00955375 -0.0052348 0.195733 

0.0206796 0.0247027 -0.00928889 
-0.0136228 -0.0232544 0.0147799 
-0.00210446 0.0017218 -0.00446165 

-0.00973763 0.00871806 0.0037612 
-0.000915954 0.00436675 0.0749306 
-0.00052675 0.000107176 0.0177164 

-0.0170652 -0.00102647 -4.01461e-05 
0.0171591 -0.0190499 0.00239987 
0.00116362 -0.000292588 0.0603523 

-0.0359375 0.0800641 0.533576 
-0.138092 -0.0416155 0.23399 
0.0887111 -0.0297478 1.49695 

-0.0458222 0.00590769 1.09369 
0.0408303 0.062681 0.981189 
-0.00769392 -0.0170333 -0.0993191 

-0.0990138 0.162072 0.322254 
-0.0288764 0.102178 -0.423797 
-0.0114925 -0.00188591 -0.0417995 

-0.0559216 0.0552352 -0.0270009 
-0.0359867 0.0670319 0.0727989 
0.0326953 -0.0646685 0.194165 

0.0547853 -0.311767 0.331964 
0.318512 0.11162 0.837623 
-0.00902449 0.00929051 0.133742 

-0.450145 -0.0750304 0.164568 
0.159017 0.346277 0.832682 
-0.00599661 0.0594256 0.280326 

-0.00576351 -0.0367575 -0.788248 
0.0560454 -0.00519409 -2.24548 
0.00374567 -0.00184211 0.0445427 

-0.00548794 0.027536 0.0546704 
-0.0217021 0.00732766 0.105896 
0.00806968 0.00792847 0.0350167 

0.0193556 0.0241659 0.00510675 
-0.021375 -0.00557564 -0.0018813 
0.0020372 0.00226447 -0.00539666 

-0.107244 -0.0596951 0.0597407 
0.146241 0.131188 0.305882 
-0.0490425 0.0144412 0.0498589 

-0.0246159 -0.0822455 -0.028585 
0.12989 0.0204932 -0.0232932 
0.00761328 -0.00125618 0.0277934 

-0.225091 -0.0170618 -0.378516 
0.482649 0.242078 -0.105079 
-0.0111196 -0.018144 0.00542698 

-0.0212915 -0.070846 -0.0201263 
0.0497097 0.0252614 -0.0424047 
0.00188492 -0.00468772 0.0239806 

-0.137677 -0.180838 0.130783 
0.0321754 0.115851 -0.208519 
0.0494218 -0.005305 0.286156 

-0.288517 0.244494 -0.046157 
-0.0962956 0.233062 -0.467175 
0.0087751 -0.00438328 -0.000487772 

-0.0131633 -0.00907939 -1.1296 
0.00271114 0.00557933 1.04683 
0.00612038 -0.00186771 -0.0708326 

-0.017583 0.00178054 0.525688 
-0.0328088 -0.00718866 -0.154695 
0.00268427 -0.00190498 0.0612752 

0.00523033 0.00488595 0.024772 
-0.0373463 -0.0161573 0.0482411 
0.0109426 0.0196202 0.115051 

0.0630951 -0.0184121 -0.774585 
0.0546849 -0.0334863 -0.55849 
-0.00167862 0.00424065 0.0957687 

-0.214419 -0.236625 0.185815 
0.0600158 0.0494415 1.07055 
0.0120028 -0.0102588 0.197158 

-0.0878685 -0.0758424 0.0719766 
0.16597 0.0327463 -0.155774 
0.00839465 0.0149143 -0.269774 

-0.13593 -0.00402006 0.299739 
-0.045924 0.0780761 -0.22553 
-0.00437752 -0.00800137 0.0255383 

0.00572324 0.114507 0.0402388 
-0.00594723 -0.0205219 0.172958 
0.000379863 -0.00734653 0.0185329 

-0.101059 0.301854 1.74254 
-0.0452293 0.0806763 -1.11729 
0.0168713 0.00624047 -0.0689164 

-0.116374 0.0685905 -0.149262 
0.285405 0.0830079 -1.39313 
0.0323807 0.000868807 0.0845989 

0.0985587 -0.201391 0.0109607 
0.027705 -0.0325892 0.0747285 
0.0551208 0.0138962 0.0592358 

0.00650825 -0.0210399 0.0352488 
0.0129724 -0.0100787 -0.0599572 
-0.00134318 -0.00116371 0.00660701 

-0.047087 -0.0740828 0.195778 
-0.103866 -0.0889722 0.310632 
-0.0042007 0.00108794 -0.0367111 

-0.00158809 -0.00532116 0.03592 
-0.00263919 0.00066678 -0.0321152 
0.00134392 0.000781333 0.0172425 

0.00049272 0.0226051 -0.22204 
0.0174207 -0.0444553 0.0372413 
-0.00835432 0.0524562 0.648107 

-0.00104114 -0.0509859 0.0231519 
0.0343563 0.0113513 0.0212811 
0.0148878 0.00370227 -0.0504382 

-0.0208485 0.030007 0.0942702 
-0.0204676 -0.00818152 0.00896801 
-0.00174246 0.000523311 0.0590371 

0.00672486 -0.104582 -0.091326 
0.0742013 -0.0112722 -0.0466063 
0.000758524 -0.0129831 0.482102 

0.00239666 0.166011 0.199904 
-0.131118 0.0618018 0.108615 
0.00777364 0.00925264 -0.0254256 

-0.0120437 0.00303781 0.071476 
-0.0168068 0.0138078 0.112829 
-0.00473989 -0.035733 -0.230687 

-0.00981252 -0.00771526 0.00719198 
0.00766658 -0.00217122 0.00737303 
-0.0013339 -0.000425288 0.0219584 

-0.0409448 -0.0384465 0.136039 
0.0585629 0.0227889 0.0532207 
-0.00572663 -0.00147959 0.0526363 

0.032497 0.097051 0.0044462 
-0.023545 -0.0167837 -0.0226868 
0.00553153 0.00715308 0.0140445 

-0.0277771 0.0239097 -0.0125673 
-0.0170952 0.0189662 -0.0665263 
-0.00106992 -0.00315039 0.0256775 

-0.16987 -0.0529185 3.46342 
-0.10569 0.15118 -0.70526 
-0.000405538 0.0068677 0.0564806 

-0.0125887 -0.053439 0.075484 
0.0129148 0.0323969 0.00437951 
-0.00236636 -0.00134856 0.0142531 

-0.0501031 -0.0680859 -0.0542206 
0.0259783 0.0568154 0.125735 
-0.000793724 0.0011908 0.195273 

-0.0961644 0.0997069 0.274978 
0.0265917 0.0574156 -0.0106573 
-0.0692119 -0.012208 0.106948 

-0.0151168 0.00472391 -0.0440701 
-0.00710216 0.00912099 0.00811571 
0.00794955 0.00279603 0.000845621 

-0.0180662 0.00287039 1.05754 
0.0143883 0.0201976 0.333618 
0.00227128 0.00257932 0.132149 

-0.0113078 -0.00238437 -0.00189237 
0.00212856 0.00306001 0.054764 
0.00865264 0.00708744 -0.0266557 

-0.0694081 -0.0348045 0.0946203 
0.110281 -0.0894594 -0.843944 
0.0649704 -0.0718786 0.27092 

-0.161454 -0.110768 0.755031 
-0.0788556 0.106934 -0.638531 
0.0197018 0.00600668 -0.143749 

-0.0178151 -0.0132106 0.656136 
-0.0115363 0.0143318 -0.27987 
-0.00118118 0.000937385 0.0402761 

0.00363608 0.035244 0.29743 
-0.0321224 -0.0047475 -0.0210431 
-0.00537428 -0.0011236 0.367554 

-0.0894424 0.125505 -0.171506 
-0.254554 0.0771602 -0.329871 
-0.0170691 -0.00305182 -0.0490381 

0.00651864 -0.224176 12.895 
-0.0425806 -0.01042 -0.956194 
0.00180959 8.64935e-05 0.0706766 

-0.0709298 -0.00514231 -3.75269 
0.00388427 0.106755 3.02793 
0.0220894 -0.0259058 0.33882 

-0.108156 0.199742 -5.65326 
0.355926 0.0849688 -3.84489 
0.0146894 -0.00293216 0.0480513 

-0.746226 -0.941373 1.95368 
0.184084 0.465517 0.25168 
0.0173181 -0.0260627 0.0257093 

-0.0123458 -0.202161 1.37128 
0.139121 0.0731316 -0.946521 
0.0190014 -0.0992105 -0.335149 

-0.080257 -0.0324084 0.10308 
-0.0108837 0.0250962 0.00187116 
0.0123444 0.00712565 0.0529855 

-0.00805213 -0.00592605 0.000859603 
0.0103552 0.00774405 0.0249913 
-0.000437874 -0.000342016 0.00973253 

-0.0143406 0.000772894 0.0494768 
0.0527065 0.0174017 0.123217 
0.0265296 0.0557035 0.336602 

-0.0110997 -0.00366772 0.162795 
0.00271634 0.00343711 -0.222413 
0.00015935 0.0119071 -0.184497 

-0.0247555 -0.0663069 0.129155 
0.0522758 0.0161221 -0.141057 
-0.0302851 0.040093 0.511645 

-0.00451704 0.00208426 0.0163799 
0.00322571 0.00325361 0.0148781 
-0.00297118 0.000142668 -0.011174 

-0.0059438 -0.0137756 -0.00401813 
0.00309865 -0.000159978 -0.0776031 
0.00087871 -0.000293869 0.0103296 

0.00867907 0.063479 -0.17924 
0.0379147 -0.00247463 -0.09449 
-5.29875e-05 -0.000801478 -0.018169 

-0.109379 -0.0708702 1.16489 
0.0104907 0.17764 -1.16724 
0.0222179 0.00867495 0.121341 

0.0358528 -0.226325 -0.848209 
0.139684 0.0892814 0.350947 
-0.0120286 -0.00387713 0.201606 

-0.0846783 0.224088 2.53676 
0.0964976 0.0561565 0.0682666 
0.00235006 0.00136621 0.234977 

0.0169417 -0.0401578 0.127825 
0.143003 0.0107782 -0.0664157 
0.00233114 -0.00810641 -0.0110878 

0.0115035 -0.0653586 0.00701972 
0.0516169 -0.0178015 -0.00288823 
-0.00268426 0.00157248 0.00363518 

-0.07206 -0.0298536 -0.544246 
-0.0101301 -0.0433879 -10.278 
0.00715546 -0.00210024 -0.049755 

-0.234557 -0.206037 0.37579 
0.133585 0.238456 -0.340306 
-0.0419312 0.0163965 0.22008 

-0.0858794 0.0981951 -0.131966 
-0.0932011 0.0437436 0.111606 
0.00131744 0.0131535 -0.00224758 

-0.0656405 0.0313825 0.226641 
0.0182932 -0.0249629 -0.242502 
0.0481378 -0.0151119 -0.0292148 

-0.101141 0.0592514 -0.626519 
0.00710486 0.0895683 0.631968 
-0.00816082 -0.00643325 0.0755785 

-0.00976826 -0.000429478 0.0638243 
-0.0104482 0.00481159 -0.104953 
-0.000238082 -0.0010002 0.0229557 

-0.0313482 0.138199 0.314468 
-0.00901876 -0.0122851 0.0937286 
0.00214503 0.0012244 0.0761866 

0.00453561 0.00395859 -0.092482 
0.0299273 -0.00865904 0.0653391 
0.0411482 -0.0112658 -0.0178041 

0.00941972 0.0752684 0.401036 
-0.0696417 -0.0229154 -0.0985113 
-0.00264138 0.00245359 0.0626854 

-0.0264139 0.00666399 -0.0172752 
-0.0330616 -0.0149172 0.0139687 
-0.00291196 0.0492086 0.109156 

-0.0347852 -0.000725619 -0.489526 
0.0103681 0.0360297 -0.903017 
-0.00360324 0.00139152 0.0824758 

-0.0291352 0.00868173 0.0106194 
0.0134956 -0.0276294 0.0351399 
0.00786119 -0.00281825 -0.0593567 

-0.116993 -0.0118868 0.0313408 
-0.0354388 0.0793727 -0.262568 
-0.018425 -0.0145601 0.0970271 

-0.00554152 -0.0154881 0.0441102 
0.031273 0.00692547 0.0864287 
-0.00195127 0.000656551 0.0516944 

-0.106308 -0.130455 -3.24238 
-0.00136382 0.000772079 -3.7853 
-0.0053595 -0.00490882 -0.842428 

-0.230292 -0.213637 3.03985 
0.27523 0.0963334 2.90649 
-0.0110374 0.0156491 0.123632 

-0.126506 -0.121899 -0.254342 
0.0500857 0.0109403 -0.127161 
-0.00686357 0.031631 -0.015142 

0.0176797 0.0730363 -0.153713 
0.028757 0.0616241 -0.136382 
-0.0353777 -0.0461175 0.583279 

-0.0432185 0.0533924 -0.0250342 
-0.0555904 0.0101082 0.0127718 
0.00390247 -0.00934186 0.0180714 

-0.0938397 -0.0961038 -0.0158758 
0.0846449 0.0264626 0.00796069 
-0.00262596 0.00408069 0.08774 

-0.10662 0.253511 0.370193 
-0.304203 0.047156 0.0216985 
-0.0372015 -0.0400172 0.486552 

-0.0173942 0.132098 -0.153119 
-0.171579 -0.0238027 0.82701 
-1.80538e-05 0.0430427 1.08402 

0.0295484 0.0345785 1.06375 
-0.014644 -0.0826235 0.519895 
-0.00727935 -0.00612379 0.891064 

3.47488e-05 0.000507349 -0.00546313 
-0.00358126 -0.00284483 -0.0630531 
-0.00076742 0.00115545 -0.0172398 

-0.0519758 -0.0233609 -0.000808262 
-0.000686143 -0.00362008 -0.00719036 
-0.00283325 -0.000911583 0.0335014 

-0.892382 -0.727629 -1.92876 