# vtk DataFile Version 3.0
Output file generated by Yade's KinematicLocalisationAnalyser
ASCII
DATASET UNSTRUCTURED_GRID

POINTS 13483 float
476.55 41.6888 -0.501841
570.017 80.1651 0.466089
108.908 6.09782 -0.437987
597.354 8.07292 0.548113
415.172 9.23346 0.380463
284.649 38.3102 -0.644699
142.933 7.54284 0.475703
465.798 12.3205 -0.214041
411.753 31.3795 -0.171732
544.174 18.9184 0.536378
191.974 8.80127 -0.130686
234.243 6.6679 0.400627
500.575 75.0366 -0.159101
507.721 18.6649 0.0959312
124.964 18.5304 0.436057
201.504 35.749 -0.409955
198.934 13.1038 -0.294455
262.067 11.1326 0.511338
308.364 35.6644 0.545083
435.611 8.47512 0.561236
365.874 57.7757 -0.127451
475.564 79.4747 0.253942
585.381 64.5224 -0.452539
537.784 84.8544 -0.551904
388.205 30.7719 -0.348613
217.4 48.5892 0.134345
408.3 39.7124 0.504194
474.266 29.3738 -0.268416
40.7002 16.5783 0.511438
560.718 84.9867 0.376205
400.726 7.69038 -0.461403
15.8943 25.8594 -0.280184
579.986 87.8962 0.28893
410.55 2.18354 0.642612
71.3656 47.0998 0.112257
429.792 38.6583 -0.3745
434.774 22.9521 -0.511183
310.096 25.4046 0.224961
438.379 34.8113 0.33174
315.532 38.4518 0.561632
221.298 15.2494 0.310251
385.087 54.7811 -0.0752672
516.39 35.7802 0.132168
175.226 6.30441 0.366022
49.5577 8.15124 -0.088012
60.7122 9.49365 0.301039
528.338 22.1405 0.685835
21.4959 12.515 0.299202
477.254 63.9288 0.396161
517.426 62.5183 0.330542
155.156 34.7327 -0.314611
573.618 67.5284 -0.161542
29.2583 32.5904 0.115342
443.528 4.51955 0.613973
130.242 7.89065 -0.568542
470.945 58.2783 -0.38499
413.644 36.0022 -0.126464
159.393 0.995889 -0.314644
29.8129 2.38943 0.340563
315.002 19.6178 0.331711
479.47 72.2473 -0.147905
409.129 55.5162 0.17805
352.765 1.02069 0.216368
535.866 16.2181 0.630809
22.1897 48.9615 0.236246
232.859 36.7844 -0.369996
545.6 11.7938 0.382073
516.623 90.6691 -0.361117
368.81 11.3819 -0.584201
463.747 4.03407 -0.348354
554.115 55.8211 0.423713
119.586 7.69119 0.282372
413.972 31.1305 -0.137228
400.792 22.2454 -0.200957
268.405 17.3643 -0.356204
19.047 14.6167 -0.353752
591.776 87.5813 0.310885
302.158 44.5142 -0.391808
516.669 54.481 0.389025
527.615 34.7079 -0.266252
587.627 13.3055 -0.222182
410.058 57.5086 -0.17735
84.8031 40.4888 -0.288022
527.117 72.6406 -0.232363
490.24 79.3074 0.114684
591.671 69.803 0.113283
582.191 0.749779 -0.584783
265.118 30.5318 0.468054
503.519 5.80982 -0.151954
22.8328 6.35581 0.650239
119.548 45.5438 -0.197325
427.084 15.5036 0.229842
582.271 54.1011 -0.582572
177.551 29.9421 0.280606
38.897 38.3915 0.288704
409.366 1.17637 0.121927
216.724 9.90004 -0.345068
553.885 65.1113 0.288226
575.842 53.5137 -0.231742
324.796 25.6064 -0.270187
146.955 30.0166 -0.438331
449.048 51.7286 -0.577616
342.186 21.9434 0.564784
368.571 44.8366 0.106988
338.618 9.43418 0.454963
451.013 17.4815 0.235672
593.845 25.6844 0.199358
73.1227 41.6894 0.424746
304.223 5.74771 -0.205296
460.18 11.7274 -0.54005
324.236 51.1393 0.530632
22.6839 27.2982 -0.469949
28.3943 6.12998 0.29983
460.635 67.3009 0.41084
416.831 30.9412 -0.16775
21.6675 42.6344 0.423565
84.1094 31.5007 -0.244436
295.64 16.6804 -0.407615
486.963 25.0152 0.14486
417.218 67.8503 0.274821
560.217 15.7607 -0.415214
553.762 10.6045 -0.245779
349.978 46.9834 -0.140873
500.522 38.1249 0.106561
219.841 17.0557 0.558487
301.141 3.85731 0.062679
94.3083 32.2078 -0.421826
106.254 25.7629 0.273465
447.145 56.493 0.0681802
279.603 20.0385 0.491392
556.068 86.3753 0.102687
519.28 88.24 -0.124676
405.944 26.6335 -0.399024
580.009 27.8492 0.325133
377.651 39.8861 0.24563
253.812 27.6497 -0.309527
516.132 74.5633 -0.32361
255.643 32.1612 -0.39504
468.721 20.3704 0.214046
303.22 41.3721 0.191383
421.819 11.8925 0.685909
333.023 38.5236 -0.0987027
373.369 30.4833 0.117472
290.387 49.2223 0.45374
174.111 32.1595 -0.131726
574.134 82.5473 0.15928
592.127 28.1653 -0.472673
5.93399 12.705 0.457972
376.815 35.0886 -0.428194
33.9508 25.0237 0.0756193
342.644 38.9673 -0.498493
357.671 36.8433 -0.276377
67.3157 12.32 -0.520478
46.0632 37.0634 0.517936
208.552 14.9162 0.438622
487.278 47.9544 0.49079
471.869 32.0133 -0.458419
67.1045 22.6321 -0.517483
537.302 89.5278 -0.407095
566.902 2.32688 0.638222
506.799 91.5412 0.443969
538.72 5.27185 -0.684906
457.543 43.1095 0.463753
476.509 77.9221 0.433507
430.816 18.2211 -0.565033
595.829 6.70175 0.462413
206.243 26.0329 0.130321
116.047 38.0376 0.216263
227.716 7.45904 0.467599
85.3616 4.81487 0.262237
57.5219 11.8727 0.244724
253.88 39.764 -0.391575
17.0059 27.5213 0.361339
460.081 27.1599 -0.494147
480.9 53.313 0.271122
397.12 34.9056 -0.35684
593.771 101.868 0.37151
363.106 8.69939 -0.138459
389.079 56.2056 0.54365
448.482 4.08135 0.174973
21.2269 24.7832 0.415062
474.216 3.80904 0.633756
452.969 7.13504 0.442983
190.373 11.3639 0.515716
370.395 32.2147 -0.22243
285.768 6.68709 0.410375
349.94 23.5484 -0.397632
540.507 64.7532 -0.105176
175.582 27.123 -0.460762
575.436 6.11386 -0.532088
541.307 60.1089 0.391079
345.23 14.2793 0.315338
551.467 2.19552 -0.468378
486.865 33.8017 -0.422997
558.696 30.5364 -0.435745
386.112 64.88 -0.310864
418.216 13.807 0.527641
408.351 69.4671 0.224789
384.73 15.4945 0.161389
510.226 89.5048 0.143404
507.201 87.3245 0.324353
177.772 42.6005 0.354941
585.681 12.2182 -0.209063
474.769 68.7902 -0.244603
10.9764 18.555 0.261244
364.092 37.7047 0.336057
172.299 25.7978 -0.446897
86.4704 41.2279 0.219091
586.417 50.9975 -0.506246
499.092 93.5837 0.102794
291.801 28.8008 0.335503
443.892 15.1144 0.341221
76.342 46.655 0.18203
229.624 29.922 -0.470981
456.294 38.3424 0.393751
411.578 22.1289 -0.436602
242.343 0.900306 -0.418621
449.96 61.3555 -0.377952
443.411 51.961 -0.569211
428.202 67.2535 -0.44543
420.077 2.17323 -0.650011
536.311 34.0169 -0.40934
165.314 13.6203 0.214215
417.612 45.7166 0.489532
455.419 72.297 0.119115
66.2793 0.965932 0.323835
231.96 4.38573 0.221351
590.299 29.0202 -0.285444
586.646 15.0298 -0.541262
595.638 31.3782 -0.578834
278.499 8.67984 -0.277178
557.515 46.4541 -0.603161
365.112 64.5524 -0.274045
386.987 2.05638 -0.655804
496.537 81.7201 -0.448092
23.1679 36.602 -0.432115
302.87 48.7491 -0.61368
233.429 2.88528 0.547597
584.954 89.6063 0.169817
555.937 99.1951 -0.216482
264.244 12.4906 0.293069
511.481 72.628 0.0986299
460.718 2.5647 0.358322
450.637 11.6033 0.677771
88.588 19.0938 -0.514871
278.599 1.15647 -0.256112
313.466 2.4113 -0.305211
13.1181 7.86282 0.547728
4.37067 31.5646 0.301238
149.019 20.1673 0.377765
62.3872 45.829 -0.210387
59.0468 33.1734 -0.318887
370.824 24.2212 -0.583679
335.387 42.3117 -0.500378
571.36 67.7228 0.128957
18.7861 4.24895 -0.272872
63.4609 7.68277 -0.13333
491.66 57.9817 0.161381
270.277 0.940252 0.448725
330.166 21.4568 -0.101575
218.201 4.86024 0.429102
501.022 53.0345 -0.193717
389.885 14.1662 0.495797
557.924 43.6193 -0.448147
499.856 61.9565 -0.359322
517.199 50.7683 0.0736001
377.497 44.2188 0.482835
94.1712 48.0943 -0.305381
441.833 62.189 0.073136
561.458 23.893 0.396401
220.854 33.3147 0.275807
29.5703 19.0634 -0.211098
308.569 15.7024 0.497671
98.8338 42.536 0.476426
247.677 47.0754 -0.255645
377.269 2.4632 -0.196903
586.805 73.0728 -0.506103
536.868 0.761687 -0.629216
304.616 4.0881 0.548738
276.696 28.6525 -0.146801
409.419 66.154 -0.195389
74.2305 8.7246 0.524945
183.813 48.2958 0.376708
575.226 61.3215 0.429871
443.572 73.5592 0.06313
184.361 43.6128 -0.286985
146.909 46.1599 0.481426
594.175 64.8609 -0.395423
592.239 26.2965 -0.628077
494.601 4.47843 -0.626016
175.538 25.3235 0.0988542
459.69 50.9468 -0.10527
461.149 52.4197 0.288464
367.685 6.53646 -0.19781
404.482 0.936112 0.444236
568.455 68.5409 -0.549041
77.795 32.6032 -0.265163
505.927 52.3944 -0.527724
252.484 16.4198 -0.431701
8.85762 2.40738 -0.317218
116.213 42.3649 -0.185602
60.2835 25.1697 -0.491725
548.88 84.7931 0.342698
581.35 97.3578 -0.196849
170.203 31.3097 -0.188905
590.092 22.6213 -0.506632
40.4444 40.3454 -0.292813
82.868 29.98 0.160066
516.164 17.6463 0.492866
363.651 24.001 -0.488299
432.957 23.1228 0.129642
222.008 31.6363 0.234267
509.034 5.27277 0.745553
596.437 26.7401 0.437603
25.7668 37.2695 -0.270424
249.252 8.22815 -0.286252
206.438 16.669 0.328083
1.0652 36.1082 0.157739
209.518 15.9156 -0.418849
196.638 11.0491 0.13416
197.969 27.71 -0.286205
123.424 31.448 -0.128571
455.332 23.0296 0.495364
155.453 15.4428 -0.388981
579.957 86.0784 -0.315909
161.471 3.89114 0.510949
42.2619 42.5424 -0.347848
559.511 78.1339 0.424162
260.581 35.2203 -0.419988
520.648 59.3221 0.468099
581.021 59.6585 -0.529806
276.691 9.36457 0.161769
545.346 51.4412 0.327578
302.482 2.57332 -0.4031
369.187 37.0483 0.427154
520.89 46.1279 -0.649785
97.3705 12.7493 0.553064
406.507 3.97497 -0.460148
558.907 38.5509 -0.22951
80.6524 7.71545 0.223629
259.832 16.1412 0.212207
373.431 21.9062 0.264172
595.159 3.77805 0.699571
357.402 1.88272 -0.612534
162.628 41.899 -0.291485
565.268 21.5411 -0.5047
117.528 39.4483 -0.198257
243.148 36.1818 0.397791
357.13 27.4713 -0.22362
471.417 21.928 -0.385767
347.437 10.1037 -0.471738
412.713 50.7443 -0.538964
571.195 80.6907 -0.41523
43.813 12.6915 -0.125856
276.279 40.8478 -0.263282
349.465 37.0821 0.402333
361.315 27.1315 -0.243588
436.387 57.6159 0.435499
562.518 63.8142 0.26215
511.143 82.0335 -0.347119
209.617 35.6973 -0.349485
12.7339 34.1447 0.195101
505.384 88.1871 -0.120582
426.586 50.8058 -0.507958
213.109 40.8765 0.128053
531.833 71.1523 -0.122048
140.329 10.0845 0.174906
333.248 26.594 0.262103
410.086 68.184 -0.131033
363.351 26.7395 -0.20231
566.352 80.85 0.31617
376.446 7.3063 0.549208
44.2656 29.0941 -0.32246
420.459 62.1003 -0.375165
390.989 62.5967 0.362702
586.777 83.1313 0.246704
547.867 46.5919 -0.262769
450.637 29.1925 -0.183746
579.568 77.8164 -0.461126
270.053 2.2212 -0.508271
347.743 38.7417 0.537937
24.7421 44.563 -0.30094
546.21 53.2404 -0.20843
496.394 24.0677 -0.648291
394.108 0.882486 0.694031
116.759 4.64427 -0.359526
383.311 60.1073 0.128655
11.203 0.856753 0.328925
593.674 10.2308 0.28132
338.066 48.8406 0.497505
500.04 6.60869 0.537162
[...]
POINT_DATA 13483
TENSORS Strain_matrix float
-0.00495632 0.0271146 -0.695503 
0.0109907 -0.0275535 0.436713 
-4.51309e-05 0.00842617 0.141774 

0.00592916 -0.00680534 0.0495419 
0.0336613 -0.0136909 0.0788963 
-0.000529581 0.00266057 0.025396 

0.00355666 0.000639606 -0.0098645 
-0.00302925 -0.00475213 -0.0115527 
-0.000485724 0.000578278 0.00289663 

-0.536529 -0.233123 -0.257444 
-0.075464 0.372251 -0.32166 
0.0183946 0.0645189 0.0541285 

0.027651 0.0669134 0.00298131 
-0.0433837 0.000898326 -0.0151213 
-0.000232058 0.00150976 -0.0131029 

-0.0525225 -0.0479468 17.4761 
0.00232497 0.103423 -13.2199 
-0.000706796 0.000191505 -0.284354 

-0.0577927 0.00685226 -0.350848 
0.0239446 0.0430346 -0.744697 
-0.00431386 -0.00401893 0.29755 

0.0230015 -0.00619195 -0.0234432 
-0.000561192 -0.0149957 0.0030039 
-0.000984204 0.000245379 -0.00370473 

-0.256711 0.0397496 0.508898 
-0.297047 0.239861 0.637846 
-0.0498294 0.0324592 0.265009 

-0.0296192 0.0221702 0.0155592 
0.00148781 -0.0267352 0.114657 
0.00108969 -0.000208449 0.210528 

-0.0126855 -0.0158578 0.0106213 
-0.00432584 0.00503109 0.00778412 
9.6732e-05 -0.000502392 0.0152413 

-0.0543583 0.0534171 -0.167585 
0.0286015 0.0940224 0.269971 
-0.0174897 -0.0391076 0.332632 

-0.2233 -0.107426 0.904694 
-0.0210769 0.190084 -0.213408 
0.0290198 0.0575138 0.170754 

0.00826433 -0.0091914 -0.00315362 
9.14754e-05 -0.0080415 0.00080509 
-0.00138187 0.000412774 -0.00129591 

-0.0990827 -0.104327 0.0508263 
0.110413 0.156286 0.014292 
0.0786487 -0.0555488 0.0776286 

-0.010037 0.0170112 -0.0194993 
-0.0254158 0.00299712 -0.013135 
-0.0087352 -0.00542168 0.0347279 

-0.0286192 -0.0527112 0.0380153 
0.00144895 0.00281604 -0.0165645 
0.0144778 0.00154102 0.00943069 

-0.0386835 0.0762847 -0.0265865 
-0.039466 -0.0230153 -0.0046587 
-0.0024207 -0.00723667 0.0577538 

-0.122614 0.0489351 -1.24678 
-0.0699948 0.149041 0.259529 
0.00290383 -0.00939525 0.1716 

0.000634146 -0.00820133 0.0143186 
0.0120029 -0.0228676 -0.0359075 
0.000356677 0.0023417 0.0155766 

-0.0527287 -0.263317 -0.500678 
0.0501842 0.159268 -0.692856 
0.03312 -8.70608e-05 -0.108872 

0.0355017 -0.0617785 -0.106564 
-0.0650589 0.0148334 -0.0503736 
0.0421083 -0.0677645 1.00577 

-0.0075337 0.111498 0.222263 
-0.162861 -0.0311769 -0.384161 
-0.0114151 0.00112828 0.0480697 

-0.0050124 -0.0403373 0.388803 
0.0239036 0.0136327 0.823661 
-0.00150889 -0.000515036 0.40755 

-0.0866981 0.0898495 -0.638622 
0.00146146 0.00865952 1.30926 
0.0137346 -0.00775908 0.169161 

-0.0110907 -0.104949 -0.0835743 
0.117349 0.0328608 -0.032461 
0.00414791 0.016489 0.0275496 

-0.36372 0.451953 11.3235 
-0.326269 0.299942 5.26446 
-2.92462e-05 0.00318881 0.142624 

0.0242159 -0.0176401 -0.0635978 
-0.00477434 -0.0401424 -0.0196824 
0.0022382 -0.00111827 0.0333637 

-0.0197045 -0.0655214 0.508647 
0.0360565 0.0458692 0.0278267 
-0.00283509 0.00268648 0.236186 

-0.0130125 0.0317816 -0.0318734 
-0.00722274 -0.00258483 0.0274497 
0.00723649 -0.0111299 0.0750304 

-0.0239041 -0.0998127 -0.079979 
0.0553821 0.150814 -0.648623 
0.028479 0.0191574 0.0319118 

-0.0192805 -0.041213 0.0366476 
0.000389996 0.018794 0.0329004 
0.00165511 -0.00049105 -0.00535054 

0.0015661 0.00943427 0.00631733 
-0.00217133 -0.0101008 0.00305027 
-0.000888392 0.00125965 0.0176342 

-0.0183968 0.0138138 0.207705 
-0.0187729 0.0330361 -0.0527805 
0.00222686 -0.00636576 0.101449 

0.0178636 0.0987007 0.028112 
-0.100696 0.0035571 -0.00478057 
0.000828238 0.000967381 -0.0135377 

-0.0097373 0.079033 0.139149 
-0.0963919 -0.00549781 0.00800175 
0.000186566 -0.00243349 0.0479885 

-0.01759 0.0294689 -1.19244 
-0.0925507 0.0200972 -0.129612 
0.00262539 0.0102451 0.228491 

-0.0646773 0.0590468 0.508149 
0.186538 -0.070204 -0.425995 
-0.00575508 -0.000782126 0.0447896 

-0.0920491 0.120045 0.13334 
-0.091793 0.0476825 0.0534466 
0.00633897 -0.00538111 0.0715154 

0.00538103 -0.0636655 0.0691035 
0.0830756 -0.00500189 -0.136349 
0.000423925 -0.00678828 0.171403 

-0.0161041 -0.0335949 -0.0185899 
-0.0282399 0.0311808 -0.109374 
-0.00949223 0.00350731 0.0417002 

0.00988247 0.0316137 0.123097 
-0.190902 0.0176371 0.0466368 
0.000169155 0.00290354 0.0411361 

0.0567185 -0.130013 -0.0370724 
0.13584 0.0113671 0.0138962 
0.0131546 -0.0129803 -0.0816642 

0.00407455 0.000138443 -0.0466888 
-0.0207946 -0.00639769 -0.0160717 
0.00333166 -0.00127136 0.00312648 

-0.12834 -0.201517 0.119225 
0.332982 0.177199 -0.0568404 
0.032552 -0.0511955 0.272555 

-0.111399 -0.116955 0.234693 
-0.0392615 0.0985297 -0.635362 
-0.0372507 0.014325 0.21332 

-0.15394 -0.159976 1.48229 
0.156281 0.154735 -1.79136 
-0.0105384 0.00666888 0.220221 

0.00463617 -0.00946945 0.00440496 
0.0152141 -0.0035089 0.000435802 
0.00187822 -0.000927927 0.00388984 

-0.0230997 -0.27609 0.509184 
0.120157 -0.00362676 0.169417 
-0.0171716 -0.0541554 -0.232517 

-0.132207 -0.0873771 1.6652 
0.192633 0.0407127 -0.299109 
-0.000786888 0.00747058 0.157119 

-0.143848 0.0492213 -0.362485 
0.141975 0.118324 -0.43476 
0.0396738 -0.0296333 -0.000594838 

-0.00257173 -0.0373311 -0.021297 
0.0174341 0.00563821 -0.0275792 
0.000853707 -0.00313911 0.00466052 

0.00861966 -0.0761623 -0.019321 
0.0585096 0.0243545 0.0211906 
-0.00500547 0.000612056 -0.0385168 

0.00682625 -0.000830429 -0.0538232 
-0.00913147 -0.0159831 -0.066067 
-0.00245597 -0.00562329 -0.0133738 

-0.0612536 -0.0366926 0.0249987 
0.126562 0.0302763 0.00670704 
0.0100031 0.010793 0.0656692 

0.0237976 -0.135506 0.452447 
-0.0207262 -0.105705 -0.366504 
0.00389255 -0.0260076 0.157423 

-0.289497 0.0163069 0.214048 
-0.0787949 0.20116 -0.0755903 
-0.00699537 0.0101456 -0.0203583 

-0.0337681 -0.0547269 -0.212927 
0.00881068 0.032599 0.223258 
0.0105918 0.00100073 0.103406 

-0.000943739 -0.00106892 0.00526075 
-0.00255089 0.00491553 -0.00293717 
0.000131705 0.000158353 -0.00571181 

-0.0499428 0.0737233 0.0501021 
-0.0807566 0.0129875 0.0261782 
-0.0114723 -0.00861405 0.132422 

-0.782752 0.536157 -0.517083 
-0.442131 0.352162 -0.414924 
-0.009477 0.042645 0.144044 

0.00208139 -0.115611 -0.0324279 
0.132728 0.0115281 -0.0365332 
0.00248061 0.000300336 0.0527704 

-0.0187038 -0.141545 0.0409271 
-0.0164855 -0.0369383 -0.0408026 
-0.00153927 0.0104927 0.00635199 

-0.0795368 -0.231486 -0.911406 
0.160468 0.132345 2.16665 
-0.0341919 -0.000641523 -0.195068 

-0.172558 0.118839 0.398292 
-0.0347269 0.0798729 0.402293 
-0.0202898 -0.0132932 0.0286421 

-0.0170989 -0.0313165 -0.102543 
0.0482774 0.0105723 0.0746005 
-0.00498074 0.00193204 0.0459968 

-0.135122 -0.283222 0.339347 
0.0513894 0.313843 -0.143546 
0.00922635 0.0188509 -0.119338 

0.00423654 0.0283464 -0.0594057 
0.00780652 0.00509238 -0.270915 
0.0284792 -0.0379568 0.252844 

-0.0979295 -0.230747 3.37073 
0.237068 0.172189 2.98321 
-0.0150265 0.0061182 0.224055 

0.0144077 -0.016579 0.00915289 
-0.00117539 -0.00955158 -0.00967405 
0.000874868 -0.00255996 -0.00594191 

-0.0117111 -0.118853 0.060077 
-0.00269342 0.0308508 0.267575 
-0.0229059 0.00604754 0.267298 

0.00395816 -0.0129002 0.0298602 
-0.00562774 -0.00964525 0.032288 
-0.00169401 0.000100044 0.00914087 

-0.00948655 0.201293 0.723554 
-0.343517 0.181292 0.344637 
-0.00246391 0.0206766 0.0865686 

0.0116154 0.272712 -0.060926 
-0.41421 0.0360561 -0.13469 
-0.0616085 0.0112757 0.226241 

-0.0655897 -0.000173166 0.392531 
0.0140618 0.0669717 -0.433383 
0.00936361 -0.00282326 -0.00805243 

0.00561475 -0.0123673 0.0129606 
0.00462506 -0.00138849 -0.0235256 
-0.00209343 -0.000162673 -0.00125092 

0.0214277 -0.043898 0.0683307 
-0.0303048 0.00988597 -0.085817 
0.0120018 0.00513033 0.0109168 

-0.0165235 -0.0662289 0.200571 
0.0726038 0.0534448 0.37232 
-0.00583281 -0.00342499 0.102841 

-0.110335 -0.271084 0.319502 
0.0698972 0.163509 0.195475 
0.0126292 0.00650266 0.163531 

0.0192786 -0.0927459 0.026867 
0.102435 -0.0243766 0.0813249 
0.000168995 0.00193113 0.050796 

-0.0626421 -0.0129461 0.0946662 
0.0668173 0.0642335 -0.0662795 
-0.0323727 0.038525 0.0119954 

0.00438365 -0.0705202 -0.127442 
0.111422 0.0167374 0.423746 
-0.00915568 0.00269911 0.0256464 

0.00804816 0.021749 0.35061 
0.00942881 0.0289576 0.188806 
-0.0297494 0.0340937 0.159482 

0.00385454 -0.0372341 0.0206677 
0.0404932 0.0164699 -0.0422017 
-0.000352728 0.00055114 -0.0267784 

0.00129998 -0.208768 0.00713158 
0.19304 0.0257502 -0.0406362 
0.00195113 -0.0102674 -0.0265786 

-0.00150904 0.0122616 -0.0144471 
0.00820572 -0.000658482 0.011253 
-0.00106805 -0.00114984 -0.00105408 

-0.0190723 0.908572 -0.152386 
0.00322837 0.10301 -0.00278344 
-0.00033195 0.0781221 0.057328 

0.0144403 -0.00711702 0.000125393 
-0.0365873 -0.0103982 0.0416095 
-0.000691397 0.00274885 0.00618418 

0.0277616 -0.0244092 0.0522695 
-0.0197094 -0.0174031 0.051557 
-0.00295783 6.19168e-05 -0.0259133 

0.000936802 0.00473898 -2.10748 
-0.000999281 0.00647251 1.60376 
0.00223502 -0.00209611 0.00649074 

-0.224605 -0.120044 -0.19941 
0.434257 0.254141 -0.158618 
-0.0264414 0.0987181 0.221719 

0.0128633 0.0490177 -0.00923599 
-0.0791883 -0.00546061 0.100988 
-0.00537989 0.00535747 0.0336769 

0.0507071 -0.313247 1.77622 
-0.0118111 -0.108839 -1.7089 
-0.00597963 0.000480711 0.0528252 

0.0166627 0.0569259 0.00677183 
-0.118944 -0.0132895 -0.064063 
0.0145729 0.037006 0.0288976 

0.00112659 -0.0425053 -0.0150417 
0.0585498 0.0054415 0.0348547 
-0.00141688 -0.00184831 -0.0078517 

-6.62009e-05 -0.00214315 0.0129613 
-0.00856693 0.030048 -0.0164797 
0.00279711 -0.0048954 0.0119239 

0.025637 0.0231622 0.187843 
-0.0638945 0.0240808 -0.288201 
-0.00826357 -0.00893294 0.0533888 

0.0237099 -0.0524531 -0.0142776 
-0.00082697 -0.00550704 0.0701993 
-0.0627458 0.0340104 0.16874 

-0.0389859 -0.263289 -0.121782 
-0.254187 0.0246392 -0.576209 
-0.0610043 -0.0143058 -0.124682 

0.0465514 0.416149 1.81665 
0.0649029 -0.139386 0.66832 
0.0283339 0.0536098 0.228788 

0.00256596 -0.0444258 -2.7244 
-0.0173731 0.0198395 0.713522 
0.00906514 0.00364708 0.0859474 

-0.131215 -0.0751358 -0.331196 
0.149664 0.0919764 3.62529 
-0.00170731 0.000377513 0.248261 

-0.15984 0.204058 0.1911 
0.0567673 0.0596045 0.436801 
0.0063641 0.071028 0.44904 

-0.26536 0.069044 -0.668025 
-0.333239 0.181886 -0.208244 
-0.00354763 -0.0190826 1.32444 

-0.164973 0.0765666 -0.446826 
-0.0734295 0.12265 0.230152 
0.012742 0.0140083 0.000528 

0.0403096 0.0461218 -0.0199644 
0.0470313 -0.0314301 0.0538569 
-0.00244182 -0.00473329 -0.00386064 

0.0110149 -0.063721 0.0223081 
0.0521018 -0.0438499 -0.0166187 
0.00361374 -0.00562603 0.0213252 

0.00828427 0.0804884 -0.176283 
-0.107556 0.00320814 -0.101866 
0.00206952 -0.00105238 0.0285176 

-0.0276235 0.0798824 -0.0519641 
-0.185004 0.0356641 0.0182474 
0.0183989 0.00787027 0.000109032 

0.0224201 -0.0161965 -0.0999974 
-0.0173328 0.0105145 0.264421 
-0.00270427 0.00230591 0.0485563 

-0.124012 -0.076474 -0.323938 
0.111717 0.184751 2.3506 
0.0172552 0.0152831 -0.0624858 

0.0303887 -0.0380385 0.175069 
-0.00119863 -0.0341121 0.4074 
0.000237716 -0.00249532 -0.0109426 

-0.00145119 0.00162478 0.0014962 
-0.00257046 0.00701998 -0.00458658 
0.00021807 0.000831747 -0.00549688 

-0.00995086 -0.0790331 -0.167063 
0.179088 0.00781608 0.625978 
-0.023975 -0.00234587 -0.140115 

-0.152789 0.0326839 -0.123265 
0.135713 0.155999 -0.43555 
0.00754751 0.0218713 0.021366 

-0.0285594 -0.0479099 0.958018 
0.0495567 0.0197519 -0.39179 
-0.00718072 0.00374592 0.257453 

-0.0145765 0.0999425 0.20822 
-0.17457 0.0564002 0.399631 
-0.0823028 -0.0723821 0.253613 

-0.111744 -0.035658 -0.221588 
0.0925514 0.0488535 -0.189817 
0.00255509 0.0192951 0.0393422 

0.0164354 -0.0849705 -0.0394733 
0.00653045 -0.0111787 0.00549696 
-0.00141413 -0.00427434 -0.0393852 

0.0405832 0.0656705 0.127843 
-0.0404928 -0.014697 -0.122517 
0.00104671 -0.000766595 -0.020159 

-0.00887428 0.195523 -0.190782 
-0.187799 0.0651952 -0.134511 
0.0361954 0.00274003 0.019557 

0.0231652 0.118073 -0.0261583 
-0.322163 -0.0531029 -0.0708092 
0.0171335 0.00941418 0.111956 

0.037939 -0.192458 -0.044179 
0.178777 0.0173532 0.158069 
0.00283019 0.00224278 -0.0281472 

0.0682179 -0.160753 0.0867255 
0.15226 -0.0289135 0.0477599 
-0.0011893 0.00237293 -0.0566933 

-0.0118089 -0.025666 0.238487 
0.00064755 0.00926374 0.437696 
-0.00275951 -0.00114028 0.323704 

-0.24739 0.111523 0.0129384 
0.14174 0.219811 -0.480268 
0.0078122 0.0653199 0.484122 

-0.000916652 -0.0278142 0.0504913 
0.0476887 0.0028982 -0.0235881 
0.000856361 -0.00024801 0.00631228 

-0.0291942 0.0473041 -0.126632 
-0.0205364 0.0470877 0.411261 
0.0037477 0.00465703 0.120094 

-0.108577 -0.125105 -0.483137 
-0.111749 0.087927 0.0295507 
0.0033723 -0.00659371 0.0014405 

-0.0161375 -0.0966749 -0.0122095 
0.0154766 0.0119065 0.194866 
-0.00362311 -0.00834066 0.108124 

-0.000754099 0.0164065 0.0534794 
-0.01784 -0.00273286 0.000207831 
0.00141862 -0.000101794 -0.000344565 

-0.0016115 0.0119719 0.00791288 
0.0192013 -0.00909364 0.0342476 
0.000220802 0.000688414 0.0157304 

-0.123175 0.274152 -1.8229 
0.012079 0.200219 -1.26206 
-0.00179908 0.0112815 -0.00207543 

-0.493403 0.117398 -0.568725 
-0.90772 0.442311 0.556889 
-0.0328369 0.0325809 0.202026 

-0.398142 0.560545 -2.26254 
0.250186 0.134668 1.59574 
0.0339933 -0.034847 -0.344752 

-0.0749037 0.058983 0.0215128 
-0.0732179 0.0842034 0.0851601 
-0.0251212 -0.00998502 -0.192718 

-0.0135939 -0.0325235 -0.0117578 
0.010773 -0.00275154 0.0378115 
0.0144538 -0.0236774 0.0134596 

-0.0123879 0.0214957 -0.0423289 
-0.0337759 0.00135504 0.0135726 
-0.000205744 -0.000786353 0.0401944 

0.0170488 0.00277012 0.0469867 
-0.00389841 -0.0126361 -0.0128735 
-0.00535047 0.00171003 -0.00788358 

-0.0490814 -0.0713432 -0.586575 
0.0237238 0.108309 -0.26141 
-0.0735848 -0.0331486 0.485466 

-0.022537 0.0558386 0.642025 
-0.00150004 0.0177222 0.359002 
-0.00184374 -0.00280649 0.00175171 

0.0264504 -0.110195 -0.0141974 
0.133242 0.00086086 0.0127729 
0.00767171 0.000995036 -0.006418 

0.00417323 0.0542783 0.00433802 
-0.00117203 -0.0157462 0.0742509 
-0.0355492 -0.00970466 0.164378 

-0.104129 -0.331707 -1.81651 
0.083853 -0.0169506 -4.00752 
-0.0112799 -0.00131086 0.252997 

-0.00481661 0.0917827 1.27485e-05 
-0.138241 0.00385996 -0.0315211 
-0.00118631 0.00191957 0.0056529 

0.0321035 -0.0279489 -0.0471288 
0.00234348 -0.0269907 -0.0336588 
-0.00103383 -0.00109754 0.0109221 

0.000224679 -0.0124359 -0.0232986 
0.0261151 -0.0246218 -0.00787841 
-0.00427721 -0.00366414 0.00100802 

0.00367927 -0.00239035 0.00269724 
0.00558229 -0.00812984 0.012668 
-0.000488862 0.000267606 0.00694038 

0.0980853 0.882241 -0.624401 
0.418657 -0.283733 -0.247579 
0.0540113 -0.0158716 0.120416 

-0.252904 -0.134356 0.220525 
-0.072409 0.153547 0.0137598 
-0.0154282 0.0355244 0.127528 

0.000304561 -0.0144013 5.84172 
0.224315 0.0480363 0.914337 
-0.0406392 -0.0105944 -0.0354365 

-1.07326 0.81054 -3.37707 
0.0421858 0.444854 -0.222238 
-0.0130956 0.0172297 -0.0924445 

-0.0267373 0.0838196 1.17646 
-0.112432 0.0176244 -0.0787632 
0.0124451 0.000691871 0.0854936 

-0.0171983 -0.00710856 -0.242111 
0.0350891 0.00351466 -0.668092 
0.00079818 -0.0023455 0.0284267 

1.82879e-05 -0.029568 -0.0271576 
0.0324079 0.00268895 -0.122715 
0.00195765 -0.00453303 -0.0252191 

0.0181602 -0.00199104 -0.670358 
0.0383466 -0.0237767 -0.573597 
0.0076483 0.00741142 0.0757249 

0.0630671 -0.259559 0.130137 
-0.0246723 0.0326572 0.150836 
0.0203084 0.00711184 -0.168903 

-0.0361267 -0.0166144 -0.599861 
-0.0594176 0.0422785 1.08002 
-0.00522914 -0.00218391 0.359924 

0.043721 -0.0346305 0.153699 
0.0369582 -0.0182588 0.146059 
0.000154065 0.00108777 0.00117176 

0.110513 0.197628 -0.210223 
-0.139124 -0.104126 0.105236 
-0.000317778 -0.0106214 -0.0217668 

0.0291486 0.0488588 -0.315044 
-0.0446613 -0.0361964 -1.45818 
0.0330773 0.0148071 -0.0953615 

-0.107466 -0.213845 3.07448 
0.0275788 0.105947 -2.96454 
-0.00734358 -0.0143337 0.0957687 

-0.532506 0.0147291 -1.8175 
-0.122174 0.36452 -0.906377 
-0.0226057 -0.0229015 -0.0564631 

-0.150912 -0.0511277 -8.97555 
-0.234102 0.047084 -1.22547 
-0.00335133 0.0157295 -0.490089 

-0.0889992 -0.00198463 -0.452304 
-0.00642086 0.0696761 -0.531521 
-0.0140786 0.00096122 0.0334487 

-0.213129 0.330149 -0.29734 
0.138121 0.245782 -0.235715 
-0.0433722 -0.0218278 0.0512446 

-0.00951631 -0.0328414 0.0507448 
0.0189396 0.00679801 -0.0318452 
-0.00405097 0.00135953 0.0162264 

-0.274244 -0.085047 0.0282008 
0.0613262 0.257846 0.0750955 
0.0149653 0.0107183 0.369035 

-0.111697 0.0534771 -0.601486 
0.0673684 0.0706333 -0.264857 
-0.00137458 -0.00895933 0.247354 

0.0020455 -0.00179411 -0.00366382 
-0.0074617 -0.00453555 -0.0223717 
3.71707e-05 -0.000678085 -0.00498934 

-0.115004 -0.0254041 -0.125289 
-0.137092 0.129333 -0.462151 
0.00689718 -0.0637586 0.169096 

-0.0132126 0.0218596 -0.0696674 
-0.0372654 0.00197835 0.03829 
-0.000795636 -0.000296952 0.0816073 

-0.0341137 -0.0488861 0.0473834 
-0.0175167 0.00965105 -0.0958295 
0.00290022 0.00279152 0.0119689 

0.0243219 0.00703875 -0.0373173 
-0.00428938 -0.0223802 -0.00159007 
0.0279934 0.0112991 -0.0938674 

-0.0103567 -0.0347106 0.0230145 
0.0570466 -0.0109494 0.0200467 
-0.00109682 -0.00314362 0.0383154 

0.017469 0.39422 -1.23882 
-0.433781 0.187731 -0.935918 
-0.00552634 -0.0105308 -0.0212647 

-0.00691784 -0.00699461 0.0214293 
0.00857916 0.00298287 -0.0160507 
0.000461367 -0.000329802 -0.0032808 

-0.0243829 -0.146465 0.0133225 
0.133403 0.0349554 0.0382104 
-0.00400582 0.00107346 -0.0227839 

-0.0219845 0.172973 -7.19884 
-0.114448 0.0362362 1.35385 
0.0150239 0.00703662 0.268792 

-0.000791045 0.0246929 -0.021575 
0.0404984 0.0310547 -0.0511391 
0.0384234 0.0582131 0.0505249 

-0.00774629 -0.0311436 0.182383 
0.0122541 -0.0059491 -0.143398 
-0.00173639 -0.000298165 0.00178683 

0.0430814 -0.0364516 -0.138033 
-0.00488874 -0.0297277 -0.0220479 
-0.0263683 0.0062161 0.046947 

0.00126541 -0.00849737 -0.00557152 
0.0108614 -0.00278429 -0.0400224 
-0.0331999 -0.0104392 0.0163702 

-0.0134842 -0.0200477 0.0148766 
-0.00349273 0.0154957 -0.0459591 
0.0397185 0.0425011 -0.172832 

-0.163196 0.227956 0.531194 
0.292873 -0.0431234 -0.491687 
-0.0191092 -0.066766 0.24417 

-0.0519067 0.0351459 -0.152567 
-0.0982465 0.00520495 0.0596408 
-0.0137711 0.000244495 0.0571294 

-0.00850986 0.00537771 0.701881 
-0.363316 0.15847 0.823635 
0.02943 -0.000348433 0.820113 

0.0185388 -0.0573924 0.0041283 
0.0693575 -0.00694772 -0.0296967 
0.000197147 0.00225753 0.00971467 

-0.0324285 0.0996068 0.365976 
-0.227051 0.0765439 0.114014 
-0.0222229 -0.027194 -0.0154315 

-0.0131319 -0.00561626 -0.171532 
-0.00640354 -0.0237404 -0.412474 
0.0145406 -0.00598682 0.088522 

0.0553476 -0.0746419 -0.0266654 
0.0675351 -0.0233056 0.0673557 
0.00419088 -0.00327889 -0.0208931 

-0.454762 0.522268 -0.725319 
-0.0164357 0.23202 0.147861 
-0.00766861 -0.134935 0.385126 

-0.767416 -0.37511 4.03201 
0.278872 0.585469 -0.265736 
0.0450345 -0.0134927 -0.0314821 

-0.138032 -0.461373 1.2321 
0.166904 0.172719 0.513082 
-0.0203638 -0.0133166 0.124967 

0.0499876 -0.360288 0.00984208 
0.364357 0.0226748 -0.133602 
0.0248105 -0.010161 0.110986 

-0.0401973 0.0790782 0.38986 
-0.122852 0.0477428 -0.00736801 
-0.045266 -0.093761 0.519952 

-0.0174046 0.107941 0.00178283 
-0.0535038 0.00858913 3.58134e-05 
0.00390677 0.00319593 0.0191118 

0.0593868 -0.00961161 0.242505 
0.132232 0.0315988 -0.44567 
-0.00188743 0.00369883 -0.0217404 

-0.145857 -0.156649 0.00374357 
0.0333904 0.0903824 -0.477955 
0.0123202 0.0139718 -0.0281707 

0.0140596 0.104763 0.00272965 
-0.116623 0.0166786 -0.0717847 
-0.0236458 0.031108 0.814302 

0.0374355 0.0194137 0.735947 
-0.0191301 -0.0234563 0.190842 
0.0252788 0.0435562 0.715294 

-0.17639 0.0771613 0.0209174 
0.0550812 0.228095 0.197006 
0.0196914 -0.0126287 0.0226016 

-0.0176459 -0.034851 0.0628604 
0.0608671 -0.00576596 -0.00516694 
0.012483 -0.00276251 0.00209946 

-0.558112 0.323943 1.10909 
-0.483266 0.49449 -0.323912 
-0.00395017 0.00490901 0.233152 

0.000339093 -0.00581272 -0.00395488 