# vtk DataFile Version 3.0
Output file generated by Yade's KinematicLocalisationAnalyser
ASCII
DATASET UNSTRUCTURED_GRID

POINTS 13483 float
439.416 35.3072 0.476348
523.507 81.4347 0.566745
103.461 6.17789 0.519119
554.309 5.46599 0.363562
391.045 10.0807 -0.437673
274.154 44.1923 -0.601174
135.663 7.50138 0.442572
413.767 12.4895 0.221504
383.619 63.2805 -0.147771
503.705 15.4293 0.682008
184.463 9.45268 -0.140978
223.918 6.42113 0.33998
476.523 76.2609 -0.165989
458.773 19.9184 -0.103
118.445 19.3836 0.475994
191.091 40.0788 0.44617
191.021 13.069 -0.384054
251.391 11.8586 0.512841
296.647 43.7208 -0.478676
396.171 24.1704 -0.495673
335.915 38.8215 -0.117167
432.58 63.1127 0.264787
545.397 63.0349 -0.457537
486.184 73.9998 -0.475139
369.714 33.5329 0.36234
210.186 48.8055 -0.132343
383.301 65.3322 -0.444841
426.559 26.5557 0.307267
40.2342 16.3917 0.495261
509.757 74.8365 0.364523
380.512 7.12973 0.582281
14.6158 25.8604 0.331416
535.948 87.988 -0.291457
389.189 2.4914 0.675819
67.6684 48.7061 0.108344
406.379 74.4596 -0.37039
396.663 42.8286 0.471341
292.946 28.8338 0.193788
401.42 68.4724 0.319531
301.505 41.1548 -0.4958
210.976 16.6171 -0.342248
352.376 44.2507 0.0822283
485.639 25.9513 0.1302
168.469 6.68682 0.453449
49.6225 7.3338 0.091749
61.9025 9.45666 0.275471
480.263 8.23535 0.632474
20.8622 12.3925 0.288207
437.013 59.1543 -0.414904
480.877 51.4938 -0.330544
150.267 35.0053 0.444166
527.102 69.2686 -0.120588
30.5073 30.2715 0.114765
401.552 6.08978 0.550449
124.495 6.87959 -0.578542
429.863 46.2009 0.525532
395.4 70.568 -0.117481
152.687 0.927677 -0.304757
29.101 2.35115 0.360987
295.709 22.1786 0.28607
443.755 62.6879 -0.167913
355.215 63.7684 0.197566
329.604 1.04046 0.226664
490.247 9.79156 -0.632305
23.3402 48.518 0.261363
224.222 34.0853 -0.341716
504.411 8.28692 0.505203
492.033 99.5836 -0.347634
346.152 9.55477 -0.634879
414.592 4.50318 -0.620494
513.04 46.3493 -0.537538
113.605 7.9429 -0.336046
387.999 67.2637 0.130208
375.603 48.209 -0.158584
256.535 17.6613 -0.672474
18.4271 14.5129 0.256846
546.184 84.0339 -0.396921
288.381 52.3604 -0.376322
478.407 47.9871 0.394565
487.746 25.8125 -0.236263
541.932 30.6001 0.4763
357.314 66.9614 -0.202911
81.6547 43.547 -0.285821
476.842 64.3197 0.243005
468.254 82.1826 0.0290266
550.796 70.9334 0.130116
549.241 0.712499 -0.700777
256.301 32.9518 0.513993
456.456 6.17731 -0.13211
22.1417 6.21823 0.652579
118.387 45.1877 -0.179165
391.448 34.0711 -0.272907
534.876 57.2648 0.508222
172.713 29.4827 0.240897
38.9468 37.8915 -0.270308
388.204 1.01053 0.270975
208.105 9.78968 -0.489425
510.228 57.759 -0.266941
521.775 50.3482 0.300792
304.882 30.111 -0.258558
143.236 28.5409 -0.432027
435.472 80.2202 -0.419594
317.82 24.2869 0.456945
337.54 30.8574 0.142216
313.786 6.06767 0.656984
405.618 31.7461 0.16549
552.963 24.2133 -0.315859
69.574 43.6384 0.309753
287.742 6.47035 0.214155
410.768 13.5054 -0.473432
301.494 66.8949 0.465004
23.0291 25.6387 -0.575364
27.6685 6.09844 0.345029
408.424 59.0356 0.432259
386.851 51.9152 -0.142506
22.6284 41.778 -0.435087
82.7475 36.0553 -0.22458
279.237 18.7432 -0.362762
439.854 19.3726 -0.121809
366.049 73.4385 0.330083
518.658 8.84222 -0.50671
512.34 7.56585 0.250832
324.608 55.0503 0.128818
456.228 48.7534 0.145046
209.348 20.1085 0.663799
285.311 5.45951 0.57451
92.5481 35.806 0.427474
103.534 26.3683 -0.294789
431.709 81.7195 -0.0785986
266.444 21.9286 0.510115
506.33 75.274 0.131926
497.479 98.4741 0.107327
375.792 55.252 -0.360031
533.577 38.9428 0.281707
354.013 26.7311 -0.264063
243.603 28.3318 0.293285
472.455 71.0674 0.294476
246.736 32.8626 0.447172
421.507 17.8528 -0.326614
290.834 48.3356 0.0647366
388.9 24.8954 0.561638
306.186 51.8214 0.0927737
356.226 17.7582 -0.158786
276.918 53.7727 0.431387
169.019 30.5968 -0.141402
528.016 82.8915 0.145868
551.005 24.7135 -0.330924
5.85783 13.3249 0.416519
358.614 24.37 -0.592463
35.2194 25.1167 0.0710325
314.052 49.0176 0.47981
326.721 32.3134 0.375016
68.1698 13.2571 -0.520365
45.5914 36.1637 -0.618765
200.23 14.4179 0.486464
448.12 58.2627 -0.537823
425.042 26.7396 -0.564085
66.8514 22.9131 -0.586676
487.574 78.2947 -0.361384
542.695 2.17284 -0.610033
484.457 92.9042 0.0899198
486.836 2.56687 -0.636475
405.621 57.1136 0.415688
432.873 61.6022 -0.579663
390.705 40.7063 -0.386273
554.781 11.1224 -0.214222
197.91 27.8319 -0.116699
114.09 41.9064 -0.203549
217.962 8.2141 0.384257
82.5196 7.65451 -0.209238
58.1517 10.4656 -0.22591
244.126 40.632 0.307601
15.8098 27.0965 -0.370293
416.773 37.5822 -0.568469
439.487 51.3206 -0.208538
364.155 46.6497 -0.380841
549.798 98.0959 -0.346219
339.861 8.53545 -0.123208
345.748 49.8916 -0.501708
407.107 9.71086 -0.440711
20.7274 24.326 -0.48595
423.492 5.01054 0.515961
408.931 21.792 -0.39478
183.012 12.1531 0.561191
354.266 16.6865 -0.363879
271.903 7.01837 0.537076
324.691 19.9249 -0.534002
501.359 51.473 -0.106953
171.167 26.4973 0.444181
539.722 25.5088 0.450897
503.038 46.3151 -0.432093
318.421 13.2593 0.183565
503.271 2.32653 0.498937
438.119 34.7389 -0.482926
524.227 17.3891 -0.448813
336.155 61.3391 0.278023
384.596 26.4436 0.546642
357.43 78.1794 0.218125
371.29 12.0342 0.21573
488.367 93.9079 0.252774
486.73 89.538 0.30337
169.771 40.8748 0.406548
540.701 34.2144 0.129744
445.684 74.5006 0.26289
10.6287 18.7767 0.27307
336.726 27.2856 0.326599
166.447 24.0955 -0.425124
83.2866 44.4228 0.224371
532.786 54.4898 0.443833
479.151 95.2001 0.236589
277.895 30.8051 0.339702
403.09 33.3206 0.531556
72.5581 49.0086 0.186501
218.5 29.4127 -0.481702
420.134 43.0392 0.376935
385.171 57.7604 0.44037
232.28 0.906346 -0.425939
445.209 80.4256 0.379148
425.29 84.7893 -0.454614
378.751 71.8448 0.37537
396.401 4.01823 -0.605446
492.391 23.0776 -0.49441
158.507 13.4126 0.396754
394.731 81.6623 -0.443854
412.887 65.5252 0.123067
66.9537 0.918661 -0.332648
222.296 4.86152 0.234812
549.111 29.7607 0.229696
542.379 31.9129 -0.681181
553.758 29.6002 -0.595795
265.074 9.1407 -0.255647
520.941 28.9317 -0.525639
337.698 43.7982 0.480726
370.281 0.808018 0.696221
475.186 83.1814 0.422416
24.3057 34.1954 0.422161
289.032 55.5095 0.49695
223.289 2.95335 0.531243
539.904 86.3446 -0.244526
505.465 89.032 0.219993
253.617 13.1181 0.287891
469.396 64.6978 0.106582
410.71 2.49235 -0.308122
407.386 26.3656 0.580371
86.7858 21.3298 0.513792
265.754 0.98819 -0.305386
295.647 3.37716 -0.491891
12.8012 7.90918 0.605578
4.3608 33.7144 -0.309552
143.155 20.4168 -0.418354
59.4457 46.3528 -0.27453
57.8238 31.8831 0.327687
354.003 13.6194 -0.594444
309.752 55.253 0.541338
524.121 68.5994 0.107465
18.1039 4.12114 -0.273634
64.9094 7.60616 -0.141991
452.402 68.4697 0.140689
257.943 0.866812 0.498747
311.202 26.9772 0.155252
209.554 5.07684 0.392664
462.538 46.3678 -0.184753
375.613 17.0447 0.601324
525.743 28.719 -0.53679
462.735 66.0602 -0.330192
478.047 46.1297 -0.245646
350.077 29.4242 0.522906
90.8532 51.0577 -0.323694
436.11 84.4606 -0.0710377
522.809 12.2776 0.329795
209.392 34.6275 -0.290538
29.4918 18.9223 -0.323388
290.61 17.9307 0.560755
96.4455 46.615 0.543859
238.12 46.8645 -0.236963
358.222 2.19568 -0.300043
545.779 78.5003 0.369392
482.723 2.45537 0.640437
288.559 4.67349 0.490477
265.35 31.8346 0.151626
357.138 74.8586 -0.226019
74.5566 9.44983 -0.589254
173.942 48.9946 0.377232
529.643 60.2809 0.461899
389.424 81.6673 -0.0909837
176.149 44.6867 -0.322802
144.012 48.0317 0.506865
552.422 66.2297 -0.401579
551.781 26.374 -0.555011
448.955 3.07101 -0.626164
169.747 25.4988 -0.133546
394.767 62.0691 0.101746
397.003 59.8671 -0.271968
344.427 6.01049 -0.155539
384.786 0.898559 0.391599
521.427 68.085 -0.509676
75.5444 35.4244 -0.266663
467.633 45.7495 0.507348
241.775 16.6658 -0.586994
8.19575 2.63216 0.415767
113.499 44.0432 0.252242
59.754 23.8244 -0.438584
498.727 73.5728 0.329265
539.217 94.524 -0.161178
165.219 29.2658 0.191489
547.602 28.3229 0.514977
39.864 40.3526 0.26705
81.5679 34.5257 0.204889
462.126 22.4916 0.429071
346.035 19.4118 -0.549397
393.57 42.4398 0.139083
209.767 32.5756 -0.200799
463.152 4.181 -0.707578
555.249 25.2733 0.490424
26.7151 35.1854 0.298824
239.195 7.80698 0.224517
198.224 16.2803 0.366537
1.02987 38.196 -0.161353
200.964 15.2155 -0.528683
188.96 11.2697 -0.223168
191.135 28.0054 0.292795
119.289 32.5583 0.135256
412.149 35.2967 -0.361913
147.853 14.3934 -0.366118
534.583 84.4398 -0.245654
154.605 3.75335 0.536544
41.8088 42.2261 0.444286
501.341 61.051 0.566183
251.097 36.6656 0.345096
487.881 47.1483 -0.519863
541.865 71.9443 -0.535893
264.371 11.1535 0.17472
509.471 36.1715 -0.490585
286.578 2.73574 -0.368285
347.238 25.1592 -0.453476
483.294 39.7601 -0.648439
94.3827 13.8966 -0.450563
386.166 4.36193 0.567095
528.624 24.6862 0.228524
80.4488 7.63513 0.277527
248.817 16.7429 0.21811
355.041 11.7942 -0.302923
554.22 9.59119 0.565129
334.137 1.90687 -0.6155
157.045 40.4196 0.290865
525.373 10.0003 -0.489517
116.231 42.4446 0.193642
234.343 34.2215 -0.46085
335.684 21.4454 0.30284
423.633 19.7841 0.410008
323.454 9.98013 -0.56211
363.445 57.6368 -0.404271
524.67 81.4537 -0.421636
43.4478 12.1087 0.157852
263.37 46.0463 0.277402
317.343 39.7807 -0.382675
342.501 20.9104 -0.31986
416.367 89.5819 -0.356512
517.546 60.7082 -0.274685
491.844 89.7498 0.372794
198.907 39.9499 -0.398846
13.4943 34.1211 -0.15644
484.759 89.1345 0.13195
403.698 90.2046 0.155187
203.079 44.2103 0.138893
482.412 59.0506 0.134511
133.641 10.544 -0.196103
313.01 32.7961 0.305248
358.581 76.3229 0.102253
346.4 20.8666 0.341079
519.693 80.5845 -0.313917
358.766 4.48937 0.660814
44.5343 26.2466 -0.296722
368.417 67.2968 -0.376
340.676 52.5948 -0.370137
541.088 80.3609 -0.232969
512.639 32.7867 0.327095
409.401 43.5703 -0.209475
533.478 77.8077 0.473657
258.061 2.03488 -0.524001
316.54 46.5932 0.590612
25.5534 43.8935 -0.303995
509.443 39.9592 -0.192984
452.704 21.0842 -0.66439
376.761 5.57505 0.581844
110.933 4.64078 -0.365155
348.6 43.8212 -0.132572
10.5193 0.930924 -0.42615
549.067 12.9128 0.319316
315.026 60.4444 -0.471271
453.756 7.78415 -0.562841
[...]
POINT_DATA 13483
TENSORS Strain_matrix float
-1.19499 1.40729 2.82152 
0.2296 0.134312 0.919597 
-2.51169e-18 6.56903e-18 1 

-2.79328 0.982941 48.0222 
0.093757 0.647519 17.2016 
9.17642e-19 -3.27778e-18 1 

-0.262762 0.0456275 0.29657 
0.106875 0.0129524 1.53386 
3.2422e-17 1.18622e-17 1 

-2.70193 -0.762843 0.365502 
-0.157556 0.861436 0.975776 
2.39174e-18 4.18053e-18 1 

-2.28752 -2.03804 2.59598 
0.513391 1.34428 0.0764503 
2.85724e-18 -5.71448e-18 1 

-0.52141 -0.0166234 1.76901 
0.107345 0.187738 3.83694 
5.77526e-19 1.36538e-18 1 

-0.280693 -0.178022 -0.502101 
0.011936 0.0221939 0.13732 
-1.45456e-17 -6.13561e-18 1 

-0.810917 0.601216 0.0744267 
-0.278868 0.286753 0.0738307 
5.0157e-18 7.19096e-20 1 

0.0458274 0.922366 5.63227 
-0.201698 -0.163479 -0.381324 
1.13218e-17 -1.66957e-18 1 

-0.835607 -0.238819 -2.02574 
-0.300935 0.00657544 0.630008 
-4.61755e-18 -3.90216e-18 1 

-0.216135 -0.0820587 -0.222187 
0.0243124 -0.0383093 0.143822 
-5.72271e-18 -2.48813e-19 1 

-0.317392 -0.102874 0.041547 
-0.0439018 -0.0655067 -0.517977 
1.14663e-17 8.32696e-18 1 

-6.28367 8.34245 37.7745 
-1.27788 2.24675 6.68533 
-1.12031e-18 1.04895e-17 1 

-3.09356 -1.78288 -0.357015 
0.938226 1.11751 -0.314399 
-1.10627e-17 1.33428e-17 1 

-0.440955 -0.0262408 0.28592 
0.0486935 0.222708 -0.657075 
-6.53953e-18 7.19948e-18 1 

-0.625377 -0.530812 2.18786 
0.194645 0.316426 -0.633059 
-7.10206e-18 8.46898e-18 1 

-0.222996 0.0633876 -0.178591 
-0.0776581 -0.0440929 -0.126281 
4.03822e-18 4.03822e-18 1 

-0.36559 0.0894553 -0.690262 
0.0443529 -0.0937313 -1.7999 
1.0674e-17 5.54269e-18 1 

-0.920735 -0.302201 7.39797 
-0.129199 0.585338 -5.32027 
-1.1405e-17 0 1 

-1.94575 -0.804738 -2.4467 
0.264753 0.691098 0.392183 
9.60294e-19 -3.79545e-18 1 

-0.34417 0.0642675 -0.330234 
-0.0556371 0.0955955 -0.399032 
1.19539e-17 3.84818e-18 1 

-4.7138 0.329854 -7.67591 
0.643964 0.468463 4.23182 
-8.00365e-18 -1.63884e-17 1 

-2.12146 -2.39927 -6.00165 
-0.103595 0.236175 2.46458 
1.86874e-18 -5.42778e-18 1 

-0.931171 1.85758 -34.2322 
0.0798203 1.00292 -17.5825 
4.03838e-18 4.23403e-18 1 

-1.57932 -1.10697 -0.643907 
1.97518 1.16613 1.04161 
7.45848e-18 -1.5049e-17 1 

-0.293372 0.0225994 -0.159619 
-0.012175 0.0951487 0.0805978 
3.26758e-19 -6.86191e-18 1 

-0.612411 0.535647 10.0712 
0.089252 -0.0601684 0.175956 
3.27928e-18 8.86563e-19 1 

-0.738282 0.549611 0.376122 
0.244014 0.20552 -0.0810386 
4.72472e-18 -2.05188e-17 1 

-0.205261 0.00977502 2.61545 
0.118764 -0.108144 1.12433 
-1.22789e-17 1.69128e-18 1 

-5.40672 0.786635 -5.90315 
-0.574064 0.46619 -2.05049 
1.66361e-18 1.2662e-17 1 

-2.02476 0.187255 -2.20465 
-0.399933 0.307031 -1.44905 
1.67929e-17 2.21766e-18 1 

-0.05672 0.488166 0.603752 
-0.142104 0.0815118 -0.0394954 
-1.25178e-18 1.47938e-18 1 

-0.173201 -1.13167 1.17012 
0.463768 0.364654 -0.519742 
1.82743e-17 -5.35546e-18 1 

-0.941757 -0.249943 2.17 
-0.0173692 0.381631 15.1227 
7.28437e-18 2.44404e-18 1 

-0.126019 -0.00162373 -0.202708 
-0.0116166 -0.0867726 -0.293852 
4.30581e-18 -1.34682e-17 1 

-0.599337 -0.280912 -0.403978 
0.232821 0.445732 0.284076 
2.58536e-18 -6.59455e-18 1 

-1.04466 -0.0520796 15.7159 
0.104257 0.308415 -4.26932 
-4.25466e-18 7.0981e-18 1 

-0.136859 0.2622 -0.375846 
0.184612 0.0150243 -0.920361 
-1.41307e-17 -1.20366e-17 1 

-0.34611 7.74171 -6.52605 
-0.288922 0.59991 0.195297 
-6.76175e-20 -8.81986e-18 1 

-0.705878 -0.555278 14.6236 
0.498845 0.529158 -7.58382 
-1.01374e-18 7.84101e-18 1 

-0.214522 -0.0715179 -0.328774 
-0.0327635 -0.0408268 0.00669574 
6.5176e-20 2.37004e-18 1 

-0.380682 -2.19029 -0.569573 
1.70365 2.46727 2.36004 
-3.57888e-18 2.10522e-19 1 

-3.4705 -2.10164 4.14865 
-1.35143 -0.738483 3.08711 
6.47535e-19 3.60367e-18 1 

-0.234405 0.163624 -0.403743 
-0.113281 -0.0361983 0.296613 
-6.64938e-18 -2.90422e-18 1 

-0.190451 0.175339 0.0758963 
-0.15285 -0.00779512 -0.00218444 
-3.24451e-18 -1.08735e-17 1 

-0.10541 -0.0213041 0.240189 
0.0529041 -0.0184464 0.217572 
7.4413e-18 1.25981e-18 1 

-1.78085 1.75883 8.1044 
-0.996383 1.3468 6.03581 
-8.66613e-18 -7.47666e-18 1 

-0.0616688 -0.0254812 -0.0121398 
0.0425179 -0.132635 -0.000807573 
6.52729e-18 6.23502e-18 1 

-1.72888 0.619646 -7.79434 
-0.117047 0.401867 -1.50749 
1.64543e-17 1.43203e-18 1 

-0.578079 -1.01361 7.56272 
-0.386315 -0.115464 1.91629 
-1.07112e-17 9.61261e-18 1 

-0.259383 0.0106145 2.28164 
-0.0832129 0.0391945 -2.46115 
1.1665e-17 -8.31849e-18 1 

0.251824 -0.74967 0.762778 
0.709848 0.177216 -0.429455 
-4.05758e-18 8.11517e-18 1 

-0.330378 -0.00325676 -0.0487357 
-0.0672279 0.16222 -0.130505 
-1.0197e-17 2.5956e-18 1 

-2.98484 0.552366 7.69057 
-0.210929 0.811097 0.844615 
-2.83881e-17 5.34824e-18 1 

-0.464883 -0.162446 0.22559 
0.419084 0.218444 -0.642134 
2.05462e-17 -4.85343e-18 1 

-1.23667 -0.0540611 37.1376 
-0.713864 0.302239 0.0849919 
-2.0153e-18 -1.04861e-18 1 

-4.18636 6.65538 17.5093 
-0.0428713 0.557515 0.384385 
6.58927e-18 1.39409e-17 1 

-0.168092 -1.21552 -1.21374 
-0.0128786 -0.0228758 -0.709119 
-4.98816e-18 7.9983e-17 1 

-0.12139 0.090314 0.246132 
-0.0873036 -0.0835739 0.269719 
-5.14662e-19 -8.28303e-18 1 

-0.74302 -0.507463 1.03137 
-0.244559 0.122529 -0.596632 
1.26472e-17 5.06295e-18 1 

-2.0374 -0.903725 -0.0387823 
1.11165 1.40763 0.50583 
-8.44671e-19 -1.85828e-18 1 

0.0652265 -1.05606 0.88839 
0.564102 0.509282 0.130993 
1.07347e-17 1.47179e-17 1 

-0.185736 -0.278129 -0.285553 
-0.0403951 -0.0850392 -0.0607694 
-1.27738e-17 -1.07768e-17 1 

-0.640342 0.108917 -0.577699 
0.241358 0.115102 0.0682777 
-4.77375e-18 -2.16989e-18 1 

-0.385336 0.0199948 0.109164 
-0.0477004 0.0437624 0.497056 
1.57751e-17 8.96312e-18 1 

-0.278268 0.0151094 -0.151612 
0.00529209 -0.00195709 0.367677 
-3.57353e-18 3.21733e-18 1 

-0.751332 -0.0864811 0.866429 
-0.0853599 0.0837132 0.13148 
8.61966e-18 -1.06557e-17 1 

0.0586113 -0.176135 -0.0692647 
0.294165 -0.167136 1.81891 
3.53801e-18 2.72827e-18 1 

-0.402215 -0.145885 2.41453 
0.029982 -0.0870376 0.00784475 
6.19172e-19 -1.18675e-17 1 

-0.582557 -0.0294834 0.666296 
-0.150901 -0.104912 -0.282227 
-3.80327e-18 4.40378e-18 1 

-1.10375 -0.420243 2.61913 
0.7484 0.465847 -0.231421 
-4.41185e-18 -7.40211e-18 1 

-0.181206 0.0395819 0.501027 
-0.00986572 -0.0115155 0.578423 
-1.83628e-18 -1.09048e-17 1 

-1.49328 4.46409 0.129873 
0.0512772 0.453859 1.2532 
8.15331e-19 -9.1575e-18 1 

-0.207967 -0.570215 1.15342 
0.484913 0.333719 -0.600922 
4.89947e-18 1.11908e-17 1 

-0.402437 0.0947396 8.12273 
0.0522757 0.164969 -12.7171 
-1.09761e-18 2.04697e-18 1 

-0.207445 0.0167296 -0.0786206 
-0.0583856 -0.00352464 -0.106175 
-9.38023e-19 5.62814e-18 1 

-0.39679 -0.889675 5.54399 
0.693511 0.3969 0.863057 
6.95187e-18 4.22759e-18 1 

-0.321244 -0.599803 13.2179 
0.339382 0.25409 -4.54084 
7.6023e-18 5.39185e-18 1 

-0.658475 -0.0173036 0.959083 
-0.314355 0.198361 0.512188 
-2.27337e-18 9.09346e-19 1 

-5.95626 2.37097 6.9862 
-2.54646 1.58172 2.67102 
1.39617e-18 -5.75919e-18 1 

-2.01136 -0.326366 5.26595 
-1.68258 0.377389 0.918319 
1.50693e-18 -2.00924e-17 1 

0.105044 -0.620755 1.52832 
0.42382 0.161048 -0.612408 
-9.37455e-18 -1.62056e-17 1 

-0.0610966 0.021566 0.0161203 
0.00221001 -0.0536247 0.222006 
-9.17255e-19 -4.678e-18 1 

-1.66515 -0.157613 -0.327481 
-0.914608 0.454989 -0.382151 
7.47628e-19 -4.95051e-19 1 

0.0998318 -0.756767 -0.113533 
0.633738 0.250353 -0.406837 
-7.3581e-18 8.17513e-18 1 

-0.152112 0.538161 -0.148373 
-0.403076 0.208032 0.190164 
1.28531e-17 -2.3891e-17 1 

-2.58121 1.12363 175.597 
0.0390777 0.150257 -20.6099 
1.40697e-18 -2.32354e-16 1 

-0.344377 -0.0708653 -0.153413 
0.317499 -0.141926 -0.418136 
1.73207e-17 -1.89709e-17 1 

-0.385992 0.0120051 -0.355209 
0.0646516 0.0160622 0.174183 
8.30545e-18 3.36707e-18 1 

-0.25648 -0.0164976 1.06509 
0.0446612 -0.0617971 3.6273 
-4.20526e-18 2.08797e-18 1 

-0.263522 -0.0409567 -0.0295289 
-0.0371759 -0.0174668 0.101768 
-1.41545e-17 -1.75891e-17 1 

-1.31131 0.278744 -1.00164 
0.202436 0.429191 -0.550159 
-1.13229e-18 3.05719e-18 1 

-0.834212 -0.361125 -22.4702 
0.121235 0.223323 -5.14084 
-1.4159e-18 6.80187e-19 1 

-0.154952 -0.0252982 0.0652478 
0.0249378 -0.0285912 0.33031 
-3.13372e-17 6.19561e-18 1 

-0.0919811 -0.139076 0.554808 
0.162591 0.0485306 0.0301923 
2.35978e-18 -1.00291e-17 1 

-0.445182 1.35523 -1.53487 
0.0281472 0.430926 -0.84486 
2.87816e-18 3.7579e-17 1 

-0.291174 -0.0807731 1.56329 
-0.0315956 -0.0227573 -1.83275 
-8.87211e-18 3.23376e-18 1 

-0.223678 -0.580166 -0.643037 
0.697629 0.28641 -0.0481721 
-1.6054e-18 1.22766e-17 1 

-1.37805 1.50519 3.1532 
0.355205 0.498688 0.382044 
-3.49882e-18 1.03374e-18 1 

-0.281845 -0.341845 0.912834 
0.448093 0.253857 0.48607 
1.19802e-17 1.6837e-17 1 

-0.430631 -0.211562 -0.349065 
-0.124447 0.269586 -0.60791 
4.69052e-18 -1.17557e-17 1 

-0.172054 0.30126 1.84982 
-0.223423 0.0951168 4.7777 
-3.15764e-18 1.67888e-17 1 

-0.941348 0.378701 -0.943615 
0.0597514 0.338715 0.191893 
8.17952e-18 -1.25419e-17 1 

-0.119962 0.58397 -0.0912219 
-0.479012 0.0374902 0.00269129 
1.02167e-17 2.7388e-17 1 

-1.08522 0.371314 1.49665 
-0.363297 0.327429 3.08152 
6.31293e-18 1.95741e-17 1 

-1.2053 0.558672 2.36452 
-0.0531751 0.444646 0.665681 
-5.29685e-18 3.1925e-18 1 

-0.958977 -0.862283 -0.0377835 
0.279517 0.358922 -0.430202 
-2.66221e-17 -2.83026e-19 1 

-0.123913 0.0747599 -0.385131 
-0.0721869 0.00613892 -0.0334176 
-7.66239e-18 -2.88158e-18 1 

-0.738855 -0.235223 -0.443767 
-0.0618202 0.236158 0.361286 
3.90319e-18 2.12719e-17 1 

-1.90467 0.439019 -1.84494 
-1.72003 0.604613 -3.43022 
-6.39033e-18 -1.43351e-17 1 

-0.628524 -1.69614 -94.3588 
-0.00695003 0.456091 6.97011 
1.62481e-19 -5.60173e-18 1 

-0.318599 0.0267913 -0.539494 
0.0559819 0.0804434 -1.58769 
-3.72494e-18 -6.50601e-18 1 

-0.294445 0.25525 -0.0733489 
-0.289509 -3.09639e-05 0.00763727 
9.50114e-18 9.44654e-18 1 

-0.688113 -1.31423 -2.17881 
-0.540657 -0.199468 -2.64372 
-5.85388e-18 8.78083e-18 1 

-6.08855 -0.508114 -11.2441 
0.101101 0.894212 -0.382299 
1.51601e-17 -3.53933e-18 1 

-0.201822 -0.0364031 -0.63783 
0.0100724 0.116817 1.04254 
2.36553e-18 -2.09519e-18 1 

-0.179462 0.0164577 -0.346955 
-0.0147916 -0.0350989 -0.090155 
-1.62396e-19 1.79718e-17 1 

-0.88791 -0.177247 0.398977 
0.403086 0.484467 -0.137763 
-3.1491e-19 1.10218e-17 1 

-0.240635 0.1288 0.124029 
-0.0529289 -0.176083 -0.0639963 
2.9622e-18 -2.52485e-17 1 

-0.105751 -0.222973 -0.0164543 
0.1717 0.0310117 0.141073 
1.64365e-18 -2.50873e-18 1 

-0.837645 0.190903 -0.969101 
-0.115462 0.084554 0.465433 
1.98685e-17 1.80401e-17 1 

-0.253801 0.340532 0.00553403 
-0.0504112 -0.0211939 0.310182 
-1.84199e-17 1.30695e-17 1 

0.0187703 0.942182 -0.311404 
-0.671757 0.583871 -0.57344 
4.65351e-18 3.10234e-18 1 

-5.37138 4.59488 5.24899 
0.517027 0.786034 -1.41544 
-9.66129e-18 -4.95889e-18 1 

-0.33125 -0.0800542 -12.5748 
0.0106252 0.0261916 -11.1861 
2.18484e-18 2.75827e-18 1 

-0.614199 -0.399232 -1.55018 
0.229122 0.139035 -0.979252 
-7.38727e-18 -1.68564e-17 1 

-0.163725 0.0916602 0.25805 
-0.157064 -0.00875609 -0.041675 
1.34652e-18 -4.50693e-18 1 

-0.357718 0.84775 -0.518979 
0.0240914 0.159538 -0.334598 
5.51874e-18 -2.99321e-18 1 

-0.119126 0.19667 0.182505 
-0.178085 0.0218888 0.158824 
4.87024e-18 -1.01554e-18 1 

-0.550814 0.195834 -0.190225 
0.253006 0.106801 -0.228697 
-3.72384e-18 -7.58955e-18 1 

-0.127166 -0.316255 -1.05146 
0.407906 0.111529 0.252128 
-3.00863e-18 -3.98644e-18 1 

0.0325759 0.0235764 -0.179688 
-0.0605707 -0.0620524 -0.0772256 
3.92935e-18 -5.61164e-18 1 

0.120667 -0.788596 -0.305422 
0.421704 0.183314 0.92659 
1.43328e-17 8.50343e-18 1 

-0.491596 -0.0868067 -0.330485 
0.0665203 0.129447 -0.345248 
3.69974e-18 -1.64433e-18 1 

-0.373606 -0.474489 1.02079 
0.323943 0.184029 0.485341 
1.91004e-18 1.62643e-17 1 

-0.433549 0.687184 -1.79204 
-0.208355 0.338937 -1.20844 
6.42688e-18 2.06578e-18 1 

-6.49621 6.80163 -3.12076 
-1.04625 1.41905 -5.33424 
-1.65256e-17 -7.25103e-18 1 

-0.214445 0.23063 -2.32188 
-0.0129968 0.172645 1.18038 
8.2537e-18 8.99063e-18 1 

-0.84813 0.0214618 -0.296115 
0.435555 0.342926 0.726749 
-3.5606e-18 -1.46112e-17 1 

-0.310386 -0.340168 0.342469 
0.359775 0.328741 -0.301846 
7.87954e-18 -9.24331e-18 1 

-0.354062 0.0054831 -1.99152 
-0.00272425 0.0601487 1.03081 
-3.39341e-18 6.89101e-18 1 

-0.402807 0.266454 -0.536661 
-0.233394 0.230021 -0.466801 
-4.10887e-18 -1.03885e-17 1 

-0.651376 -0.127961 -0.209427 
0.306479 0.284012 0.326628 
-5.24397e-18 1.88278e-17 1 

-0.477035 -0.561283 1.57431 
0.156586 0.372615 -0.820447 
1.12782e-17 -1.59801e-17 1 

-0.100297 0.0459623 0.220778 
-0.0586116 -0.044304 0.225322 
1.24524e-17 1.19287e-17 1 

0.320742 -1.09089 -1.43143 
0.600359 0.440112 0.669371 
-1.32184e-17 1.24781e-17 1 

-1.16937 -0.415161 0.706296 
-0.348613 0.452703 -1.32451 
8.20053e-18 -2.84404e-17 1 

-0.149928 -0.00832103 -0.94777 
0.0842337 -0.0673885 -1.24936 
8.07769e-18 -1.27224e-17 1 

-0.948657 -0.530609 8.30184 
0.3107 0.486677 -15.6574 
-9.70025e-18 1.26836e-17 1 

-0.344058 0.139401 -0.869272 
-0.142829 0.0661508 0.256578 
-8.28376e-18 9.84493e-18 1 

-0.497085 0.492658 0.012991 
0.0853563 0.264945 0.434671 
-7.81615e-18 5.45656e-18 1 

-1.66165 -2.32476 6.00006 
-0.405793 0.0680473 -0.228059 
-1.12088e-17 -4.19084e-18 1 

-0.232528 -0.131833 1.30629 
0.194919 0.0527927 -0.364437 
-1.07543e-17 7.68168e-18 1 

-0.319427 -0.0753493 -4.79749 
0.030905 0.054563 17.5682 
2.21959e-18 -8.6925e-19 1 

-0.18072 -0.0296032 -0.0630502 
0.0428091 -0.141753 -0.178186 
2.46706e-18 1.08115e-17 1 

-0.091722 -0.785438 -9.62208 
0.955797 0.64866 -18.3898 
4.04793e-18 6.9216e-18 1 

-0.64604 0.427833 -1.39784 
-0.0651541 0.424693 -0.190036 
-3.45164e-18 -5.42955e-18 1 

-0.245294 -0.172862 4.00758 
0.129096 0.130059 -4.80728 
2.28487e-18 -1.10467e-18 1 

-2.21031 3.38182 -28.7167 
-0.40061 1.40076 -12.3053 
3.06992e-18 5.29525e-18 1 

-1.91437 0.756853 22.4369 
0.337111 0.263312 0.653477 
-2.57808e-17 -2.00517e-18 1 

0.0253246 -0.083625 0.700899 
0.444708 0.0586638 0.560649 
-4.46428e-18 -1.49826e-17 1 

-0.506344 -0.461287 -0.887675 
0.000936197 -0.0601924 -1.01576 
2.44029e-17 7.30481e-18 1 

-0.896942 -3.49931 -0.389373 
-0.381185 -0.0400957 -2.18134 
5.7314e-18 1.46106e-17 1 

-1.80941 1.9893 -5.16771 
-0.139567 1.02741 -4.87516 
1.29613e-19 -5.09784e-18 1 

-1.92921 -1.53309 -2.02976 
0.871678 0.87952 1.83467 
-1.006e-17 -1.02886e-18 1 

-4.46376 -2.12704 0.386725 
0.542523 1.12827 0.275501 
-2.09361e-17 1.20031e-18 1 

-0.402005 -0.119526 0.60569 
-0.0884927 0.209521 -0.43853 
1.60858e-18 -4.23098e-18 1 

-0.35764 0.250361 -0.0870338 
-0.045253 0.13491 0.205129 
9.54423e-18 6.80674e-18 1 

-0.362235 0.0216937 0.783622 
-0.0297 0.106 -0.467669 
1.72417e-18 -1.90253e-17 1 

-0.875802 -0.551513 -0.79725 
0.751915 0.458196 1.73911 
-1.14964e-17 1.99108e-18 1 

-0.234112 -0.0205226 -0.208068 
-0.0901038 0.0372323 -0.0581963 
-3.83114e-18 1.91557e-18 1 

-0.121031 -0.219315 0.318054 
0.199257 0.00923791 -0.207264 
-8.1553e-18 3.08412e-18 1 

0.0205134 0.710432 0.670619 
-0.157673 0.0503643 0.381419 
-8.7586e-18 1.794e-17 1 

-0.537808 0.0998356 0.705414 
-0.443217 0.132044 -0.92146 
7.45133e-18 8.9193e-18 1 

-1.44819 -1.84434 -0.261953 
0.213256 0.371406 1.31558 
-7.43429e-18 1.61076e-17 1 

0.223002 -1.02268 1.15239 
0.948931 0.63342 1.09677 
-1.2687e-17 1.04138e-17 1 

0.319447 -0.881427 -0.265896 
0.849546 0.503496 -0.459213 
2.22454e-18 7.10291e-18 1 

-0.178835 -0.128876 -0.0275676 
0.0563047 -0.119399 -0.195444 
6.62802e-18 -1.51658e-18 1 

-0.0428296 -1.19464 -29.2108 
0.724698 1.00853 -2.57312 
5.10578e-18 -7.29397e-18 1 

-3.58761 0.166116 18.6929 
-0.193238 0.605525 4.8888 
-7.90426e-18 1.32954e-17 1 

-0.289579 0.188333 0.071386 
0.00816614 -0.0223882 -0.392969 
4.48014e-18 -4.11291e-18 1 

-0.799044 -0.0542787 0.158533 
0.0507766 0.163869 0.252903 
-8.08946e-18 1.14701e-17 1 

-1.8161 -0.376203 -0.625755 
-0.490576 0.642848 8.97248 
1.97895e-18 2.97794e-18 1 

-0.223332 0.039691 2.04217 
0.000744896 0.00475443 -0.471661 
-8.83705e-18 -1.16961e-18 1 

-0.814878 -0.0421468 -0.935276 
0.0493151 0.259115 -0.590636 
-5.39391e-18 3.28629e-17 1 

-0.386643 -0.0890143 -0.880883 
-0.087301 -0.134033 0.243482 
-6.40431e-18 -1.06225e-17 1 

-0.93082 0.223714 6.5973 
-0.731104 0.268319 1.14026 
2.77451e-18 -4.57052e-18 1 

-0.501389 -0.919937 0.160755 
0.553625 0.581993 0.0666536 
7.70953e-18 -3.95203e-17 1 

-0.131733 0.0655375 -0.785541 
-0.0750561 -0.0397422 0.330282 
-3.45476e-18 -2.16841e-18 1 

-1.92578 -0.20863 -0.58088 
-0.12363 0.72035 -0.352424 
2.27895e-17 2.5518e-17 1 

-2.62356 -3.85794 -4.38295 
0.0671686 0.105181 -2.06676 
-5.76166e-18 -1.92055e-18 1 

-1.43041 0.316999 2.32851 
-0.458872 0.412424 0.108907 
-3.02031e-18 -5.73553e-18 1 

-1.14797 -0.689768 -0.866999 
0.058316 0.418078 0.0993132 
3.94104e-17 -2.13686e-17 1 

-2.37434 0.733936 2.42084 
-0.131324 0.545877 0.160099 
7.69475e-18 -1.09953e-17 1 

-0.799402 -0.275116 0.399797 
-0.382801 0.0309837 0.25846 
9.1802e-18 2.47865e-18 1 

-2.25845 -0.958475 2.07759 
-0.366916 0.731007 -0.789543 
3.14385e-18 2.36293e-17 1 

-0.577475 -0.0494367 0.716385 
0.0960191 -0.0718049 0.0432956 
-2.2051e-18 -2.45869e-17 1 

-1.02582 -0.139733 -3.3594 
0.0971398 0.70682 4.38897 
-4.36547e-18 1.72422e-17 1 

-0.1884 -0.413363 0.0746899 
0.846832 0.121425 0.717067 
-9.07287e-18 -2.03887e-17 1 

-0.0688728 -0.165371 -0.435272 
0.306228 0.041999 -0.365896 
1.09653e-17 -3.07135e-18 1 

-0.204669 -0.314746 0.837484 
0.314938 0.115453 -0.550977 
1.23227e-18 5.25021e-18 1 

-0.512067 -0.334756 1.54346 
0.0030439 0.199176 -1.5072 
-2.15397e-18 -1.22728e-17 1 

-1.0585 0.0479422 2.87891 
-1.28385 1.85375 -0.67653 
-2.25558e-18 1.75512e-17 1 

-8.06284 11.4797 17.9403 
-1.5451 2.28275 0.38087 
7.35207e-18 1.13587e-17 1 

-0.347498 0.0104345 -0.313411 
-0.119641 0.0133089 0.164486 
-4.4664e-18 1.07481e-17 1 

-0.452722 -1.18143 0.485656 
-0.16026 0.150095 -0.681964 
9.53623e-18 -7.11811e-18 1 

-0.175726 0.0397918 -0.329318 
0.020141 0.0148059 -0.244338 
-9.40487e-18 -5.37433e-18 1 

-0.0945922 -0.00263834 0.408095 
-0.0436301 -0.0213892 -0.191584 
-1.68044e-18 5.02633e-18 1 

-0.179012 -0.130184 0.537512 
0.253234 -0.0252141 -0.991693 
-1.45349e-17 3.47148e-18 1 

0.0934136 -0.553555 -0.916933 
0.429631 0.0265076 -0.589144 
-4.19549e-18 9.13634e-18 1 

-0.854915 1.00601 2.10335 
0.4782 0.247483 -0.546109 
-2.63042e-18 -1.7334e-17 1 

-1.53444 0.413209 -0.0736945 
0.16144 0.647635 0.668602 
1.23046e-17 7.26346e-18 1 

-0.125539 0.0636084 -0.0957987 
0.100102 -0.106259 -0.482053 
3.9225e-18 2.10663e-17 1 

-0.223893 -0.0799777 -0.848989 
-0.0731252 0.0105911 4.16276 
-3.75824e-18 -1.60408e-18 1 

-3.87185 -1.86894 -4.24045 
-0.275869 0.430381 -1.49314 
1.41742e-17 3.96187e-18 1 

-3.72607 0.414865 -15.3234 
-0.834985 0.351755 -1.38776 
-7.37948e-18 1.19478e-17 1 

-0.292318 -0.217084 -0.497549 
0.0025313 -0.0465862 -0.413816 
-5.38181e-18 -6.2769e-17 1 

-0.494687 0.302402 -1.21711 
0.153049 0.00888074 0.868946 
-5.03034e-18 4.63893e-19 1 

-0.248343 0.224471 -2.66249 
-0.163991 0.105969 0.54559 
2.46482e-18 -2.1374e-17 1 

-0.198791 -0.285154 -0.510908 
0.0574103 0.104628 0.0301612 
-2.9449e-18 -6.55034e-18 1 

-1.1042 -0.569229 1.26168 
0.524472 0.495406 0.720128 
1.22949e-17 3.06293e-18 1 

-0.460554 -0.476236 0.61079 
0.409938 0.229554 -0.163185 
-5.70571e-18 1.17117e-17 1 

-0.374129 0.0401807 0.690849 
0.23056 0.0606723 0.335806 
7.28146e-18 1.7189e-17 1 

-0.0650713 -0.441385 -3.61153 
0.477027 0.152143 -0.513282 
-2.32757e-18 -6.37018e-18 1 

-0.155766 3.79925 3.16109 
-0.406325 1.27688 0.968186 
-8.60473e-18 2.94733e-18 1 

-0.333048 2.78684 3.22195 
-0.0027536 0.292655 -0.577324 
-2.91199e-18 6.26544e-17 1 

-0.375994 -0.12326 0.34145 
0.0468833 -0.0229764 -0.129574 
2.39037e-17 -2.01688e-17 1 

-1.63423 -0.237768 -0.299052 
-0.829137 0.337713 -0.413879 
-2.24379e-17 -6.73136e-18 1 

-1.65182 0.33826 -40.9671 