# vtk DataFile Version 3.0
Output file generated by Yade's KinematicLocalisationAnalyser
ASCII
DATASET UNSTRUCTURED_GRID

POINTS 13483 float
516.062 33.1944 0.552727
601.811 79.374 0.545269
114.156 6.14497 0.491564
636.45 4.08538 0.549614
449.528 8.36966 0.614283
296.417 37.1295 -0.488974
147.275 7.43983 0.446298
486.898 12.4719 -0.209564
450.126 41.123 -0.165397
582.631 15.1369 0.719372
198.832 9.08464 -0.0959075
242.556 6.32133 -0.248142
548.817 73.1872 -0.157752
535.102 19.9213 -0.0833022
129.524 19.1672 0.538204
207.688 37.2838 0.417609
205.879 13.2972 -0.288768
272.723 10.6331 0.485009
321.889 36.0048 -0.455875
464.398 14.8342 -0.424314
383.39 37.7276 -0.097116
506.313 55.6003 -0.291237
627.154 61.1506 -0.440776
562.976 71.4085 -0.478341
425.008 20.317 -0.322689
227.731 46.4853 -0.125349
453.647 47.9814 -0.459112
501.138 24.2353 0.380014
41.7083 16.6041 0.364842
587.903 73.1205 0.361115
436.462 5.98475 0.439262
15.0647 25.1829 0.335236
615.171 83.788 -0.286313
446.886 2.17232 0.672139
74.1366 45.6627 0.113748
477.879 63.6725 -0.338203
464.046 33.1767 0.485063
323.933 23.5025 -0.209162
476.347 56.9088 0.330951
329.596 35.766 -0.424698
227.334 15.0642 -0.307307
403.383 38.8281 0.109802
562.867 25.1338 -0.109759
181.626 6.16586 0.406188
51.4102 7.3965 0.0696766
64.2135 8.9655 0.2936
557.559 8.09078 0.629344
21.4555 12.1754 0.267377
512.356 54.1071 -0.451203
558.9 50.145 -0.341903
162.827 33.5288 0.325989
605.001 66.0648 -0.122142
31.8285 29.9371 0.125227
471.941 2.52563 0.499697
135.711 6.93448 -0.56251
504.378 40.2449 0.652691
466.821 54.325 0.119278
164.798 0.937291 -0.286569
30.332 2.38282 0.341792
328.229 18.5819 0.332495
518.151 58.7868 -0.194761
426.091 46.9978 0.193235
373.643 1.01403 0.208108
567.569 9.52941 -0.644978
25.0324 46.2528 0.235622
242.059 31.5042 -0.322387
582.746 8.78453 0.502242
563.793 95.2133 -0.34351
390.932 9.72051 -0.63031
488.501 4.54411 -0.526992
592.302 44.4112 -0.525694
124.603 7.91063 -0.323373
458.284 50.1592 -0.127219
438.429 28.0863 -0.14403
278.706 17.5568 -0.348711
19.0273 14.3898 0.259999
624.744 77.7438 -0.452638
314.693 42.2838 -0.326512
556.342 47.376 0.339473
565.337 25.2363 -0.283332
623.545 28.5826 0.437612
429.203 48.4732 -0.201062
88.0216 39.4009 -0.291437
552.707 62.9892 0.22432
540.664 79.9442 0.108675
632.738 68.3892 0.132955
627.915 0.732908 -0.709854
275.149 29.9462 0.435593
532.213 6.25132 -0.154542
22.7671 5.93579 0.644919
126.793 42.0392 -0.209676
458.799 24.196 -0.250885
616.645 55.6488 0.539885
186.084 28.5938 0.260709
41.6886 35.5948 -0.302034
445.735 1.15159 0.13354
223.532 8.83159 -0.446369
588.832 55.9835 -0.265426
603.062 49.9115 0.254016
339.382 23.841 -0.324514
154.215 28.278 -0.442613
505.624 72.7091 -0.428601
356.943 17.1536 -0.460706
386.653 30.3847 0.142558
354.631 6.07602 0.428671
473.401 23.5471 0.113739
634.772 21.9254 -0.308449
76.0152 40.4113 0.394029
316.555 5.62779 -0.229003
483.162 11.6915 -0.451467
339.638 47.6023 0.495619
23.405 26.4473 -0.512903
28.4225 6.09687 0.307619
483.16 48.1756 0.477377
451.615 37.8365 -0.144285
24.2102 40.2494 -0.46474
88.9067 31.7858 0.208618
308.143 17.6948 -0.283959
514.941 18.6325 -0.14067
438.014 54.2943 0.356075
597.26 9.04075 -0.510317
590.809 7.70267 0.256675
365.285 41.8362 0.147951
533.424 47.8955 0.131701
225.875 18.714 0.652757
312.873 3.95777 0.517423
99.1948 32.3883 0.401514
111.27 24.221 -0.260147
501.802 73.7869 0.077652
290.666 18.9667 0.550038
582.924 72.7957 0.124626
569.134 93.9515 0.105731
440.881 35.4038 -0.46313
614.26 37.3103 0.246487
402.959 25.5056 -0.233109
262.795 26.2839 0.316198
549.106 70.526 0.278176
265.123 30.0513 0.433732
494.271 17.3343 -0.193493
315.676 38.6553 0.188887
455.852 15.922 0.560499
347.059 34.8231 -0.118236
403.194 17.0081 -0.172758
301.934 44.4778 -0.43563
182.319 29.6842 -0.142529
606.459 80.2327 0.141062
632.81 22.5059 -0.318644
5.87323 13.2252 0.454811
406.96 23.028 -0.481823
35.5143 24.0577 0.0828663
356.102 34.0665 0.314629
371.104 24.9402 -0.270194
71.2292 12.1576 -0.53463
49.0517 34.2497 -0.479226
215.644 13.8904 0.441475
523.174 55.1631 -0.533875
498.658 25.8594 -0.457582
70.9557 21.184 -0.515523
564.13 75.72 0.410785
621.07 2.20273 -0.633906
556.722 89.296 -0.487356
564.245 2.55577 -0.636303
474.686 45.0326 0.399754
507.349 54.2884 -0.533199
458.116 31.0174 -0.378187
636.617 8.67957 -0.243882
214.017 25.6746 0.116206
122.322 38.9019 -0.205378
235.636 6.83048 0.403168
90.1607 4.66941 -0.289782
60.5277 10.1707 -0.263399
262.854 38.0887 0.327635
16.0261 26.668 -0.33591
484.114 30.5225 -0.523732
515.792 46.9485 0.1895
427.053 30.5636 -0.476743
631.308 90.5111 -0.364274
384.36 8.94039 -0.124352
408.998 40.9822 -0.480048
477.388 8.36043 0.188552
21.3197 24.2955 -0.426677
497.573 5.37377 0.481169
478.229 14.32 0.475735
197.252 11.5218 0.529605
400.615 16.925 -0.351444
297.923 6.60264 0.345142
366.846 18.9965 -0.347115
580.046 49.8459 -0.106399
184.495 25.757 0.457258
621.222 24.7048 0.405927
581.641 44.4939 -0.385905
362.115 10.4486 0.204485
581.218 2.53375 0.485658
515.21 32.3801 -0.564524
603.144 17.6444 -0.404081
401.261 49.9356 0.267299
451.095 16.6495 0.551017
430.343 59.5168 0.229688
419.553 9.50034 0.143861
560.504 89.7944 0.27555
559.663 85.3362 0.287401
183.306 39.8074 0.375544
622.105 31.8331 0.176522
516.286 68.4807 0.279864
10.8581 18.2092 0.285991
384.241 26.1477 0.431593
179.523 23.1888 -0.423998
89.671 40.2378 0.217198
614.3 53.1773 0.429005
552.073 92.2732 0.223365
304.664 27.5311 0.341311
470.863 24.6505 0.453492
79.136 45.6002 0.180625
236.193 26.9715 -0.479434
487.748 35.901 0.367343
449.64 35.5852 0.476966
251.806 0.879569 -0.353568
515.63 74.2181 0.361601
495.015 76.1901 -0.460945
450.416 53.5696 0.392067
456.219 2.52848 -0.660518
569.921 22.476 -0.514973
171.423 12.6114 -0.202607
464.815 65.3225 -0.450204
487.749 55.9944 0.115496
69.5995 0.973715 -0.280202
240.889 4.75715 0.188717
630.997 27.6246 0.184815
624.092 29.943 -0.684287
635.676 27.2965 -0.591928
290.507 8.63869 -0.240899
599.975 29.4898 -0.498681
383.909 43.1499 -0.309055
422.489 0.815046 0.488583
547.737 80.1192 0.387059
24.6796 33.5167 -0.318141
316.303 44.7363 0.673356
241.743 2.90598 0.38405
618.651 81.296 -0.247712
581.81 86.6662 0.218116
274.895 12.1309 0.283085
545.119 64.8465 0.0947787
484.472 2.52446 -0.299912
475.937 18.5902 0.566701
93.1385 18.8571 0.486921
290.331 1.09966 -0.229949
326.475 2.2359 -0.394186
13.2142 7.89529 0.574461
4.28282 33.2858 -0.328199
154.757 20.1674 -0.423017
65.1296 43.3674 -0.265444
63.5499 30.1452 0.338
399.981 13.4468 -0.624717
350.157 38.5021 0.552233
601.513 66.5906 0.214013
18.5153 4.03467 -0.284225
67.316 7.00916 -0.136626
526.281 65.2143 0.150509
281.818 1.12883 0.418041
346.5 17.94 -0.126512
225.52 4.68239 0.366786
540.031 45.9712 -0.181582
426.326 10.0093 0.639305
605.132 28.0806 -0.495075
536.74 63.6417 -0.335961
555.72 45.5115 -0.199692
398.211 28.9563 0.554872
98.2863 46.503 -0.319575
505.904 77.1062 -0.0716631
601.525 12.4451 0.299471
226.969 32.4486 -0.269163
30.0266 18.6135 -0.261986
321.014 14.5601 0.51536
103.466 42.15 0.513241
256.102 43.8458 -0.235196
403.22 2.11293 -0.279513
622.884 72.3744 0.445015
560.106 2.351 0.638473
317.112 4.10372 0.551489
286.813 27.676 0.151529
430.295 56.1211 0.192452
78.3049 8.36364 -0.484786
188.554 46.6669 0.407201
609.497 57.9367 0.393926
459.659 64.6375 -0.095804
190.855 42.6975 -0.281508
154.707 44.7138 0.393961
634.368 63.6542 -0.373981
633.639 24.1312 -0.549999
524.442 3.0801 -0.646625
183.165 24.6297 -0.119757
470.651 50.7954 -0.104173
472.947 48.0946 0.277888
389.028 6.29568 -0.132326
440.962 0.871098 0.378137
599.991 65.8776 -0.523943
81.5897 31.7615 -0.243372
545.07 45.5975 0.480791
262.771 16.0322 -0.448548
8.39441 2.63223 0.394262
121.283 40.6865 0.259863
62.9428 22.422 -0.565257
575.371 71.1302 0.328875
619.873 89.3799 -0.160997
178.522 28.4143 0.201982
629.463 26.2852 0.483185
43.304 37.6766 0.240242
87.6012 30.2472 0.185245
538.48 22.2728 0.566283
392.169 19.554 -0.516503
460.942 32.901 0.124205
227.225 30.4968 0.194229
539.334 4.19559 -0.639936
637.165 22.9622 0.480307
27.4851 34.3706 0.306037
259.393 7.98183 0.214604
213.561 15.7461 0.328248
1.04695 37.8909 -0.159922
216.591 14.8718 -0.402507
203.559 11.2737 0.105287
205.602 27.4857 -0.265467
127.998 30.6815 0.126266
479.644 27.9731 -0.355034
159.945 14.642 -0.362286
613.046 80.5945 -0.250742
166.757 3.79055 0.524134
45.6237 39.2001 0.444315
579.954 60.195 0.447893
269.603 33.7495 0.388697
565.727 46.2109 -0.473738
623.842 69.6454 -0.518121
288.606 9.29802 -0.0978723
587.182 35.7703 -0.459879
314.795 2.55947 -0.416885
394.722 25.3926 0.3613
560.96 38.8698 -0.604065
101.956 12.3921 -0.44077
442.872 3.80236 -0.569525
607.788 25.2263 0.182416
85.0277 7.90065 0.313489
270.272 15.6316 0.19991
400.72 11.6748 -0.262595
635.264 7.92866 0.609656
378.443 1.98109 -0.5575
170.528 39.2915 0.310735
604.11 10.1256 -0.411135
124.247 40.0241 0.203527
252.459 31.9872 -0.445419
379.427 22.04 0.237991
497.127 18.75 0.41596
367.591 9.66369 -0.566423
429.351 40.7202 -0.546831
602.984 79.3939 -0.433514
44.8883 12.163 0.171123
286.349 40.291 0.293221
361.33 29.7985 -0.381897
388.538 21.8723 -0.251976
483.617 79.6182 -0.356396
596.322 58.8197 -0.220479
563.876 84.1747 0.345512
215.905 37.0195 -0.403462
13.2325 33.2314 -0.177867
557.606 85.5554 0.122295
471.087 76.1439 -0.430708
220.019 41.8567 0.130399
558.986 57.7426 0.212433
145.137 10.3624 0.18309
349.026 23.2735 0.372412
431.655 57.6821 0.101041
392.991 21.0162 0.252335
597.638 79.0029 0.291006
403.73 4.09875 0.656938
47.3845 26.2402 -0.335874
440.292 48.1409 -0.368491
407.473 46.4049 -0.380831
618.647 75.0082 -0.25911
589.954 31.9354 -0.232987
476.742 36.3344 -0.208367
611.055 74.1385 0.479829
281.44 2.50164 -0.448167
360.538 33.0216 0.536658
27.4098 41.6532 -0.31148
589.423 37.4743 -0.221261
528.152 20.9095 -0.607129
432.294 6.01363 0.544153
121.918 4.72153 -0.354139
401.715 43.1187 0.174069
10.7799 0.949676 -0.398922
630.234 11.4288 0.143696
353.133 43.9449 -0.47285
[...]
POINT_DATA 13483
TENSORS Strain_matrix float
-1.33711 0.316245 -20.5263 
0.400182 0.236546 2.15171 
1.47549e-18 3.68873e-19 1 

-2.15073 1.28131 4.73137 
0.192865 0.618477 1.4013 
5.19827e-18 3.93443e-18 1 

-0.161797 -0.0751724 -0.21271 
0.0986713 -0.0306251 0.988563 
7.76626e-18 -2.37042e-17 1 

-2.70097 0.326279 -3.60407 
-0.54264 0.629103 2.76124 
1.12308e-17 -1.42557e-17 1 

-0.7126 -0.338635 -0.611692 
0.220579 0.163068 0.989697 
3.75587e-18 3.29462e-18 1 

-0.120155 -0.0627739 -0.606053 
0.0666078 -0.0115347 0.115793 
-9.7486e-18 9.15691e-18 1 

-0.225549 -0.16066 -0.460546 
0.0473908 0.0121676 0.027885 
-8.3672e-18 1.15402e-17 1 

-0.722264 -0.0810554 -0.374307 
0.0354683 0.212469 -0.467295 
4.12151e-18 1.07159e-17 1 

-4.05192 1.34956 1.40738 
-0.384316 0.400791 1.36167 
-5.30745e-18 -7.81582e-18 1 

-0.955117 -0.606255 -207.702 
-0.0449441 0.280247 50.501 
1.75774e-18 3.02397e-18 1 

-0.126746 -0.0613062 -0.140175 
0.0749843 -0.0701051 0.0263618 
2.602e-18 2.09512e-18 1 

-0.126378 -0.11 0.195804 
-0.0211253 -0.0912113 0.0956425 
-2.1484e-18 1.58146e-18 1 

-3.92588 6.62928 18.2267 
-0.296545 1.04871 3.34508 
-5.88841e-18 1.26758e-17 1 

-2.88075 -2.24753 -0.664221 
0.912899 1.14053 -0.405305 
7.26018e-19 1.42911e-17 1 

-0.333529 -0.115673 3.41016 
0.0884598 0.109323 -0.531384 
-3.0254e-18 -8.23216e-18 1 

-0.357748 -0.237132 -0.717543 
0.113876 0.163371 1.52557 
2.13787e-17 -1.09062e-17 1 

-0.140947 -0.0595026 0.0535032 
-0.0266006 -0.0393698 -0.0393104 
6.67898e-19 1.57481e-18 1 

-0.33914 -0.00480696 -0.0267164 
0.196268 -0.101578 -0.0800835 
-1.92606e-17 -4.3213e-18 1 

-0.379805 0.00409952 7.94038 
-0.0910843 0.0939196 6.81548 
8.343e-18 2.7458e-18 1 

-1.62045 -0.764055 -1.49292 
0.144121 0.645729 0.38313 
1.30421e-17 -7.46181e-18 1 

-0.230831 -0.26226 -0.306013 
0.322323 0.0692335 -0.0620325 
4.35661e-18 -4.39586e-18 1 

-4.12117 3.75754 -21.1245 
0.184792 1.83766 -1.60884 
-8.27492e-18 1.17002e-18 1 

-1.88371 -2.39811 -7.90132 
-0.200478 0.196319 0.171697 
2.00214e-18 1.4561e-18 1 

-1.04799 1.53703 -31.3686 
-0.0184494 0.923546 -20.7786 
5.54824e-18 -3.22416e-19 1 

-0.4029 -0.311781 -0.101542 
0.456679 0.274351 0.474797 
-3.31672e-18 1.5478e-17 1 

-0.269895 0.0503377 -0.12156 
-0.0311866 0.0897205 0.0693251 
-3.74146e-18 -7.70301e-18 1 

-1.60689 2.06787 8.42306 
0.0863709 0.340321 2.9997 
2.08511e-18 3.56664e-18 1 

-0.464325 0.383338 -0.21874 
0.231322 0.0409179 -0.619206 
3.44219e-18 -4.57108e-18 1 

-0.121271 0.0752232 -0.522778 
0.0424742 -0.0712143 0.482517 
1.82079e-19 -2.70084e-18 1 

-5.2626 -2.31417 -5.45608 
-0.925513 -0.211904 -1.86387 
1.20749e-17 -2.22006e-18 1 

-1.38381 0.655458 1.49748 
-0.266682 0.270044 0.785464 
1.57863e-17 -3.53261e-18 1 

-0.0929622 0.263866 0.450347 
-0.0303617 0.0763015 0.19548 
-9.17903e-19 3.5304e-18 1 

-0.383556 -0.837739 1.24026 
0.310691 0.27538 -0.512189 
-1.19185e-17 -3.56215e-18 1 

-0.586528 0.169727 1.90873 
-0.0238856 0.294539 2.67657 
2.05907e-18 -5.83321e-18 1 

-0.0930992 0.0297958 -0.196211 
-0.099845 -0.105545 -0.36155 
-2.59089e-18 -7.55677e-18 1 

-0.384522 -0.615532 -0.400288 
0.17402 0.257561 -0.475278 
7.65334e-18 2.09597e-17 1 

-0.87851 -0.0165907 13.5716 
0.137696 0.31491 -8.02619 
-5.29749e-18 4.37903e-18 1 

-0.0912843 0.20309 -0.268871 
0.119513 0.0469845 0.100676 
5.00429e-18 1.30112e-17 1 

-0.924046 7.61385 4.92923 
-0.432962 0.913559 0.332452 
-5.96148e-18 3.78045e-18 1 

-0.258408 0.00551807 -1.223 
0.16411 0.056903 0.596929 
-8.25275e-19 1.30906e-18 1 

-0.221913 -0.00665965 -0.436007 
-0.124896 -0.018444 0.107337 
1.00797e-17 2.18849e-18 1 

-0.104051 -0.33374 -0.289291 
0.257609 -0.048376 0.438804 
2.61435e-18 1.77249e-17 1 

-4.2703 0.260844 6.98363 
-1.71554 0.373368 5.5352 
-3.33091e-18 1.62678e-17 1 

-0.160475 0.0696946 0.464243 
-0.0807429 -0.0619505 1.08367 
-1.00742e-17 -1.95487e-18 1 

-0.158318 0.126254 -0.107814 
-0.100086 -0.0125072 -0.0554927 
4.25958e-18 -3.05404e-18 1 

-0.099927 -0.0127482 0.105885 
-0.00689827 -0.0519111 0.157913 
-1.69948e-18 4.70128e-18 1 

-1.97608 1.71378 8.11715 
-1.07831 1.36933 5.50731 
4.76532e-18 2.04584e-18 1 

-0.0674327 -0.0313899 -0.0122314 
0.0111623 -0.108145 0.00488122 
8.82266e-18 6.44088e-19 1 

-1.62683 -0.13711 -11.9862 
-0.0274566 0.403957 0.0747244 
5.41954e-18 2.56041e-18 1 

-0.606181 -0.492503 3.77371 
-0.527333 0.0760509 1.39178 
1.45653e-17 -8.49645e-18 1 

-0.119747 0.0821746 0.197496 
-0.0630277 0.00961198 0.282484 
2.50903e-18 3.53123e-18 1 

0.265009 -1.09857 1.09534 
0.801976 0.47416 0.5397 
4.47149e-18 1.65611e-19 1 

-0.112111 0.0158849 0.486133 
-0.0854784 0.0782753 -0.731638 
-2.4142e-17 9.8563e-18 1 

-0.447207 -0.120616 0.28331 
0.375431 0.307674 0.941464 
3.37485e-18 1.79289e-18 1 

-0.42212 -0.169961 0.206631 
0.397205 0.225251 -0.599607 
-7.70249e-18 -9.64869e-18 1 

-0.673787 -0.146199 3.63599 
-0.263328 0.195195 -6.4303 
5.18684e-18 -2.53085e-18 1 

-3.93782 4.45137 1.74452 
0.283668 0.789608 1.88128 
2.65639e-18 -1.43916e-17 1 

-0.144873 -1.83325 -1.29581 
-0.0090894 -0.00534021 -0.618772 
1.44927e-18 5.93806e-17 1 

-0.0904871 -0.0700912 0.411608 
-0.0543109 -0.0826739 0.156598 
-3.92704e-18 1.09537e-17 1 

-0.265362 0.047908 -0.812372 
-0.12237 0.0148518 0.121805 
-3.52544e-18 2.9033e-18 1 

-2.44329 -0.769029 1.41176 
1.09198 1.32927 -0.204879 
9.98372e-18 -1.83485e-18 1 

0.00958646 -0.532552 0.254733 
0.428695 0.0991336 -0.118568 
8.12236e-18 5.22152e-18 1 

-0.143061 -0.121833 -0.220991 
-0.0186448 -0.0720097 -0.125142 
8.74623e-18 1.77111e-17 1 

-0.574686 0.120401 -0.484 
0.12974 0.0911394 -0.483324 
7.54232e-18 -6.87859e-18 1 

-0.134015 0.148967 0.0395032 
-0.115728 0.0494432 0.26917 
1.44231e-18 -7.55972e-18 1 

-0.24925 0.0218744 -0.112657 
0.0121181 0.0238323 0.452504 
-2.38643e-17 -1.31346e-17 1 

-0.772435 -0.220273 0.236482 
-0.0893539 0.140818 0.178343 
-1.81471e-17 2.13182e-19 1 

-0.0354251 -0.0367021 -0.763149 
0.0157851 -0.0521027 1.03029 
-1.26039e-17 6.99049e-18 1 

-0.245607 -0.114908 1.52749 
0.0269668 -0.0679234 -0.308876 
6.39578e-18 5.38786e-18 1 

-0.499772 -0.0591463 0.376103 
-0.126054 -0.0517119 -0.252046 
1.68881e-17 -1.63763e-17 1 

-0.901492 -0.232043 1.90577 
0.809025 0.422361 -1.37628 
-4.40559e-18 -6.26285e-18 1 

-0.151801 0.0533965 0.597089 
-0.0432733 -0.0393748 -0.127239 
6.16693e-18 -1.57403e-17 1 

-0.729273 2.51639 -0.959784 
0.255068 0.287984 0.575898 
5.1844e-21 -2.82031e-18 1 

-0.287854 -0.18062 1.07829 
0.300763 0.175082 -0.815354 
5.83042e-18 1.07162e-17 1 

-0.136505 0.0415481 -0.231566 
-0.0829382 -0.0255528 -0.147585 
2.15384e-18 1.01791e-17 1 

-0.202924 0.00209492 -0.0829292 
-0.0657534 -0.00307971 -0.0919777 
2.54303e-18 2.8169e-18 1 

-0.840521 0.343593 12.1605 
0.339232 0.214263 7.01985 
5.70543e-18 1.09304e-17 1 

-0.226651 -0.0541801 0.522101 
0.126286 0.0684784 -0.643535 
1.68313e-17 -3.06447e-18 1 

-0.621244 0.0849485 0.499037 
-0.367655 0.27737 0.557036 
-1.4717e-19 7.88832e-18 1 

-5.09928 2.31963 2.08397 
-2.13661 1.78488 0.560336 
4.29407e-18 -1.11703e-17 1 

-1.97598 -0.582262 4.47546 
-1.47979 0.306963 0.42009 
2.00801e-17 7.47317e-19 1 

-0.148116 -0.554777 1.3107 
0.306142 0.120957 -0.416184 
9.53288e-18 -1.19301e-17 1 

-0.0890316 0.0435822 -0.0576225 
-0.0272143 -0.0289902 0.308893 
-4.54914e-18 -8.74834e-19 1 

-1.3466 0.0883739 -0.550546 
-0.936192 0.5329 -0.44232 
-2.32005e-18 2.64841e-17 1 

0.105611 -0.767359 -0.232855 
0.596569 0.213994 -0.309192 
6.42815e-18 7.82557e-18 1 

-0.194608 0.491557 -0.304993 
-0.347177 0.202334 0.236831 
5.13694e-18 1.12222e-17 1 

-1.95929 12.5669 105.13 
0.00191489 0.443149 -0.998652 
-3.85089e-18 -3.49688e-17 1 

-0.111892 -0.0952167 -0.115337 
0.0328887 -0.0899675 -0.016918 
-2.74219e-18 7.3778e-18 1 

-0.317039 -0.0246587 -0.350814 
0.0898347 -0.00942424 0.176565 
-1.10731e-17 1.45234e-17 1 

-0.198885 0.00380596 -2.82131 
0.0323431 -0.0822363 8.82463 
2.91434e-18 -7.03804e-18 1 

-0.182903 -0.0319404 0.231175 
-0.0742837 -0.0269092 0.0112218 
3.66292e-18 1.1294e-17 1 

-1.25278 0.257096 -1.09348 
0.203629 0.437637 -0.577552 
5.13601e-18 -7.84829e-18 1 

-0.78063 -0.0124488 -9.10829 
0.0881908 0.241342 1.90297 
-4.521e-18 8.65595e-18 1 

-0.135409 -0.0440709 0.0451544 
0.0265488 -0.0530517 0.39049 
-1.20254e-17 1.32633e-18 1 

-0.109245 0.121513 0.0416087 
-0.049033 0.0293085 -0.638898 
1.40848e-17 6.93247e-19 1 

-0.312433 0.364184 -0.00790549 
-0.0140399 0.229406 -0.280403 
-7.86902e-18 2.50194e-17 1 

-0.198438 -0.0322133 0.448852 
-0.0959083 -0.0276284 -1.0358 
1.88299e-17 8.00642e-18 1 

-0.214355 -0.576776 -0.713081 
0.673292 0.288573 0.0200944 
-3.06913e-18 -5.02221e-18 1 

-1.70825 1.83813 3.44456 
0.432114 0.427553 -0.731761 
-2.87849e-19 -6.48379e-18 1 

-0.177181 -0.256808 -0.223279 
0.0936372 0.00323974 0.535652 
-4.98302e-18 7.45377e-18 1 

-0.200431 -0.253762 0.0490526 
-0.065029 0.16257 -0.486981 
2.95502e-18 -9.36931e-18 1 

-0.190413 0.174099 2.25132 
-0.131698 0.049591 5.4667 
3.38606e-19 2.5873e-18 1 

-0.306793 0.0255005 -0.452999 
-0.058642 0.0611716 0.448181 
7.17035e-18 -2.86501e-18 1 

-0.2492 0.248646 0.0482617 
-0.173572 -0.0164319 0.142348 
-1.78718e-17 6.60603e-18 1 

-0.388301 -0.303673 0.342953 
-0.0385526 -0.0454462 -0.0153465 
-3.20103e-18 -5.00479e-18 1 

-1.24442 0.0746837 -0.0112694 
0.132028 0.368138 0.235166 
-8.34774e-18 1.11596e-17 1 

-0.944715 -0.79357 0.0693612 
0.264621 0.389656 -0.441092 
7.79229e-19 1.16843e-17 1 

-0.124947 0.0829662 -0.385943 
-0.135769 -0.00404037 -0.293409 
1.03957e-18 2.15711e-17 1 

-0.234429 0.0289444 0.15581 
0.0885722 -0.104065 -0.0877602 
-1.63011e-17 7.4852e-19 1 

-1.09252 0.403235 -0.449628 
-0.645624 0.354623 -2.70667 
-6.98302e-18 -4.88812e-18 1 

-0.264544 0.0435316 1.88749 
-0.0181432 -0.0209314 -1.02495 
2.26798e-18 5.49941e-17 1 

-0.306545 0.0706324 -0.832659 
0.0733668 0.0924056 -1.02392 
-3.85012e-18 -7.85877e-18 1 

-0.144242 0.139985 0.0451868 
-0.171119 -0.0583902 0.0911342 
2.05219e-18 4.51482e-18 1 

-0.237687 0.121639 -1.42999 
-0.481077 0.305788 -2.31422 
-7.8195e-18 -1.14123e-17 1 

-6.16939 -1.13203 0.753309 
-0.964598 0.938569 -1.36265 
-1.70384e-17 -2.72671e-18 1 

-0.185437 0.0701483 -2.27104 
-0.0438412 0.00415249 2.73026 
1.45787e-19 -6.7548e-18 1 

-0.137017 0.0326065 -0.402634 
-0.0481955 -0.0329172 -0.0334006 
-6.22865e-18 -5.47366e-18 1 

-0.184319 0.0460398 -0.245916 
0.0820647 -0.0127627 -0.132838 
-2.98214e-18 2.46855e-17 1 

-0.268962 0.141 0.287625 
-0.0480092 -0.150733 -0.19695 
-4.43476e-18 4.38294e-18 1 

-0.161191 -0.253394 -0.151103 
0.233237 0.0567589 0.213507 
1.13445e-18 2.99819e-18 1 

-0.868524 0.261402 -1.08755 
-0.103871 0.0901924 0.452545 
1.40193e-17 8.41158e-18 1 

-0.265836 0.377801 -0.0171834 
-0.101383 -0.00253976 0.358398 
1.23892e-17 -9.84499e-18 1 

-0.235279 0.331772 -0.570387 
-0.201983 0.172379 0.133084 
-5.90384e-18 -1.63172e-18 1 

-5.44462 4.28333 -13.3881 
0.487742 0.847045 -0.736402 
-9.6728e-18 -6.75997e-18 1 

-0.189247 -0.0112136 -43.4712 
-0.0102778 0.0193687 3.91703 
1.17161e-18 7.00142e-18 1 

-0.279542 -0.116705 -1.54392 
0.102392 -0.178385 1.65044 
2.3047e-18 -2.52561e-17 1 

-0.146573 0.0104663 0.169174 
-0.0686047 -0.0229216 -0.0732652 
-1.81784e-18 2.97178e-18 1 

-0.338717 0.657577 0.471659 
0.178585 0.105399 -0.0244718 
5.30051e-19 -7.00845e-18 1 

-0.103278 0.0575964 -0.0452697 
-0.0886863 0.0269324 -0.0149762 
-1.24663e-18 7.45399e-18 1 

-0.372519 0.218716 -0.142871 
0.202806 -0.044469 -0.488014 
-2.24075e-18 9.55265e-18 1 

-0.0749147 -0.460082 -1.25099 
0.460561 0.139085 0.434796 
8.68335e-18 -1.51468e-18 1 

0.0103759 0.0717773 0.0361764 
-0.073903 -0.0514336 -0.00424714 
6.56629e-18 -4.77245e-18 1 

-0.111161 -0.376436 0.124783 
0.382628 0.0680708 0.350134 
8.92393e-18 4.2263e-18 1 

-0.471185 -0.232483 -0.0760027 
0.189896 0.13765 -0.223365 
-4.91641e-18 -7.91908e-18 1 

-0.404109 -0.07779 0.681419 
0.0787239 0.224174 -0.119635 
-7.0482e-18 3.02423e-18 1 

-0.228357 0.0202498 0.130549 
-0.0726713 0.0888345 -1.07612 
-5.17287e-18 -6.72607e-18 1 

-6.13304 8.12763 21.0643 
-1.37063 1.89409 2.09867 
4.1415e-18 1.7491e-18 1 

-0.158937 0.00175147 -1.14124 
-0.0290711 0.0525384 -1.83939 
2.05168e-18 -6.68586e-18 1 

-0.689774 -0.333286 0.765483 
0.273445 0.357641 -0.495261 
8.1196e-18 3.42627e-17 1 

-0.0670568 -0.202162 0.092913 
0.218725 -0.0322388 0.106432 
1.65232e-17 3.81724e-18 1 

-0.438276 -0.121924 -2.76972 
0.20944 -0.0188866 0.923684 
-2.44831e-18 5.09196e-18 1 

-0.31445 0.0230047 -0.508262 
-0.0304158 0.0618081 -0.192678 
2.01131e-18 -5.61781e-18 1 

-0.472608 0.0943114 -0.322693 
0.10887 0.151106 -0.0848466 
-4.69774e-19 -4.91795e-18 1 

-0.135047 -0.120542 0.0648431 
0.0619387 0.00667537 0.131943 
-1.01477e-18 1.25285e-17 1 

-0.095509 0.0256423 0.237092 
-0.0615999 -0.0380681 0.255413 
2.27884e-18 6.0571e-18 1 

0.144338 -0.981703 -1.54907 
0.509795 0.367094 0.695142 
5.02672e-18 1.41931e-18 1 

-1.15164 -0.334734 0.781712 
-0.366382 0.472251 -1.35888 
1.3799e-17 1.31641e-17 1 

-0.151862 0.0101478 -2.20901 
-0.0303563 -0.0753683 -0.0265496 
2.39556e-17 -2.29906e-17 1 

-0.613411 0.229804 0.0953369 
-0.172065 0.359358 -0.52978 
2.90526e-18 -3.63158e-18 1 

-0.157173 0.0992836 -0.222836 
-0.1759 0.00812552 -0.233679 
-1.61508e-17 1.98779e-18 1 

-0.320371 -0.128447 0.0247533 
0.250573 0.144564 0.399668 
-1.20344e-18 2.44986e-18 1 

-0.525506 -0.0688923 -0.306117 
-0.0900593 0.178417 -0.486671 
3.65012e-18 -3.4763e-18 1 

-0.136675 -0.0576912 0.765131 
0.0528641 -0.0691979 -1.95158 
8.65096e-18 3.38364e-18 1 

-0.18068 0.00113066 -1.29009 
0.0974155 -0.00357096 0.386332 
3.61666e-19 3.43582e-19 1 

-0.132944 0.0702995 -0.217048 
-0.0309816 -0.0831165 0.026526 
-7.2407e-18 6.45438e-18 1 

-0.682682 -0.93165 43.9304 
0.846833 0.576405 11.6072 
3.96672e-18 9.49543e-18 1 

-0.275785 0.445028 -1.17806 
-0.0915024 0.170178 -0.382353 
-3.0859e-18 -6.31644e-18 1 

-0.112826 -0.0348493 -0.86976 
0.0366429 0.00668991 -0.494386 
-1.6763e-18 -2.94088e-18 1 

-1.59425 5.07738 37.271 
0.100117 2.38191 18.1159 
-2.25093e-18 -1.96364e-17 1 

-1.87422 0.359633 24.9805 
0.230558 0.329389 -1.55944 
4.26216e-18 -2.36288e-17 1 

-1.58085 4.09577 -224.996 
0.373956 -0.244814 21.1155 
-5.89161e-18 -2.40766e-17 1 

-0.502543 -0.479846 -0.591639 
0.0105059 -0.0897726 -0.898917 
-3.16453e-17 -2.9653e-17 1 

-2.56339 -3.67859 3.33186 
-0.626241 -0.120399 -0.266716 
-8.66711e-18 -2.54596e-18 1 

-2.76242 2.18999 60.7294 
-0.301664 1.12121 14.1857 
-6.61544e-18 -2.19516e-18 1 

-1.68254 -1.80806 4.17101 
0.969644 0.896652 1.72719 
-7.02331e-18 1.74029e-18 1 

-3.87871 -2.19454 -0.375703 
0.490127 1.25477 0.771434 
7.07636e-18 1.02727e-17 1 

-0.403018 -0.281419 0.0852544 
0.122842 0.274328 0.166047 
-1.59311e-18 -2.17242e-19 1 

-0.277705 0.0423683 -0.120248 
0.151518 0.117427 0.447565 
-7.69664e-18 -1.18845e-17 1 

-0.145005 -0.00910281 -0.00597603 
0.0382168 -0.0759272 -0.243663 
7.44359e-18 1.07424e-17 1 

-0.239868 -0.0803894 -0.153289 
0.0247009 -0.00516199 0.414967 
-1.96791e-17 2.06772e-17 1 

-0.161311 -0.000516477 -0.106237 
-0.056172 -0.0218701 0.0837495 
3.08203e-18 1.24874e-17 1 

-0.131774 -0.079558 -0.166974 
0.0166013 -0.00434977 0.0574874 
-5.98683e-18 -1.2722e-17 1 

-0.104705 0.536168 0.258035 
-0.0433409 0.0918674 0.354129 
-1.88136e-18 -1.50509e-18 1 

-0.593219 0.177387 -0.205747 
-0.428436 0.144644 0.81771 
-6.34364e-19 1.37023e-17 1 

-0.469397 -1.21715 0.256096 
0.439567 0.37268 0.308279 
-4.98248e-18 9.57066e-18 1 

-0.318281 -0.452607 -7.58612 
0.647124 0.37145 0.731248 
-5.45939e-20 -5.25661e-18 1 

0.136059 -0.747973 0.621386 
0.681882 0.299522 -0.428939 
2.57241e-18 8.10207e-19 1 

-0.163966 -0.108835 -0.0015451 
0.0549825 -0.0550988 -0.166031 
-1.57443e-17 9.46743e-18 1 

-0.336784 -0.390401 4.53566 
0.338398 0.090513 1.59287 
4.98147e-19 8.20697e-18 1 

-0.304308 -2.32625 -1.39334 
0.870319 1.00236 -1.18415 
1.68925e-17 4.3849e-18 1 

-0.357121 0.178657 0.0302418 
0.101992 0.039636 -0.623785 
2.20243e-18 3.48718e-18 1 

-0.716842 -0.00569233 0.1607 
-0.010957 0.179835 0.255366 
3.6353e-18 -7.7553e-18 1 

-1.2361 -0.405403 -0.811049 
-0.0914446 0.488842 -1.05275 
-1.01607e-17 2.79758e-18 1 

-0.158393 -0.00594637 1.09019 
0.0462033 -0.0447757 -0.818447 
1.16212e-17 -3.3681e-18 1 

-0.607249 0.269988 -0.126012 
-0.0600396 0.184928 0.112333 
-1.63052e-17 9.45908e-18 1 

-0.200539 0.0320576 -0.710955 
-0.00661343 -0.0453471 0.369181 
-1.35404e-17 3.23123e-18 1 

-0.449793 -0.136401 -0.235795 
-0.148072 -0.00752342 -0.403649 
-2.26573e-18 -8.28406e-18 1 

-0.541546 -0.887007 0.231008 
0.550593 0.583351 0.0782486 
2.51243e-18 9.81304e-18 1 

-0.114176 0.0203276 -0.93817 
-0.047487 -0.0755599 0.622177 
2.03493e-18 3.53458e-18 1 

-1.74454 -0.614839 0.692832 
-0.157552 0.564714 0.0662904 
-2.20425e-17 -6.41571e-18 1 

-3.24002 -3.02338 -6.71232 
-0.328418 0.615883 -3.66461 
-3.88746e-18 -4.09206e-18 1 

-0.226823 -0.0476608 0.018994 
0.102956 0.00940681 0.305956 
-1.05684e-17 1.48473e-17 1 

-1.03243 -0.539068 -1.06103 
0.0795958 0.465329 -0.655687 
2.74543e-17 1.83029e-17 1 

-1.47842 0.354887 -13.0691 
0.0540653 0.352354 -0.973724 
-7.44592e-18 -5.97961e-18 1 

-0.671483 -0.181203 0.423284 
-0.364215 0.0545644 0.463977 
-6.31106e-18 -3.82851e-18 1 

-0.489294 -0.503362 0.24277 
0.0744287 0.74315 -0.34785 
-7.45329e-18 1.00096e-18 1 

-0.559646 0.00945285 0.946746 
0.0764234 -0.0546772 -0.0979696 
7.04649e-18 -1.57102e-17 1 

-0.238529 -0.422678 -0.243277 
0.202079 -0.106396 -1.00325 
6.6852e-19 4.87064e-18 1 

-0.212009 -0.132264 -0.102147 
0.0896144 -0.0996112 0.0567434 
-5.27134e-18 1.43603e-18 1 

-0.186858 -0.239531 -0.255978 
0.336114 0.0825115 0.127294 
-6.39008e-18 5.05589e-18 1 

-0.448752 -0.257035 0.363051 
0.0229363 0.251103 0.533421 
2.48826e-18 -7.46045e-18 1 

-0.492161 -0.275076 0.0384616 
-0.100697 0.221356 0.860164 
1.41672e-18 -2.81584e-18 1 

-1.38666 0.122437 3.09815 
-1.21997 1.5148 -0.722866 
-1.53985e-17 -5.25803e-18 1 

-8.45625 8.99384 13.6066 
-1.25223 1.57222 4.63863 
4.07977e-19 -4.95319e-18 1 

-0.356296 0.0807435 -0.345641 
-0.147567 -0.0208112 0.168776 
-4.04941e-18 -1.49455e-17 1 

-0.166527 -0.0685565 -0.109267 
-0.0502756 -0.0255311 0.361971 
1.91913e-17 -5.39363e-18 1 

-0.133823 -0.00948382 -1.10769 
-0.0178077 -0.0254167 -0.209727 
1.40206e-17 -7.34187e-19 1 

-0.151518 0.00936908 0.538776 
0.0121022 0.0342184 0.0436304 
-8.11016e-18 -1.32192e-17 1 

-0.186104 -0.0502404 0.183467 
0.149034 -0.0348225 -0.589892 
5.67363e-18 -4.31196e-18 1 

0.0136654 -0.482854 -0.504828 
0.351884 0.0696983 -0.998039 
4.06988e-18 7.04557e-18 1 

-0.0559384 0.0368237 0.0926007 
0.017953 -0.000264749 -0.105891 
1.07638e-19 -1.35623e-17 1 

-1.61349 0.153103 -0.232648 
0.233834 0.729829 0.705741 
-6.51458e-18 -9.31619e-18 1 

-0.101697 0.162613 0.0192196 
0.0121333 -0.0886309 -0.422875 
-2.50187e-18 3.75281e-18 1 

-0.136775 -0.0330234 -1.69139 
-0.0648557 0.0460994 0.4327 
1.30567e-18 5.91248e-19 1 

-2.03921 0.099113 4.57714 
0.184223 0.810615 -3.67146 
-1.04081e-17 4.79105e-18 1 

-2.4564 0.973767 -10.6716 
-0.740515 1.01588 -2.64877 
1.31828e-17 3.30564e-18 1 

-0.185514 0.0126172 -0.00204626 
0.0048855 -0.0314643 -0.320214 
-1.37135e-17 -1.66193e-17 1 

-0.472727 0.0741298 -1.05003 
0.232675 0.0343758 0.802393 
-9.75079e-18 -6.74129e-18 1 

-0.226425 0.0132963 1.21013 
-0.0487523 0.0704522 2.98516 
6.34031e-18 -1.12439e-18 1 

-0.149621 -0.343577 -0.787282 
0.202669 0.0544892 -0.434195 
-1.04559e-19 -7.59797e-18 1 

-0.790177 -0.122254 6.56158 
0.0842668 0.199053 2.33531 
9.65623e-19 -1.88274e-17 1 

-0.464942 -0.369607 0.209348 
0.336378 0.128357 0.00744009 
3.30882e-18 3.44669e-18 1 

-0.0969663 0.0261662 0.342146 
0.126433 -0.0566442 0.0346254 
-8.99137e-18 -1.22668e-17 1 

0.0259281 -0.62571 -0.526377 
0.647089 0.28683 -1.49912 
-3.45727e-19 -2.87671e-18 1 

-0.177173 0.646111 0.437665 
-0.4037 0.15288 -0.661106 
-4.90644e-18 -1.02635e-17 1 

-0.0827173 -0.0720476 -0.165049 
0.00121495 -0.0474016 -0.0215484 
1.52477e-17 6.02004e-18 1 
