# vtk DataFile Version 3.0
Output file generated by Yade's KinematicLocalisationAnalyser
ASCII
DATASET UNSTRUCTURED_GRID

POINTS 13483 float
632.37 28.5519 -0.409998
802.123 52.1463 -0.454807
124.188 6.08485 0.464713
838.936 9.1648 0.362398
517.614 8.00884 0.288383
325.78 35.4246 -0.479933
161.948 6.89545 -0.431045
591.687 10.3773 0.15058
515.679 24.6643 0.134276
749.808 15.5472 -0.515171
217.7 8.81399 -0.101524
265.704 6.35617 -0.284993
683.528 30.303 -0.146478
659.995 14.4699 -0.109223
141.792 17.1634 0.46395
229.284 34.589 -0.395427
225.207 12.9665 0.286648
298.844 9.48245 0.399905
352.796 33.4022 0.436797
543.691 8.64712 0.342329
425.459 37.1453 -0.100602
614.173 44.2479 0.314911
828.805 44.187 0.470632
732.179 48.7658 0.504915
475.53 16.0439 0.292007
249.431 44.7295 0.128852
509.959 28.2363 -0.480583
608.699 20.1519 0.231577
46.4841 15.5029 -0.471546
755.039 41.601 -0.31514
500.152 4.85818 0.328162
17.7291 22.9896 0.313365
814.853 58.4911 0.254127
513.484 2.50852 0.464574
80.825 44.6126 -0.104574
541.207 31.1591 0.334446
550.262 16.6955 -0.409978
355.525 21.9982 0.186247
553.853 25.8122 -0.319427
362.943 33.8034 0.439866
249.55 14.4206 0.332936
449.296 36.1143 0.0678163
707.025 7.97548 0.165143
199.525 6.22065 -0.375068
57.6198 6.92368 0.132702
71.0584 8.90309 0.278381
723.091 10.5004 0.670463
24.4487 11.6135 -0.281994
634.721 45.8935 0.353689
711.09 24.1558 -0.332251
178.393 32.6369 -0.299251
800.154 38.3133 -0.138221
36.392 28.2183 0.111523
554.095 3.04569 0.316511
147.104 7.43766 0.485279
616.538 33.3519 0.362426
522.54 27.1364 0.14491
180.991 0.951605 0.264133
33.9686 2.34945 -0.317352
361.275 17.7329 0.255255
646.482 46.5702 -0.132487
479.598 34.0102 -0.182128
414.322 1.03747 0.193944
732.692 9.70109 0.426754
27.3929 42.8808 -0.236329
265.509 30.5919 -0.295417
749.273 9.09958 -0.306269
701.722 47.2935 -0.365301
433.481 8.52348 -0.503858
592.32 3.70884 -0.346509
779.589 32.3149 0.371335
135.433 7.69642 -0.270047
518.102 27.4107 -0.149988
496.001 14.9618 -0.112697
305.21 16.6926 -0.343356
21.5764 13.5156 0.25663
824.404 53.5138 0.298895
344.978 38.8611 -0.302648
706.671 20.9644 0.323583
721.807 15.2169 0.2134
826.82 12.3935 -0.236399
482.959 34.6515 -0.172615
95.7707 39.1029 0.261802
720.423 39.4136 -0.239061
677.871 40.2446 -0.110357
835.695 49.5603 0.122626
822.62 0.731468 -0.505174
301.918 28.7113 0.460776
648.787 6.37303 -0.119364
25.1724 5.1847 -0.471711
137.86 37.8914 0.152359
533.057 14.254 0.215867
813.224 28.0058 0.507976
202.955 28.7238 0.240876
46.0661 34.4897 0.284787
512.439 1.16524 0.128034
244.534 8.78531 -0.387659
787.884 56.3214 -0.29883
801.505 28.8943 -0.25462
375.371 20.6267 -0.268324
170.194 26.9347 0.42471
572.622 40.8121 -0.427362
394.932 15.0823 -0.488229
430.104 30.1783 -0.0993116
393.254 4.38244 0.406924
570.447 10.643 -0.102695
838.523 21.503 0.241876
83.2477 39.5597 -0.400763
348.643 4.81191 -0.187729
585.03 9.74307 -0.364249
374.69 43.9964 0.46126
27.0262 24.6392 0.474918
31.6683 5.63709 -0.353319
591.556 34.0186 0.403375
525.658 24.7028 -0.141571
27.4411 36.7434 -0.408909
96.9487 31.2529 -0.220726
338.157 15.9686 -0.292305
627.317 19.0617 0.12692
495.51 38.363 0.309707
765.539 7.66356 -0.36696
757.967 7.78839 -0.242806
402.957 37.0352 0.0987504
665.686 26.2711 0.0914162
247.683 17.2058 0.558975
343.71 3.68773 0.468796
107.482 31.9775 0.366687
120.782 24.3309 0.262574
568.006 39.8456 0.0838181
318.97 18.8515 0.48398
750.896 45.0377 -0.106003
706.051 47.4636 0.143102
501.817 20.9087 -0.370666
804.479 11.3396 0.33534
446.627 24.2379 0.233592
289.246 23.8697 -0.302622
708.321 34.9677 -0.270816
290.512 28.9491 0.39701
602.845 12.1571 -0.195297
345.967 35.4838 0.202574
527.102 11.2779 0.469317
382.578 31.4464 0.0814118
449.773 17.1717 -0.101695
331.938 42.4526 -0.332105
199.084 29.8587 -0.123067
806.787 51.8032 -0.158267
835.528 22.5574 -0.426138
6.22932 12.2886 0.422806
453.513 22.8581 -0.409581
40.2058 22.506 0.0826326
393.055 31.3696 -0.470922
413.135 24.693 -0.251608
77.8715 11.7442 0.49498
54.0384 33.5606 0.452309
235.915 13.4974 0.446685
647.92 40.0293 -0.395718
604.913 21.0354 -0.413335
78.4729 20.8654 0.490417
734.258 52.9525 -0.423117
792.694 4.09178 -0.591966
694.449 42.3946 -0.51953
728.534 2.85391 0.496213
576.958 27.5638 -0.436028
615.64 44.3234 -0.514746
536.631 18.153 -0.406963
837.723 5.23829 -0.438735
233.677 24.9315 -0.132445
133.312 34.8767 -0.189208
258.437 6.56816 -0.373157
98.9096 4.20663 -0.276739
67.3584 10.2069 -0.177043
288.434 36.0349 -0.324423
17.4268 24.736 -0.33794
582.539 19.2447 0.380936
634.526 40.7364 -0.236131
485.135 21.344 -0.387028
833.744 60.72 -0.400755
426.474 8.57579 -0.108765
456.195 36.4809 -0.362791
562.67 3.46646 -0.189789
24.2441 23.6733 -0.397975
605.534 4.46051 0.503472
572.546 4.29429 -0.291142
215.834 11.3191 0.487628
445.511 16.3659 0.190788
326.154 6.31026 0.333597
406.646 18.954 -0.32405
779.516 47.7778 -0.140173
201.597 25.5797 0.417169
814.049 6.52764 0.454288
780.442 44.0816 0.355334
402.006 10.2257 -0.1677
748.479 2.20995 -0.544301
636.007 25.3726 -0.41475
772.438 19.5288 -0.37326
451.523 43.0703 -0.302051
521.37 12.6408 0.409342
488.412 44.4028 -0.218464
467.454 8.97217 -0.139606
698 41.7141 -0.315907
696.012 37.687 0.341865
201.432 39.073 -0.335647
824.734 12.3348 -0.113297
617.383 44.6932 -0.256419
12.2371 17.1542 0.174722
427.916 25.2517 0.383352
196.388 23.2699 0.403746
97.4174 40.1196 0.20658
809.465 24.4525 0.40457
692.238 47.5665 -0.246525
334.662 25.5923 0.356287
559.543 10.2382 0.313581
85.9715 44.7431 -0.169021
259.366 25.7652 -0.465504
585.834 25.5874 0.381306
512.022 19.5743 0.422567
275.443 0.889086 -0.343046
581.504 43.2133 0.392401
561.187 40.7717 -0.545165
506.792 33.9258 0.396808
524.263 0.822616 -0.53879
738.557 24.9089 0.355083
188.349 12.0172 0.170864
526.405 38.4829 0.440409
593.702 43.2934 -0.169674
76.6259 0.945255 -0.273413
263.876 4.67766 0.159701
834.343 24.0439 0.20369
827.058 14.3173 -0.471352
840.287 27.5953 -0.481057
318.46 8.5859 -0.230699
779.142 24.7836 -0.445581
427.12 42.244 0.353291
471.657 0.812277 -0.394159
684.026 37.9903 0.452644
28.3471 30.5058 -0.309376
347.016 41.5308 -0.572141
264.81 2.84751 0.326605
819.046 58.8269 0.210384
755.026 57.5542 -0.00510225
301.533 10.8695 0.221938
703.278 32.0112 0.0847185
586.853 2.58512 0.263644
570.216 6.3521 0.426708
101.459 18.502 -0.491888
318.381 1.03618 -0.227081
360.505 2.27668 -0.357915
14.6134 7.64074 0.366198
4.55455 30.8839 -0.234953
170.023 18.9948 0.353928
71.6314 41.7435 0.206562
70.1821 28.835 -0.330354
445.385 14.6176 -0.405964
385.718 34.9888 -0.476828
798.497 39.8826 -0.110484
20.3874 4.03332 0.263941
74.161 6.86824 -0.139556
658.559 39.3436 -0.193744
309.474 0.95051 0.309609
383.554 16.1193 -0.0921507
247.34 4.6586 -0.380429
688.15 22.2289 -0.20985
474.908 8.4157 0.409007
781.742 21.5855 0.373025
664.971 29.8325 -0.309211
705.922 19.0699 -0.103487
441.97 26.5132 0.512426
107.445 45.0145 0.321419
570.739 44.3359 0.0751584
769.748 13.8295 0.267797
249.806 30.9196 -0.249134
33.7909 17.1584 0.183097
353.477 13.6994 0.503528
112.936 40.5692 -0.469415
281.304 42.1692 -0.194503
447.857 1.57717 -0.294341
815.09 38.1207 -0.437738
723.809 0.789006 -0.532252
349.214 3.20105 0.528471
315.695 26.626 0.138536
487.031 41.3121 0.216265
85.6604 7.96125 -0.445301
208.006 44.9252 -0.37847
805.045 31.8489 -0.385624
521.429 40.6812 -0.0940589
210.373 41.1454 0.268079
169.063 42.5513 0.0976805
839.868 44.5874 -0.390632
837.364 22.7007 -0.545799
639.504 3.56879 -0.463025
200.093 24.5429 -0.0948651
578.734 29.8107 -0.109855
580.626 28.9776 0.262394
431.075 5.62131 -0.14262
507.307 0.92064 -0.293133
796.34 42.2194 0.510981
89.591 31.3845 -0.213553
694.535 19.2412 0.436328
288.35 15.4662 -0.337249
10.1397 2.33222 -0.345732
131.868 36.8393 -0.199067
70.5662 23.3104 0.473197
743.694 45.8793 0.365432
821.273 66.6217 -0.0342123
195.302 28.2928 -0.177392
833.485 19.8673 0.285629
47.4664 36.5263 0.254367
95.1923 28.7875 0.160828
669.363 12.9772 0.474766
436.096 18.7804 -0.45185
546.92 16.7893 0.107966
250.199 28.983 0.193922
656.032 4.16535 -0.496525
840.919 20.3121 0.362365
31.4843 31.6328 -0.268981
284.035 7.70201 0.183697
233.743 15.342 0.264317
1.10036 35.8187 -0.153381
237.024 14.6841 0.365395
222.651 10.953 -0.110738
225.32 26.0849 -0.296686
139.812 27.7404 0.135023
576.61 15.0059 -0.337083
175.792 14.1933 -0.347403
813.967 55.1822 -0.220287
183.088 3.84124 -0.504549
49.766 37.9602 0.385874
779.408 57.6227 0.426936
295.733 31.5308 0.400157
714.844 27.4335 -0.421671
822.357 48.6691 0.487181
316.485 9.20315 -0.106652
771.171 33.2314 0.357774
346.039 2.58764 -0.38284
438.239 23.8886 0.354063
712.376 16.9325 -0.500915
110.956 11.8232 -0.397339
509.109 3.78848 -0.514359
784.043 19.9965 -0.165651
93.0687 7.69033 0.2042
296.365 14.6223 0.181445
446.561 11.9201 -0.234852
836.476 5.24722 0.606558
419.378 1.96145 -0.520128
186.196 38.975 -0.303142
772.16 10.6176 -0.350681
135.175 35.9572 -0.174937
276.858 31.2767 -0.371176
422.374 21.5555 0.214396
605.562 14.0544 0.303399
408.042 9.87906 -0.475557
481.396 27.7452 -0.409521
803.501 51.4148 -0.416864
50.2636 10.7737 0.100236
314.886 38.5851 -0.266037
399.733 26.0897 -0.399611
432.205 20.8243 0.252855
550.209 45.126 0.356563
795.504 54.1992 0.213157
701.953 37.7771 -0.368058
237.664 34.7807 0.209045
14.6976 31.3677 0.171086
694.211 38.5193 -0.117669
537.22 42.4421 0.468726
241.614 39.8074 -0.101974
723.071 35.1257 0.111271
159.167 9.28261 -0.207832
386.56 21.9768 0.279561
488.899 42.2856 0.112803
436.395 20.5047 0.18639
799.669 55.4795 -0.330803
449.406 3.83602 0.498937
52.44 25.2951 0.319263
495.898 32.1548 0.346709
457.812 41.5623 0.388596
819.706 50.482 -0.219888
770.616 31.4539 -0.258248
571.377 19.138 -0.145228
811.923 46.6895 0.436498
308.766 2.18401 -0.44723
399.751 29.0987 -0.462682
30.6405 38.6695 -0.297196
779.117 36.4739 -0.15429
644.115 21.1899 -0.534793
488.187 0.769634 -0.477755
132.779 4.56438 -0.271892
449.187 40.6086 0.106491
12.6657 0.91979 0.341708
835.465 8.7801 -0.138685
[...]
POINT_DATA 13483
TENSORS Strain_matrix float
-0.167947 -0.105102 0.927357 
0.0371897 -0.00352089 0.885928 
-7.15409e-18 -5.36556e-19 1 

-0.663896 -0.0296051 -19.7794 
0.126826 0.611346 -22.4564 
-3.13551e-18 7.19826e-19 1 

-0.0896731 -0.0212541 1.05829 
0.00639802 -0.0615053 -0.503266 
1.20455e-17 4.80831e-18 1 

-1.06675 -0.563056 -2.32009 
0.430282 0.493233 1.83327 
8.98916e-18 2.31752e-18 1 

-0.277805 -0.0263468 0.0759513 
-0.0542935 0.0176263 -0.342514 
-1.06055e-17 -3.86168e-18 1 

-0.0734822 -0.0164626 -0.256863 
0.00119453 -0.0155196 -0.00535821 
1.11521e-17 -5.13658e-18 1 

-0.0820811 -0.0188165 -0.067249 
-0.00868635 -0.0884766 -0.0358623 
6.71296e-18 -2.17295e-18 1 

-0.0982589 0.0633099 -0.062436 
0.0139201 -0.0530756 -0.0228626 
-1.36456e-17 4.06366e-18 1 

-0.240302 0.159441 0.763722 
-0.0532994 0.180347 0.543148 
-4.97996e-18 8.71493e-18 1 

-0.566672 0.252946 -0.305113 
-0.355169 0.219761 -0.753676 
6.80521e-18 5.57693e-18 1 

-0.0583957 0.00928463 -0.182634 
-0.00276828 -0.058665 -0.0319802 
-5.16138e-18 -7.04413e-19 1 

-0.0900052 -0.0247569 0.0771305 
-0.0398799 -0.0752656 0.286115 
-9.52425e-18 -6.89687e-18 1 

-0.308149 0.0285218 1.28259 
0.0515973 0.21928 -0.333524 
4.3342e-18 2.36465e-18 1 

-0.214478 0.0720283 0.230522 
-0.00340565 0.0147643 0.121726 
-1.348e-17 4.47183e-18 1 

-0.0919064 0.00581607 0.425779 
-0.0118054 -0.0409679 1.09811 
9.55509e-18 -8.39568e-18 1 

-0.0887925 -0.130165 -0.228955 
0.0705025 -0.00808964 -0.196545 
-2.33291e-18 -1.35958e-18 1 

-0.0623856 -0.0274893 -0.0672879 
0.0478039 -0.128075 -0.0652063 
9.34242e-18 2.28794e-18 1 

-0.129534 -0.0142582 -0.0405699 
0.0226009 -0.0810313 0.0278794 
4.10299e-18 -5.59499e-19 1 

-0.160635 -0.247414 0.0866781 
0.0668572 -0.0661878 0.00233507 
-2.37129e-18 5.53301e-18 1 

-0.105431 0.0497069 0.264574 
-0.100792 -0.0753701 0.268184 
-1.48707e-18 -2.25069e-18 1 

-0.132984 -0.0322351 0.083116 
0.0716203 -0.00560797 0.0910182 
9.41952e-18 2.36335e-18 1 

-0.285693 0.0426575 0.520327 
-0.105381 0.222795 1.23796 
4.98724e-18 -1.10444e-18 1 

-0.585635 0.158835 11.5946 
-0.0919956 0.352301 2.93814 
-1.81996e-18 -5.3442e-18 1 

-0.19129 -0.133609 4.0428 
0.212643 0.0602771 4.68557 
-3.16914e-18 7.92285e-18 1 

-0.091481 -0.0258129 -0.11969 
0.0257514 -0.0216588 0.324739 
-7.96139e-18 -1.32328e-17 1 

-0.112537 0.126934 -0.128631 
-0.0901005 0.0355492 0.0467902 
-1.47545e-17 -6.66076e-18 1 

-0.130271 -0.00171777 1.16013 
0.0514097 0.022346 -1.13565 
4.32366e-18 -3.30298e-18 1 

-0.163721 -0.0298032 0.714874 
-0.0695741 0.0249123 -0.0391701 
-7.31987e-18 6.64523e-18 1 

-0.0695529 0.00554814 -0.240561 
0.000201836 -0.0860822 -1.49783 
-1.64435e-18 -4.00755e-18 1 

-0.497329 0.836948 -0.88525 
-0.10724 0.35607 1.46645 
-1.9734e-18 1.30642e-17 1 

-0.0743214 -0.00278946 -0.309711 
-0.0192695 -0.161875 0.38276 
1.23311e-17 -8.32633e-18 1 

-0.0370673 0.0475909 0.131814 
0.173644 -0.0831871 -0.465953 
-4.00735e-18 2.52845e-18 1 

0.261471 -0.855673 -1.20917 
0.878939 0.410051 -0.315329 
-1.7787e-17 8.82035e-18 1 

-0.199232 -0.000483273 -0.0786059 
0.000520659 -0.0190633 0.08216 
-2.00005e-17 -1.99589e-18 1 

-0.0540477 -0.0725273 0.0380465 
-0.00689811 -0.13528 0.276887 
-1.78915e-19 8.88611e-18 1 

-0.167278 -0.0543489 -0.726778 
-0.120681 0.0808882 -0.42504 
-4.71554e-18 2.04479e-18 1 

-0.0971889 0.0228931 -0.348135 
0.00924004 -0.0084117 -1.23276 
1.51343e-18 -2.51496e-18 1 

-0.0856407 -0.0155678 0.246008 
-0.0829818 0.059188 -0.127843 
-1.41254e-17 -6.49518e-19 1 

-0.0718808 -0.0373449 0.186015 
0.162081 -0.046863 0.00901751 
3.10602e-18 6.8132e-18 1 

-0.127753 0.00295851 1.4622 
-0.0406684 0.00660714 0.217666 
1.39953e-18 -5.38429e-18 1 

-0.152132 -0.0353566 -0.0371208 
-0.0925658 -0.0343518 -0.128482 
-1.56676e-17 -1.64546e-17 1 

0.00319586 0.0575526 -0.0221802 
-0.136451 -0.0233639 0.120867 
1.73235e-18 2.64493e-18 1 

-0.545777 -0.0541858 0.201887 
0.0400351 0.13861 -0.0938296 
-5.11132e-18 1.99142e-17 1 

-0.056046 -0.0153186 0.0138867 
0.0141698 -0.0699602 0.347138 
-1.04354e-19 3.25104e-18 1 

-0.0767582 -6.5216e-05 -0.0610372 
-0.0457149 -0.104501 -0.112609 
2.27901e-18 -5.19373e-18 1 

-0.0818855 0.00915452 -0.0230255 
-0.0404985 -0.0374213 0.0603721 
-1.9643e-18 -7.05921e-19 1 

-0.495449 -0.0298009 -10.4004 
0.130401 0.171639 -3.82259 
8.61654e-19 6.99642e-18 1 

-0.0451695 0.0343281 -0.0269583 
-0.0356865 -0.117528 0.00919428 
-6.49726e-18 7.46929e-18 1 

-0.13462 0.053404 -0.224889 
-0.00177429 0.0622218 0.192343 
-5.47585e-18 1.56062e-17 1 

-0.882454 0.0463223 -0.795755 
0.350822 0.419153 0.352489 
5.74786e-18 3.11926e-18 1 

-0.0642734 -0.134369 0.20679 
-0.0801719 -0.0405294 -0.0895054 
-5.16718e-18 -7.92302e-18 1 

-0.0343241 0.240433 1.19405 
0.249258 -0.172871 -0.271986 
9.62737e-18 4.8754e-18 1 

-0.0965712 -0.0488564 -0.0818212 
0.0249052 -0.0147157 -0.0195138 
-2.00046e-17 0 1 

-0.136854 0.0548601 0.116537 
-0.0237206 -0.0324768 -0.00977453 
-1.0925e-17 -6.69207e-18 1 

-0.100963 -0.00591564 1.60243 
-0.0479754 -0.0885006 -0.173543 
1.39713e-17 2.92247e-18 1 

-0.0250251 -0.0601955 0.134908 
-0.0467563 -0.046232 0.797604 
1.11891e-17 -4.33478e-18 1 

-0.251569 0.360159 1.46518 
-0.13642 0.228327 0.509498 
3.6128e-18 5.3077e-18 1 

-0.0767175 0.0924602 -0.182364 
-0.00439946 -0.0650548 -0.121218 
3.06676e-18 3.82524e-18 1 

-0.038744 0.0382701 -0.00280666 
-0.0174266 -0.142026 -0.00666178 
1.19565e-17 1.14744e-17 1 

-0.0753289 -0.0146149 -0.228285 
-0.0278985 -0.0460116 -0.0405642 
6.20283e-18 -1.24125e-17 1 

-0.0760054 0.171571 -0.127078 
0.0451997 0.0915447 0.211323 
-9.18576e-18 -3.27765e-17 1 

-0.111818 -0.111062 -0.222409 
-0.0214852 -0.00726759 -0.145118 
3.41259e-18 8.22124e-19 1 

-0.0868405 -0.0921976 -0.274329 
-0.00242652 -0.043482 -0.113117 
1.57853e-18 -2.83105e-19 1 

-0.744458 -0.059884 -0.942156 
0.062987 0.210083 0.0286593 
2.80008e-18 9.11194e-18 1 

-0.112368 0.00107396 -0.10836 
0.0306785 0.0377621 -0.137889 
1.85246e-18 -2.05455e-17 1 

-0.11452 0.0778362 0.424093 
-0.0486335 -0.0250953 -0.121468 
-5.43944e-18 1.45052e-17 1 

-0.464237 0.469225 0.172659 
-0.287817 0.0766377 -0.147705 
8.43126e-18 4.01305e-18 1 

-0.146974 -0.191144 -0.129343 
0.255253 0.0821302 -0.405569 
-4.58213e-18 -5.6513e-18 1 

-0.106918 0.00943429 -0.103139 
-0.0557965 -0.0915986 0.500576 
1.30708e-17 3.40249e-18 1 

-0.177455 0.0469637 -0.101494 
-0.108715 -0.0719631 -0.147913 
7.76962e-18 -1.15641e-17 1 

-0.628431 1.09885 1.88193 
0.172065 0.425075 0.996215 
2.68972e-18 1.31918e-17 1 

-0.0554293 0.00745169 0.0789327 
-0.00932558 -0.0641957 -0.0308681 
-1.01821e-17 -1.10432e-17 1 

-0.346433 0.214474 0.689769 
-0.115346 0.169525 0.776641 
-2.35269e-18 4.16244e-18 1 

-0.0840639 0.0255392 0.0605854 
-0.0276596 -0.0497563 -0.122158 
4.10618e-18 -9.08391e-18 1 

-0.0833938 -0.00476062 -0.564244 
0.0254187 -0.0382367 -0.315509 
-9.13607e-19 3.6832e-18 1 

-0.0314975 0.0218369 0.04745 
-0.0537566 -0.114229 0.0342223 
-1.95214e-17 -9.22531e-18 1 

-0.855912 1.1924 -3.94176 
0.518342 0.109164 -1.9208 
-7.2304e-18 -2.74029e-18 1 

-0.112801 0.0643398 0.1091 
-0.0280856 0.000625357 -0.153245 
1.32668e-18 9.70369e-18 1 

-0.377503 0.34172 0.799081 
-0.281783 0.160105 -0.00440953 
-7.98059e-18 -5.24439e-19 1 

-0.271823 -0.221955 0.259571 
0.396509 0.199913 0.0467235 
-1.85165e-17 1.53814e-17 1 

-0.266448 -0.21877 -0.629544 
0.200266 0.00565416 0.655943 
-1.33617e-17 4.11558e-18 1 

-0.0585771 -0.1212 0.0584246 
0.0420941 -0.00627634 -0.0717799 
4.23568e-18 3.6793e-18 1 

-0.0607999 0.00202099 0.0912799 
0.0183224 -0.0253291 0.0848554 
-5.02734e-18 -4.61972e-18 1 

-0.168279 -0.0123086 0.0611942 
-0.114556 0.00541062 0.310737 
-4.96713e-18 -1.33717e-17 1 

-0.240668 -0.0358023 0.183159 
0.0803247 0.0108108 0.216614 
-5.50717e-18 -4.99724e-18 1 

-0.130707 0.233268 0.476759 
-0.268266 0.0761481 -0.354301 
8.9949e-18 -7.86008e-18 1 

-0.458194 2.10351 1.71948 
0.0482469 0.0520018 -2.04455 
1.3184e-17 5.29953e-17 1 

-0.108816 0.0190125 0.407093 
0.0152575 -0.0758003 -0.139491 
-5.68425e-18 -1.19714e-17 1 

-0.149875 0.0331282 -0.149836 
-0.00672586 -0.0509717 -0.0646324 
4.75017e-18 -1.15319e-17 1 

-0.100868 0.039246 0.0972916 
0.00126651 -0.0684589 0.500557 
-1.21712e-18 2.74902e-18 1 

-0.0930153 -0.0867854 -0.106195 
-0.00525413 -0.0609318 0.153906 
1.60619e-17 7.95447e-18 1 

-0.33499 -0.0712948 0.262951 
0.129803 0.104376 0.185389 
-3.44715e-19 2.58536e-18 1 

-0.622722 -0.179332 1.38214 
0.247521 0.278269 -0.535516 
-1.58296e-17 6.78726e-19 1 

-0.137403 -0.0370155 0.132173 
-0.0201011 0.00337171 0.104643 
-3.97719e-18 4.09417e-19 1 

-0.064201 0.0391639 -0.208716 
0.0243307 0.00301756 0.0227997 
-1.97246e-18 -2.91386e-18 1 

-0.140042 0.150324 -0.162443 
0.0115872 -0.0529678 0.270885 
-3.18487e-17 -4.29087e-17 1 

-0.116121 0.0437321 -0.0358772 
-0.0149508 -0.0343352 0.0115428 
-9.13532e-18 -2.0345e-18 1 

-0.652959 -0.211362 0.66701 
0.749305 0.443141 -0.0458559 
7.70349e-18 -2.96288e-19 1 

-0.513252 0.4021 0.427593 
0.1085 0.210101 0.381152 
7.14612e-18 1.30389e-17 1 

-0.0579185 -0.101487 -0.0113383 
-0.0160214 0.0034372 0.0330141 
-8.0695e-18 -6.77889e-18 1 

-0.0841093 -0.0151219 -0.215693 
0.0250472 -0.0253893 -0.387021 
-2.56875e-18 3.90305e-18 1 

-0.143719 -0.272367 -0.347469 
0.204901 0.0383906 1.93412 
4.01295e-18 -1.02788e-17 1 

-0.0823878 -0.0428114 0.526706 
0.0272338 -0.0795687 1.53752 
1.37468e-17 1.38577e-18 1 

-0.0515906 -0.198072 0.00166131 
0.193301 0.0295077 -0.0455203 
-1.74473e-17 1.07623e-18 1 

-0.0742616 -0.0263007 -0.0615813 
0.00747843 -0.0927107 0.56658 
7.00128e-18 3.39254e-18 1 

-0.152743 0.228477 0.0237285 
-0.270356 -0.0498562 -0.124554 
1.32168e-17 -6.85091e-18 1 

-0.367404 0.490033 0.143747 
-0.448505 0.155457 -0.093423 
1.78986e-17 -5.22963e-18 1 

-0.0990239 -0.0205933 0.406859 
-0.032699 -0.0374934 0.0496574 
-4.94433e-18 3.45572e-18 1 

-0.115647 0.0344106 0.0937921 
0.0260989 -0.104342 -0.0234276 
-1.7654e-17 1.02062e-17 1 

-0.160228 0.0130376 -0.0841499 
0.0346249 -0.0641797 -0.294061 
2.28762e-18 1.70572e-17 1 

-0.131609 0.066506 -1.00653 
0.0152014 -0.0271587 -1.01874 
-4.39384e-19 -2.29107e-18 1 

-0.0786 0.0308184 -0.136688 
-0.0037373 -0.0629946 -0.808452 
-3.76043e-18 -2.41341e-18 1 

-0.0552598 0.0316878 0.0456223 
0.0156565 -0.137935 -0.0301711 
2.05947e-17 1.01042e-17 1 

-0.349464 0.125155 1.18118 
0.0101841 0.258913 0.158184 
-6.11085e-19 -7.07112e-18 1 

-0.197001 -0.0968882 0.149628 
0.0175488 0.0776834 0.289838 
-4.63835e-18 -6.45709e-20 1 

-0.0711785 -0.0380151 -0.410452 
0.0497702 -0.0279606 -0.178296 
7.04633e-18 -8.15543e-18 1 

-0.158333 0.151123 0.128774 
0.022477 0.123566 -0.171235 
2.39974e-18 3.01785e-18 1 

-0.132771 0.0464694 0.229496 
0.0576784 0.0812463 0.201421 
-4.05976e-18 -1.53199e-19 1 

-0.182592 0.135553 0.129405 
-0.0895481 0.0288913 -0.101571 
-5.67146e-18 1.6028e-17 1 

-0.085442 -0.000909879 -0.19089 
-0.00863931 -0.00727215 -0.124102 
-1.1755e-17 -4.73068e-18 1 

-0.32987 0.110663 -0.0102538 
0.139257 -0.198443 0.228921 
-7.54395e-18 -6.70573e-19 1 

-0.425507 0.357478 -0.467368 
-0.374437 0.127865 0.468309 
-7.50376e-18 1.28796e-18 1 

-0.0700315 0.0298171 -0.0149071 
-0.0697448 -0.00445529 -0.122347 
-8.27949e-18 -2.52984e-18 1 

-0.176924 -0.0965514 -0.257363 
0.0344347 0.0934838 0.56964 
-1.80525e-18 -1.35394e-18 1 

-0.086801 -0.00242021 -8.26284 
-0.0089135 -0.0442047 2.09278 
6.33962e-19 2.57948e-18 1 

-0.0851139 0.0389422 -0.179576 
-0.0233517 -0.134319 -0.0139606 
-8.87768e-18 -1.22261e-17 1 

-0.0692374 -0.00459928 -0.0328846 
-0.086845 -0.0423979 -0.153418 
-1.01179e-17 5.76111e-19 1 

-0.14442 0.104925 -0.134538 
-0.0222235 0.0812653 -0.185973 
-1.29982e-17 8.66151e-18 1 

-0.0489431 -0.305053 -0.0372274 
0.250701 0.0272449 -0.105962 
2.25642e-18 -4.84117e-18 1 

-0.068916 0.0356362 0.176715 
-0.00778147 -0.0580913 0.268385 
-2.17806e-19 -1.19657e-17 1 

-0.313497 0.0683746 0.572801 
0.0306592 0.110231 -0.548567 
2.31156e-17 -2.25842e-18 1 

-0.256833 -0.0572683 0.0972631 
0.236379 0.130088 -0.233798 
-2.755e-18 4.8606e-18 1 

-0.0636815 -0.0269809 1.29075 
0.0934419 0.00575386 1.37262 
-5.33941e-18 3.91598e-19 1 

-0.355231 0.296271 0.577518 
0.0557862 0.00836625 -0.45479 
1.49482e-17 3.69133e-18 1 

-0.249354 -0.0331939 0.13065 
-0.177729 0.137589 -0.153739 
-3.65233e-18 6.08721e-18 1 

-0.0909923 -0.0286004 -0.0118908 
-0.0512494 0.0154992 0.164207 
-2.71447e-18 1.09047e-17 1 

-0.623602 0.295665 -0.610801 
0.260278 0.196025 -2.67945 
-5.63228e-18 6.53162e-18 1 

-0.0984505 -0.022436 0.283939 
0.0871547 -0.00786184 -1.75496 
-4.34748e-20 1.56509e-18 1 

-0.132276 -0.0337672 -0.142949 
-0.0281547 -0.0560049 0.224275 
-7.23099e-18 -8.15259e-18 1 

-0.048926 -0.0364391 0.113361 
-0.0117448 -0.0902679 -0.0279049 
-3.08128e-18 -2.47842e-18 1 

-0.15019 0.0136425 -0.0499113 
-0.016272 -0.0462624 -0.0998653 
8.05994e-18 8.16646e-18 1 

-0.0579442 -0.0246726 -0.108368 
0.0431063 -0.0293942 -0.00749666 
-8.72083e-18 -9.21076e-18 1 

-0.0442376 -0.118239 -0.376052 
0.150532 0.00542173 -0.423445 
2.96794e-18 -5.66238e-18 1 

-0.0472332 -0.0253227 0.174253 
0.0651187 -0.0209816 0.227248 
5.03482e-18 5.99384e-19 1 

-0.0513809 -0.0145398 0.386819 
-0.00960682 0.0153722 0.300581 
7.65257e-18 4.60716e-18 1 

0.0565177 -0.953041 -1.40901 
0.514164 0.325407 1.13326 
-1.21922e-17 -9.68036e-18 1 

-0.497616 0.00843881 -0.771128 
0.413036 0.0207888 0.711397 
-2.54422e-18 -1.22389e-17 1 

-0.0764991 0.0417999 -0.0404352 
-0.0572192 -0.084366 -0.284268 
-4.72016e-18 1.33023e-17 1 

-0.112946 -0.116335 0.0899972 
0.1251 -0.0116988 -0.0218801 
9.62804e-18 -5.7613e-18 1 

-0.131245 -0.0304056 -0.36794 
-0.0675976 -0.0252243 -0.181492 
-1.44834e-17 1.45755e-17 1 

-0.08682 -0.0477527 3.62727 
0.0218311 -0.00518829 2.03476 
6.20217e-18 -7.49167e-18 1 

-0.123331 -0.00405391 -0.0127331 
0.0823135 -0.021778 -0.206718 
-4.15915e-18 9.95015e-18 1 

-0.136392 -0.0428841 0.352154 
-0.0207701 -0.0327898 0.657147 
1.77291e-19 -2.79754e-18 1 

-0.10027 -0.0222075 -0.351555 
-0.00337938 -0.0238905 0.27243 
-8.42682e-18 8.27471e-18 1 

-0.0793674 0.0429636 0.0820014 
-0.041293 -0.024275 0.872403 
-9.31763e-20 1.3992e-17 1 

-0.185882 -0.065466 -0.257503 
-0.00669952 0.036038 0.262968 
-1.07372e-17 1.53489e-17 1 

-0.153331 -0.0207122 0.356691 
-0.132555 0.0534758 0.979151 
-9.14875e-18 -1.71328e-18 1 

-0.0794096 -0.00339036 0.0213691 
-0.0040953 -0.00757382 0.389516 
-2.68817e-18 5.96665e-18 1 

-0.210873 0.0980132 -5.30515 
0.153397 0.265696 -0.596508 
-3.37319e-18 -7.95903e-18 1 

-0.552174 -0.142995 0.633216 
0.103876 -0.0372147 2.1549 
-5.06198e-19 -5.48381e-19 1 

-0.195603 0.0405743 1.39561 
-0.14896 0.0245642 -1.84796 
6.69079e-18 -1.69566e-17 1 

-0.790153 3.96322e-05 0.054198 
-0.390336 0.281699 0.320003 
1.98505e-17 -7.03954e-18 1 

-0.327439 -0.299417 -2.65296 
0.246712 0.232675 2.11679 
6.66516e-18 6.38154e-18 1 

-0.19912 0.0277866 -1.52891 
-0.0396639 0.361806 -31.4717 
-2.61647e-19 2.59661e-17 1 

-0.165879 0.0775395 -0.551346 
-0.105565 -0.0298242 0.474518 
-5.89342e-18 -1.17093e-17 1 

-0.965235 -0.778652 -0.310605 
0.746149 0.279643 1.05624 
-1.53603e-17 -8.42942e-19 1 

-0.0475472 -0.00600864 -0.00788054 
0.0167652 -0.0702728 0.115755 
-1.6605e-18 -1.54294e-17 1 

-0.081932 0.00802947 0.186759 
-0.0831268 -0.030781 -0.0790174 
-5.1298e-18 -1.79712e-18 1 

-0.0427006 -0.0592048 -0.0752229 
-0.00802847 -0.106441 0.159497 
-4.57442e-18 2.98012e-18 1 

-0.0963116 0.01651 0.239255 
0.00164073 -0.0779701 -0.0859117 
1.70062e-18 4.25156e-18 1 

-0.0608953 0.00674727 0.0183959 
-0.000466441 -0.0565221 0.111821 
-9.06354e-18 5.82981e-18 1 

-0.0794259 0.0207075 -0.09187 
0.040498 -0.0107735 0.0137815 
4.5426e-18 5.16472e-18 1 

-0.0831061 0.0121093 0.375499 
0.134575 -0.0901826 -0.849738 
1.30519e-17 -4.35062e-18 1 

-0.30397 0.186774 -0.667344 
-0.122708 0.188166 0.668856 
1.06906e-17 -4.50132e-19 1 

-0.1112 0.0115056 -0.0349987 
0.0479368 -0.0290623 -0.279447 
2.24495e-18 2.36367e-18 1 

-0.0889354 0.0362343 -0.321742 
-0.041374 -0.0326657 0.32793 
1.0302e-17 -1.53882e-17 1 

-1.0701 0.554206 27.7929 
-0.247136 0.430166 10.6419 
8.22633e-18 5.35364e-18 1 

-0.101384 -0.000720181 -0.00938154 
0.00185667 -0.0487129 -0.132427 
5.77557e-18 2.05739e-18 1 

-0.0633085 0.0510915 -0.147052 
-0.0284417 -0.0292946 0.308369 
-2.27125e-18 -5.25973e-18 1 

-0.204376 0.0365357 -0.228159 
-0.0151212 -0.0531066 -0.0861235 
-1.5673e-17 5.62766e-19 1 

-0.108681 0.0148231 0.434754 
-0.0563066 0.0235167 0.141569 
-9.98328e-18 -1.21747e-19 1 

-0.282219 0.0311252 1.21629 
-0.149451 -0.00703955 -0.0207683 
-1.86772e-18 -1.12452e-17 1 

-0.0682755 -0.0347651 -0.0399531 
-0.0334041 -0.0697528 0.0941174 
-9.63236e-18 -5.14042e-18 1 

-0.0914344 0.00676551 0.0764642 
0.0102098 -0.0612843 2.9748 
6.63705e-18 2.1599e-18 1 

-0.132396 -0.121163 0.0370035 
0.150934 -0.0404795 -0.379298 
-3.81169e-18 4.25942e-18 1 

-0.115454 -0.00538137 0.112064 
-0.061128 -0.0496539 0.130526 
-8.90654e-18 -9.95437e-18 1 

-0.0871743 -0.0470139 0.333841 
-0.0468979 -0.0532773 0.351736 
9.72125e-18 6.29893e-18 1 

0.0434153 -0.775612 -0.805815 
0.703798 0.381368 -1.34681 
-1.11899e-17 2.79748e-18 1 

-0.0882208 -0.0240455 0.361103 
-0.0118748 -0.0451672 -0.230364 
-3.87594e-18 7.61056e-18 1 

-0.398154 0.0564265 -0.105756 
0.0296118 -0.0109408 0.165664 
-6.92968e-18 -2.47945e-17 1 

0.0278931 -0.533986 -0.143496 
0.649103 0.139231 -0.159775 
-7.09103e-18 5.41676e-18 1 

-0.0858624 -0.0890199 -0.0494041 
0.0569982 -0.0564629 0.0407421 
3.52951e-18 1.59801e-19 1 

-0.765582 -1.12229 0.630651 
0.166329 0.428505 -0.742354 
-1.93953e-17 -1.28358e-17 1 

-0.20125 -0.215884 0.0366436 
0.109153 0.0797778 -0.223164 
-3.56267e-18 -5.88932e-18 1 

-0.450802 0.206376 -0.329588 
0.082924 0.161895 0.298641 
-6.3981e-19 5.95823e-18 1 

-0.124578 0.079653 0.109871 
-0.0799805 0.0172438 -0.191924 
8.42769e-18 6.81387e-18 1 

-0.0741934 0.16337 -0.879384 
-0.180369 -0.0330921 -0.589596 
9.64333e-18 5.89082e-18 1 

-0.0533556 -0.00557376 0.102294 
-0.0581955 -0.0305193 -0.484399 
4.77362e-18 -5.20759e-18 1 

-0.135395 -0.0235693 0.0445257 
-0.054173 -0.0386729 0.188983 
2.25179e-18 5.87967e-18 1 

-0.123564 -0.0651082 -0.045909 
0.163537 0.0155053 -0.244977 
-8.10742e-18 -5.92779e-18 1 

-0.0670548 -0.108412 0.433721 
0.0923344 -0.0374437 0.701669 
-7.80145e-18 -1.0124e-17 1 

-0.0709408 -0.0137719 0.0422553 
0.00615197 -0.0490832 -0.0105126 
-6.40541e-18 -4.96194e-19 1 

-0.458313 -0.242041 -0.21112 
0.064543 0.172544 0.285374 
-2.8441e-18 -7.05398e-18 1 

-0.441925 -0.151922 -0.287099 
-0.0742407 0.16114 0.36047 
-1.89204e-18 1.70284e-17 1 

-0.140461 0.172357 -0.316948 
0.0755713 0.0721609 -0.254613 
-1.58671e-17 -3.65214e-18 1 

-0.0825335 0.0292196 0.114765 
0.0250446 -0.0244936 -0.172464 
1.01955e-18 -5.72518e-18 1 

-0.0762843 -0.00767014 0.0433078 
0.0296992 -0.00141257 0.367847 
-1.54493e-18 -7.74351e-18 1 

-0.0762239 -0.0251633 0.131411 
0.0447548 0.00972324 -0.268919 
7.83105e-19 5.69926e-18 1 

-0.445246 0.103265 0.380157 
0.391418 -0.0696159 2.48986 
5.22761e-18 -7.80058e-18 1 

-0.271525 0.117753 0.325065 
-0.184927 0.168791 -0.451654 
-1.49552e-18 -3.2403e-18 1 

-0.0483446 -0.0276041 -0.0156918 
-0.0223986 -0.0357192 0.182062 
-1.90064e-18 4.22759e-18 1 

-0.141549 0.00662553 -0.336055 
0.00823083 -0.0377734 -0.481789 
-4.07726e-18 -1.63664e-17 1 

-0.0934904 0.0153696 0.240092 
0.146277 -0.00824281 0.597321 
-8.14667e-18 6.7746e-18 1 

-0.083155 0.00366767 -0.207712 
-0.0129354 0.00982841 0.165599 
-2.07443e-18 -8.45758e-18 1 

-0.493324 -0.133762 -0.810294 
0.0211701 0.193793 -1.42919 
3.94189e-18 -1.40562e-18 1 

-0.203342 0.170719 -0.645119 
-0.0466889 0.136735 -0.571899 
5.75723e-18 -1.75863e-18 1 

-0.0870728 -0.00176056 0.0398868 
-0.00418976 -0.158311 0.0542507 
6.65411e-18 4.0549e-17 1 

-0.103498 -0.140415 -0.125851 
0.0785393 0.000803843 -0.0261333 
-1.69603e-17 -3.18537e-18 1 

-0.13556 -0.408265 52.2652 
0.0209867 0.282964 -22.7915 
1.20882e-18 3.27485e-18 1 
