# vtk DataFile Version 3.0
Output file generated by Yade's KinematicLocalisationAnalyser
ASCII
DATASET UNSTRUCTURED_GRID

POINTS 13483 float
470.726 50.9676 -0.443132
569.195 61.367 -0.527273
109.637 6.15328 0.452734
595.011 16.2653 0.476121
407.186 23.615 0.37123
282.457 46.3832 0.594852
143.186 7.26016 -0.454689
463.368 10.7896 0.242998
406.126 48.166 -0.144774
540.259 34.7448 -0.442135
191.298 8.91296 -0.0935524
233.954 6.76964 -0.275434
499.537 64.022 -0.140996
491.475 40.7997 -0.075414
125.758 19.5067 0.455376
204.403 37.3294 -0.161306
198.602 13.2627 0.275409
261.39 12.5784 0.531171
299.945 51.9388 0.48755
423.757 9.83078 0.373494
359.072 55.3075 0.0968071
454.16 60.932 -0.284064
590.314 53.5778 0.547424
544.686 97.2855 0.425224
387.702 22.4601 0.330978
220.468 52.1953 0.122546
406.133 55.4076 -0.470682
472.309 22.8405 0.264514
39.3322 16.4407 -0.492009
544.807 75.8432 -0.334442
405.668 4.80645 0.498978
16.7424 26.3654 0.308122
578.298 72.8723 -0.261675
405.25 16.9156 0.457862
69.928 48.3064 0.102554
419.7 39.3813 0.379285
430.096 16.7588 -0.496149
303.205 32.2395 0.19676
433.398 28.2254 -0.30088
306.662 50.0287 0.482643
220.136 14.9275 0.330545
370.875 51.6604 -0.0627369
518.227 19.471 0.130529
174.35 6.16186 -0.554234
50.155 8.74944 0.0778894
60.7885 9.37443 0.250572
525.822 32.392 0.535361
21.3519 11.8879 -0.320987
450.491 77.437 0.393804
513.551 52.6731 -0.308138
155.324 36.2865 -0.30507
569.231 48.1523 0.123708
30.4976 33.1221 0.125979
432.139 2.51729 0.570042
130.54 7.2428 0.513729
462.77 47.7473 -0.435671
408.357 49.917 0.122727
160.774 1.39103 0.301602
30.8037 2.33639 -0.356155
307.585 24.3919 0.305475
462.154 85.453 0.131391
395.741 57.298 -0.182279
345.029 2.51247 0.345367
533.898 31.9195 0.5294
21.9253 50.4303 -0.235738
235.638 37.134 -0.322055
536.953 25.7293 0.239316
513.651 86.7949 -0.277014
359.405 10.3565 -0.634245
463.599 3.68361 -0.503097
552.535 35.5376 0.518909
119.999 8.09055 -0.276888
409.623 53.3666 0.120795
392.939 30.9236 -0.105779
267.284 18.9175 -0.37718
19.1677 14.3242 0.262337
587.579 74.8337 0.33383
294.768 59.8913 -0.403445
511.785 48.0187 0.349969
522.201 35.8332 -0.273659
585.196 19.3837 -0.370598
396.65 61.3158 -0.20004
83.8626 42.4988 0.263273
534.827 84.7098 -0.207149
492.122 76.0064 0.0933173
591.241 65.352 0.130004
587.836 0.644592 0.718142
264.537 30.7639 0.413688
491.297 26.3382 0.0729694
23.1988 5.79157 -0.649348
122.521 41.9078 0.180554
419.896 19.9444 0.299235
574.583 35.8323 0.609356
179.518 30.4181 0.248701
37.8974 38.27 0.319472
413.795 1.04406 0.242859
216.307 8.52333 -0.451241
567.799 76.4131 -0.330805
566.881 35.1267 0.278585
316.314 27.1495 -0.244784
148.151 30.6045 0.454601
436.031 52.6998 -0.463388
331.676 19.0152 -0.506725
357.287 40.2307 -0.0978105
328.779 6.91595 0.618281
446.189 11.8063 -0.130914
592.694 30.1615 0.279044
72.4135 43.0477 -0.460036
299.348 6.12758 -0.196553
457.312 11.0064 -0.538077
321.234 54.4846 0.56671
21.9356 29.2193 0.466214
28.4124 5.84046 -0.32404
445.171 53.6874 0.543683
410.089 41.3695 0.147587
20.9321 44.5168 -0.41143
85.5435 34.4958 -0.217219
291.661 18.9505 0.363959
474.494 37.3327 -0.138879
403.413 71.3576 0.151312
537.02 7.17794 -0.536611
532.461 10.1183 -0.206958
344.538 47.1085 -0.110403
487.094 55.2375 0.109121
218.43 18.5859 0.491916
296.047 5.71102 0.590135
94.0597 34.9986 0.350855
106.309 25.8765 0.271585
436.865 48.8535 -0.0759359
280.971 20.5076 0.508499
543.332 77.5745 -0.119022
518.051 87.8441 0.116343
395.871 39.6886 -0.374581
572.995 12.9087 0.312775
368.124 33.8708 0.246323
251.918 27.5191 -0.303815
515.999 72.6163 -0.280713
254.601 34.9292 0.396078
472.941 11.6236 -0.204614
295.556 54.9132 0.186937
414.574 21.81 0.553969
323.448 39.6097 0.0812063
368.832 20.7964 0.128273
282.265 54.9471 -0.415372
175.768 31.7132 -0.122679
572.966 63.7161 -0.207554
589.759 31.7148 -0.366603
5.98327 12.9159 0.449818
368.314 28.1564 -0.459911
33.5606 24.3809 -0.0818175
335.313 38.6361 -0.46472
346.562 32.913 -0.265579
67.5987 12.1356 0.508921
45.3441 35.8471 0.479413
208.373 13.5392 0.490633
465.402 78.6918 -0.146039
469.075 24.7439 -0.486817
69.2298 21.4829 0.483142
546.48 101.509 -0.404765
562.887 3.98453 -0.566696
506.855 79.7907 -0.474772
524.867 14.6122 -0.497354
448.777 30.1753 -0.450469
455.697 60.0315 -0.451072
418.935 27.5981 -0.387041
594.675 11.8685 -0.499936
207.603 25.1304 -0.117393
118.272 38.738 0.187696
227.868 8.08165 -0.531038
86.5009 4.5348 -0.29028
58.061 11.621 0.179979
255.889 42.6177 -0.299564
15.2757 28.3927 -0.349367
454.577 21.4829 0.526279
454.878 71.9006 -0.193618
390.792 28.5783 -0.44605
595.772 83.2298 0.362999
352.63 10.8119 -0.240105
375.989 46.9636 -0.504155
439.582 3.52283 -0.285912
19.6721 27.1301 -0.418869
475.378 4.1851 0.554836
447.46 3.96117 -0.296613
189.694 11.4476 0.519184
367.391 17.163 -0.224899
282.778 6.24467 0.413643
341.29 25.3131 -0.43492
558.301 64.866 0.106549
178.113 27.3221 0.423096
580.446 6.21208 0.42551
556.096 57.4222 0.475046
336.301 12.217 0.309671
526.286 3.31161 0.611835
476.531 50.7233 -0.455452
546.189 19.9225 -0.436762
378.434 60.8152 0.319189
410.95 27.6067 0.396887
393.974 72.5182 0.220439
382.994 14.0657 -0.360815
510.717 80.587 0.2588
509.91 76.6103 0.338675
178.24 41.015 -0.343273
585.938 16.6686 -0.221654
455.709 54.1424 -0.30263
12.0742 17.5773 0.170683
355.79 33.9346 0.366158
172.641 25.3561 0.40458
85.4813 43.5552 0.225751
571.091 28.6791 0.544203
504.373 86.1287 -0.245485
292.433 33.878 0.34218
436.958 10.2706 0.330376
75.1013 48.397 -0.183597
229.199 28.9783 -0.469316
454.594 30.9589 0.430915
401.253 40.0079 0.447471
242.416 0.873546 -0.432783
435.512 62.7754 -0.440171
435.074 43.1095 0.336945
413.643 69.039 0.37869
413.719 6.41806 -0.665679
528.033 54.9132 0.433423
165.813 13.6523 0.213894
426.33 69.545 0.566009
442.212 73.5566 -0.13414
66.118 0.974191 -0.316979
232.45 5.0896 -0.234047
588.576 33.1877 0.32231
585.205 21.2587 -0.626024
594.406 35.8608 -0.522671
275.608 8.30898 -0.408983
551.137 25.3517 -0.463272
355.945 68.1237 0.308649
387.073 0.774482 0.630154
497.783 74.1624 0.439147
20.8161 38.1749 0.310031
296.528 62.2281 -0.0460818
233.36 3.33361 0.457483
581.419 75.893 0.189956
558.306 82.0014 0.263047
263.206 14.0851 0.321814
511.082 70.071 0.0948528
459.272 2.51744 0.240544
445.538 6.91027 0.623828
89.6727 18.8113 -0.497201
275.387 0.936387 0.267067
308.188 4.19999 -0.34832
13.4099 7.84661 0.591194
4.64299 31.6911 -0.25774
149.577 19.8194 0.33107
61.5798 44.5224 -0.228002
61.3103 31.2907 -0.323389
367.998 15.4597 -0.439717
328.254 40.8899 -0.519191
567.228 49.1446 -0.128959
18.8248 3.98654 0.284369
63.7362 7.33405 -0.172667
473.279 77.0608 -0.15786
268.629 0.917399 0.399905
322.826 22.1185 -0.0878907
218.728 4.68552 -0.375614
502.306 51.6866 -0.191294
386.575 10.4493 0.490709
552.718 22.0279 0.426732
485.941 58.7388 0.302665
513.328 43.5399 0.0826451
363.117 36.0464 0.463866
95.205 48.3353 0.326841
432.122 52.7786 0.0840992
541.864 12.4967 0.268039
223.257 35.2195 -0.223313
27.9408 22.6068 0.151815
301.083 18.4993 0.501129
100.09 43.3731 -0.510351
250.525 48.7391 -0.202185
371.303 2.22423 -0.287696
576.217 45.7847 -0.583027
521.083 2.90721 -0.592142
299.774 4.3264 0.487988
277.563 30.2878 0.176954
394.405 69.2369 0.201832
74.5443 7.6518 -0.579713
184.293 47.161 -0.394872
568.171 39.0409 -0.640198
428.807 73.8035 -0.0795811
186.595 42.9645 0.326302
150.072 49.2676 -0.386219
594.799 58.7965 -0.43533
591.534 31.2828 -0.611723
503.05 4.45457 -0.635444
176.533 26.4067 -0.0978686
447.929 34.1284 -0.131355
451.387 31.5514 0.327102
356.806 7.70348 -0.188724
410.331 0.818875 0.442994
564.602 49.9623 0.481702
78.2714 34.6818 -0.216463
511.422 39.8369 0.460551
250.856 17.4791 -0.353283
8.6718 2.51599 0.39446
117.234 40.6825 0.195135
62.2597 25.8864 0.48319
545.433 84.2032 0.315491
580.564 84.5765 -0.171458
171.891 30.3336 -0.182995
588.202 28.4175 0.547467
39.6294 40.1317 0.269553
84.4293 31.2169 0.161671
501.698 36.645 0.35256
359.911 22.6774 -0.474841
428.558 17.9088 0.124994
223.303 32.2022 -0.184071
494.358 25.1114 -0.578393
595.08 29.1708 0.463796
23.4659 38.4841 -0.279868
249.463 7.47671 0.214448
206.534 15.5323 0.30964
1.09632 36.1517 -0.146476
209.468 14.7492 0.410493
196.005 11.1495 0.138033
201.269 27.6509 -0.282455
123.321 31.7717 0.127361
451.709 15.7099 -0.398515
154.3 15.1657 -0.426196
577.957 69.5575 -0.220732
162.109 5.18798 -0.645907
41.6986 40.7428 0.376236
560.35 75.3003 0.561892
260.574 36.7736 0.420574
515.915 60.2452 -0.529303
585.302 62.9278 0.530992
274.718 9.85872 0.229562
546.694 53.4826 0.404929
297.7 2.69167 0.511309
362.419 28.7157 -0.377248
516.093 40.0308 -0.526015
98.0491 11.9191 -0.515237
412.555 5.2979 -0.666052
554.315 19.6658 0.255635
81.0887 7.92282 0.264733
258.391 17.1673 0.202002
369.737 13.1108 0.340076
596.183 7.6304 0.581407
348.808 1.89057 -0.557939
163.735 41.7759 -0.272928
544.183 10.037 -0.424886
120.428 39.8353 0.198122
244.396 36.3689 0.366673
352.872 27.084 0.241825
474.669 14.1584 0.437878
339.5 10.0277 -0.586129
388.936 45.6204 -0.467915
570.675 61.7497 -0.521148
42.9818 12.9128 0.121708
275.84 40.7843 -0.333158
337.78 32.3096 -0.404882
357.332 23.5867 -0.276021
428.724 50.7104 -0.444694
575.409 77.4616 0.260881
515.779 77.9521 -0.338544
212.353 39.8457 0.440626
14.2292 36.8829 0.150314
507.969 76.5064 -0.154179
424.942 56.3444 -0.548001
215.228 44.7738 -0.0954902
531.799 81.1783 -0.106704
140.374 9.44652 -0.247426
326.488 28.8573 0.262007
395.523 71.0007 -0.0995651
360.736 26.0957 0.198687
564.862 63.9928 -0.360686
371.742 4.19391 0.651844
43.95 27.1623 0.324341
406.249 64.9954 -0.341191
376.321 51.9399 -0.451056
584.241 65.97 -0.280916
548.444 50.6044 0.280509
446.857 21.0102 -0.15099
578.022 60.837 -0.471354
268.159 2.26916 -0.577657
339.044 36.5229 -0.47284
24.3912 45.6958 -0.31387
554.333 49.2733 0.157409
481.879 40.0751 -0.507579
394.674 0.765434 0.572823
117.105 5.20405 0.403689
374.196 57.2204 -0.104347
11.1334 0.943564 0.343629
591.797 14.6314 0.105952
331.988 45.3525 -0.451414
[...]
POINT_DATA 13483
TENSORS Strain_matrix float
-1.73532 -0.356203 0.309133 
0.624302 0.483633 1.3714 
4.71139e-18 -1.70057e-17 1 

-1.19206 1.48595 -50.3068 
0.192609 1.11303 -25.9397 
7.06269e-18 -1.09185e-17 1 

-0.213883 -0.128276 0.685982 
0.0985527 0.0149345 -0.537533 
6.34882e-18 -2.62797e-18 1 

-1.62644 -0.605951 0.302689 
0.749341 0.46046 0.141969 
4.80562e-18 -3.11155e-19 1 

-0.449761 0.283522 -0.23007 
-0.377388 0.0733573 -0.308207 
2.68513e-18 1.08925e-17 1 

-0.435508 -0.354689 -18.1491 
0.354248 0.455975 -10.9176 
-1.73948e-18 -8.72818e-19 1 

-0.196459 -0.130773 1.11391 
0.0891329 -0.0223144 0.815616 
1.5385e-17 1.80018e-18 1 

-0.173969 0.0666771 -0.103676 
0.0296456 -0.132813 -0.131754 
-2.29271e-18 9.93508e-19 1 

-2.5219 -0.47046 -1.1987 
-0.418073 0.391387 -0.298134 
5.16328e-18 5.05389e-18 1 

-0.653941 0.566611 -0.0493758 
-1.9397 0.972405 -1.4894 
6.28041e-18 5.85859e-19 1 

-0.121818 -0.038032 -0.13922 
0.019965 -0.0646066 0.065822 
-2.00462e-17 -2.73551e-18 1 

-0.211327 -0.066746 -0.709991 
-0.0359358 -0.0113656 -0.425098 
2.28258e-18 2.3641e-17 1 

-1.03304 -0.904682 3.12116 
-0.0564862 0.380884 -0.378147 
6.47379e-18 -3.04183e-18 1 

0.0238579 -0.480226 0.806949 
0.520623 -0.0455764 -0.241721 
-7.42433e-18 -8.157e-18 1 

-0.252417 0.0938864 0.0163893 
-0.0343412 0.128212 0.180515 
-3.36038e-18 7.4282e-18 1 

-0.0030439 -0.454236 -0.139837 
0.378674 0.067348 0.205937 
5.63324e-18 -2.45958e-18 1 

-0.146201 -0.0224352 -0.103779 
0.0544823 -0.0575641 0.036264 
-3.74563e-18 3.30273e-18 1 

-0.394685 -0.137441 -0.0775186 
0.211504 -0.1073 -0.0604087 
2.04254e-18 4.53898e-18 1 

-0.832654 -0.301399 7.85547 
-0.142835 0.288003 -3.26626 
1.00118e-17 1.14178e-17 1 

-0.0564355 0.380394 0.549009 
-0.566001 -0.0374312 0.209525 
2.2417e-18 5.23063e-18 1 

-1.67366 -0.72241 2.4599 
0.053011 0.991161 -2.31111 
7.90536e-19 -2.60877e-18 1 

-3.5887 -4.1003 1.61706 
0.0134909 0.940334 0.863398 
2.28263e-17 -9.92155e-18 1 

-0.794711 0.0280848 -1.97946 
0.144009 0.360554 4.36573 
5.53623e-18 5.67903e-18 1 

-0.46784 2.45999 181.027 
0.238546 0.76219 45.4491 
-5.02824e-18 3.33572e-17 1 

-0.192396 -0.990694 0.798751 
-0.0279293 0.333427 0.605313 
2.17794e-18 -8.58279e-18 1 

-0.283318 0.0860539 -0.691325 
-0.0957721 0.130821 -0.245809 
5.10819e-18 -5.10819e-18 1 

-1.35692 1.60986 16.2378 
-0.0466569 0.671776 20.2305 
-6.1182e-18 6.83029e-18 1 

-0.14451 -1.72936 -0.386363 
0.442381 0.240562 -0.897847 
0 6.2214e-18 1 

-0.157717 -0.0482012 -2.52601 
0.103669 -0.0196513 -0.108832 
-8.19331e-18 -3.46501e-18 1 

-1.16979 2.33641 -7.49131 
-0.831133 1.03438 2.22651 
5.94794e-18 -1.31634e-17 1 

-0.297128 -0.238512 -0.505445 
0.115613 -0.167775 0.630112 
1.78759e-18 1.42622e-17 1 

-0.207955 -0.137615 -0.270565 
0.180295 0.256227 0.245706 
3.36545e-18 1.19513e-18 1 

-0.874578 -0.0448077 -1.19343 
0.721666 0.779966 -0.74771 
7.44031e-18 -2.04125e-18 1 

-1.76802 -1.75817 -3.07467 
1.05448 1.91439 -0.711402 
2.6782e-18 1.42391e-17 1 

-0.072056 -0.181671 0.0819261 
0.165381 -0.113402 0.311844 
7.02062e-18 1.43888e-17 1 

-0.562565 0.295213 -2.49416 
-1.07622 0.288558 0.641984 
-2.75872e-17 9.45979e-18 1 

-0.376185 0.539833 -4.49587 
-0.16428 0.189976 -4.72469 
-5.47793e-18 -3.7576e-18 1 

-1.20638 -0.440563 2.20046 
0.0395928 0.441293 0.244352 
2.02487e-17 -6.40433e-19 1 

-0.00545622 -0.364591 -1.47577 
0.201038 -0.197464 1.02375 
-1.6747e-18 -6.01846e-18 1 

-0.56249 0.179095 7.90606 
-0.1829 0.291117 0.468844 
5.84543e-18 -1.3407e-20 1 

-0.27607 -0.228245 -0.315243 
0.0694027 0.0745138 -0.417759 
-3.54029e-18 2.74373e-18 1 

0.196025 0.847379 -0.016243 
-0.972986 0.610394 0.785262 
-1.06374e-17 -1.60077e-18 1 

-0.787327 -0.702459 -0.707011 
0.225281 0.425173 0.787529 
-2.21805e-17 2.29363e-17 1 

-0.252555 0.0766428 -2.18233 
-0.0825199 -0.0651733 -1.80379 
1.32502e-18 -7.92413e-19 1 

-0.16992 0.0165238 -0.140156 
-0.0359144 -0.0320013 -0.025113 
-3.25666e-18 1.24345e-18 1 

-0.178608 0.132804 0.00365443 
-0.0860516 0.103459 -0.0415541 
-3.38704e-18 6.18785e-19 1 

-0.709338 -0.692009 -0.992443 
0.587331 0.416974 1.48857 
1.84795e-18 -1.25629e-18 1 

-0.126273 -0.177891 0.0011963 
0.0462342 -0.0975923 0.0990672 
1.23292e-17 5.95955e-18 1 

-5.49589 -4.03356 -27.6972 
0.264212 0.448655 4.46111 
-7.40784e-18 -3.08898e-18 1 

-1.44521 -0.2886 2.10164 
0.137298 0.371981 -1.76331 
8.79139e-18 -1.56672e-17 1 

-0.338883 0.308832 0.277984 
-0.332884 0.247553 0.284175 
-4.24655e-18 6.40988e-19 1 

-0.845681 0.617545 3.93753 
0.325853 0.0660103 -1.33599 
-1.71858e-17 3.06775e-17 1 

-0.0973156 -0.739661 0.239684 
-0.210604 -0.119383 -0.0613075 
-1.3669e-18 4.60428e-18 1 

-0.313493 0.323973 -0.456709 
-0.0565465 0.0288121 0.537712 
-1.83228e-17 8.16239e-18 1 

-0.503917 -0.427956 -0.473727 
-0.0624606 0.177755 0.13132 
1.35223e-17 -9.43837e-18 1 

0.336012 -0.957989 -4.18168 
0.89548 0.200622 1.07904 
-9.01566e-18 -6.96828e-18 1 

-1.72266 0.515944 -2.53681 
-0.801729 0.716985 0.759213 
-3.94094e-18 1.56766e-17 1 

-0.16222 0.185845 -1.37033 
0.0767184 0.00303891 0.361358 
-1.14933e-18 -2.69272e-17 1 

-0.257547 -0.135139 0.753772 
0.0995386 -0.0421841 -0.147812 
5.02566e-18 -2.2593e-18 1 

-0.493602 -0.0801308 2.60289 
-0.0521255 0.337696 0.271926 
5.48522e-18 4.4866e-18 1 

-2.5311 7.76429 -1.05533 
0.0431645 0.743645 0.10771 
-6.43861e-19 1.25395e-17 1 

-0.275499 -0.893033 1.61702 
0.778647 0.670637 -0.24279 
1.12828e-17 -3.50652e-17 1 

-0.3841 0.0121268 -0.133501 
0.00798414 0.148019 -0.0546881 
2.18124e-17 -1.22265e-18 1 

-2.41834 0.665679 -12.5207 
-0.0575661 0.458448 -2.29477 
1.27397e-17 -2.17772e-18 1 

-0.0659704 0.199599 -0.043759 
-0.158814 0.00502939 -0.0376973 
-4.25293e-18 2.11091e-17 1 

-0.290632 0.120486 0.701601 
-0.0103125 0.0696425 0.27592 
3.41414e-18 -7.31601e-18 1 

-1.74948 -0.18141 -2.81786 
-0.82803 0.572368 -0.353835 
5.70151e-19 3.98683e-18 1 

-0.0722534 -0.451009 0.286808 
0.39745 0.121074 -0.298978 
-3.09402e-18 -2.03841e-18 1 

-0.297371 0.110826 4.07755 
-0.188857 -0.0760078 -0.131461 
7.9888e-19 5.95628e-18 1 

-0.466202 0.121145 0.34338 
-0.445875 -0.172143 -0.239295 
4.68573e-18 -1.52286e-17 1 

-2.84202 -0.332816 1.63929 
-1.72973 0.713666 -0.243604 
-8.16985e-18 1.11191e-17 1 

-0.155104 0.0807031 0.109859 
-0.0883439 -0.0267045 -0.0495713 
-3.33841e-18 4.74169e-19 1 

-2.71002 1.94165 -2.46811 
-0.771174 1.18282 -0.17446 
1.06705e-17 -2.17828e-17 1 

-2.38669 -0.615556 -2.08207 
1.54117 1.03918 2.47981 
-1.35992e-17 9.1302e-19 1 

-0.130018 0.133281 -0.0179867 
-0.0749195 0.0160071 -1.1346 
-3.23422e-18 -1.13623e-17 1 

-0.310172 0.254932 0.410998 
-0.12844 0.156917 0.538157 
-4.52538e-18 -5.50916e-18 1 

-3.24699 1.49953 -18.7713 
-0.00672671 0.787711 -12.0831 
1.98356e-17 -1.06022e-18 1 

-0.246269 -1.06558 20.5168 
0.0498668 0.752592 -1.0058 
-5.15035e-20 9.48586e-18 1 

-2.16705 0.484468 0.125615 
-0.176171 0.66921 0.144752 
1.03326e-18 -5.32715e-18 1 

-0.106987 -0.90896 -1.04425 
0.492669 0.416017 0.194221 
-1.74067e-17 -6.11709e-18 1 

-0.684654 -0.89219 -0.674462 
0.880186 0.683685 1.50674 
-4.87027e-18 1.18911e-17 1 

-0.214688 -0.634122 5.1435 
0.680666 0.344461 0.247189 
-1.28303e-17 -1.24059e-18 1 

-0.214953 -0.010008 -0.0757543 
0.059685 0.0918485 0.0735279 
-1.78746e-17 1.44171e-17 1 

-0.061361 0.308105 0.224179 
0.254088 0.00436086 -0.51907 
-1.34268e-18 1.43736e-18 1 

-0.169683 -0.230288 0.112232 
0.256013 0.0319486 0.217646 
2.20392e-18 6.71065e-18 1 

-0.484259 0.0731892 0.14646 
-0.181708 0.0162776 -0.100936 
1.03842e-17 3.14411e-17 1 

-1.0051 0.114346 -33.3236 
0.0990269 0.245546 14.701 
-9.78554e-18 2.92469e-18 1 

0.0679858 0.404676 0.212584 
-0.131854 -0.106534 0.189403 
7.8647e-18 1.40405e-17 1 

-1.47892 -2.09393 2.17414 
0.450469 0.934657 0.544272 
-3.19369e-18 8.3088e-19 1 

-0.299476 -0.161757 -4.70768 
0.0426972 -0.0840933 -0.65015 
-1.31084e-18 6.04279e-18 1 

-0.235042 -0.246027 0.0566969 
0.0254293 -0.0241152 0.230365 
1.0599e-18 -2.56623e-18 1 

-0.424368 0.773989 -0.164778 
-0.588408 0.144499 0.601212 
-8.72823e-18 1.07804e-17 1 

-1.32714 0.195404 -4.00508 
0.587573 0.213197 0.281258 
1.0838e-17 1.28488e-17 1 

-0.153221 -0.0192632 -0.045446 
-0.0557599 0.0167903 -0.260382 
9.2797e-18 2.29184e-18 1 

-0.0916897 0.193525 -0.445858 
-0.165384 0.0168171 -0.012727 
7.28246e-19 2.44061e-18 1 

-5.42695 -1.75659 2.86138 
0.123422 0.541959 -0.72508 
-3.90425e-18 -3.60893e-17 1 

-0.27262 -0.0485802 0.758931 
0.0720701 -0.00426231 -0.985526 
6.19019e-18 -8.45127e-18 1 

-0.836093 -1.01308 0.439283 
0.986859 0.718138 -0.171378 
1.56982e-17 -3.02616e-18 1 

-1.61536 -0.27428 1.32924 
0.361183 0.548047 0.237721 
-1.04147e-17 4.16589e-18 1 

-0.313884 0.58819 0.283303 
-0.593916 0.479134 0.407539 
3.20676e-18 1.64892e-17 1 

-0.389429 -0.0671031 6.78219 
0.0346326 0.216208 0.622905 
-2.53043e-18 -4.42964e-20 1 

-0.225706 -1.06227 10.1646 
0.863266 0.997384 0.846963 
-2.9958e-18 2.4328e-18 1 

-0.471765 -0.0480375 1.52627 
-0.238311 0.128731 2.01451 
6.91152e-18 1.46636e-17 1 

-0.783756 1.90152 0.990721 
-0.301279 0.746651 -0.144284 
-1.35006e-18 -8.02992e-18 1 

-0.552659 0.235861 0.871629 
-0.182445 0.127637 -4.26972 
-1.11858e-17 1.09159e-18 1 

-0.276496 0.330585 0.591824 
-0.353501 0.043406 -0.464926 
-9.30135e-18 7.82974e-18 1 

-0.36506 0.527055 0.160892 
-0.486857 0.165263 0.17346 
5.91744e-18 1.05015e-17 1 

-0.177242 -0.0238485 -0.164181 
0.010519 0.0288117 0.0414515 
-1.07173e-18 -1.60323e-18 1 

-0.30418 0.118836 -0.969631 
-0.169453 -0.0790389 -0.398474 
6.0859e-18 6.86777e-18 1 

-0.500365 0.0829839 0.561362 
0.0462638 0.0452924 3.53392 
-1.61698e-18 1.76071e-18 1 

-0.49831 -0.24077 -10.7508 
-0.0789591 1.10221 23.8594 
-2.52308e-18 -3.12262e-20 1 

-0.264779 -0.0856397 1.05121 
0.0794648 0.202939 -6.79358 
5.00067e-19 4.54607e-18 1 

-0.287553 -0.111494 0.044371 
0.0478229 -0.0188922 -0.138032 
-5.46225e-18 -4.10265e-18 1 

-1.65835 -0.775366 -37.7571 
0.0465303 0.755218 -27.4041 
4.27887e-18 4.27543e-18 1 

-1.42613 0.0510102 -1.09063 
-0.296035 0.617122 -1.7892 
-9.0794e-18 7.57675e-18 1 

-0.103529 0.120269 -0.117244 
-0.139233 -0.0160218 0.118679 
-7.94315e-18 -1.50502e-17 1 

-0.518879 -0.31846 0.102012 
0.0996313 0.16929 -0.315116 
5.13055e-18 -1.01295e-17 1 

-0.500595 0.441469 -1.78503 
0.105596 0.118319 -0.654325 
-2.56202e-18 3.55668e-18 1 

-1.42652 -1.52699 -1.59479 
-0.281297 0.973261 -0.631102 
1.18485e-17 -2.36969e-19 1 

0.0527014 -0.512617 0.175915 
0.573503 0.180084 -0.149292 
2.90098e-19 -1.84696e-17 1 

-0.831897 0.383262 1.05277 
-0.124461 0.20741 0.400283 
3.78594e-18 -2.52396e-18 1 

-0.578441 0.615915 -0.389803 
-0.53494 0.346613 0.792718 
-2.99616e-18 5.62892e-18 1 

-0.0303093 -0.645051 0.573669 
0.450234 0.19552 -0.622805 
4.95154e-18 1.22512e-18 1 

-0.502068 -0.946635 2.74993 
0.345451 0.341486 0.741494 
8.9324e-18 -2.69657e-18 1 

-0.606858 0.321843 6.58856 
-0.103627 0.237305 -2.13521 
5.92791e-18 -9.54283e-18 1 

-0.61078 -0.0797414 -0.565044 
0.0260644 0.0803309 2.26547 
5.37119e-18 1.19173e-17 1 

-0.258309 -0.00351014 0.222121 
-0.160987 0.160852 -0.322825 
-3.54351e-18 2.04311e-18 1 

-0.307774 -0.00290727 -0.33948 
0.0756282 0.151692 -0.967283 
-4.50762e-18 1.62633e-18 1 

0.711037 -1.09358 -0.317424 
1.19172 1.15917 -0.33644 
-8.03113e-19 -7.36471e-18 1 

-0.669648 0.175151 -6.88684 
0.4109 0.138804 -3.78053 
4.26197e-18 2.89393e-19 1 

-1.67697 1.59455 4.15258 
-0.142521 0.819516 -0.134605 
1.59344e-17 -2.69479e-18 1 

-0.11766 -0.333677 -0.0648343 
0.366225 0.147684 -0.371538 
-2.93047e-18 1.03225e-17 1 

-0.40431 0.0779788 -0.346186 
0.139109 0.233901 -1.39534 
-2.83392e-17 1.76586e-18 1 

-0.384181 0.0185089 0.122259 
0.113069 -0.148196 -0.236329 
1.27352e-17 2.54203e-17 1 

-1.27134 0.249675 -2.65949 
-0.236299 0.553066 -1.35098 
3.15885e-18 -2.77015e-18 1 

-0.255608 0.756864 0.276914 
-0.260647 0.183967 0.337964 
-1.23467e-17 5.10897e-18 1 

-0.920569 2.74144 2.23109 
0.382324 0.254696 -2.49033 
-5.02548e-18 -1.13699e-18 1 

-0.437401 0.420557 -2.95602 
-0.00220937 0.283988 -2.10624 
1.57103e-17 -1.59031e-18 1 

-0.389742 -0.0966597 -0.067722 
0.0960973 0.0688888 0.229381 
-1.03868e-17 6.33674e-18 1 

-0.584391 -0.40967 -0.546557 
0.117205 0.327702 -0.816135 
5.20804e-18 2.04467e-18 1 

-0.380128 0.630746 -5.99811 
-0.681295 0.359399 -3.44979 
-8.93795e-18 -7.94189e-18 1 

0.0146328 0.263166 -0.216346 
-0.321088 -0.00565345 0.148563 
-6.94e-18 -5.205e-18 1 

-0.260642 -0.720738 -1.50856 
0.46971 0.2117 0.303506 
-2.32694e-18 -5.65113e-18 1 

0.176913 -0.662345 -0.529671 
0.735457 0.27158 0.314596 
-1.00773e-17 -7.14887e-18 1 

-0.0654566 0.0379542 0.33669 
-0.0585544 0.0315765 0.351393 
-8.86725e-18 -9.48816e-18 1 

0.318995 -0.989964 -0.755833 
1.06383 0.593485 0.293747 
8.51748e-18 9.47302e-18 1 

-0.394656 0.186408 -0.0153025 
0.341117 0.00862919 0.690281 
6.08475e-18 -3.06081e-17 1 

-0.140475 0.0585233 -0.195381 
-0.074363 -0.0822036 0.427666 
-5.56781e-19 6.08544e-18 1 

-0.82806 0.183083 -3.97582 
0.0305441 0.536339 2.82289 
4.47925e-18 -2.30897e-18 1 

-0.404681 0.36622 -1.39518 
-0.29667 0.316939 -0.777195 
5.75037e-18 4.60029e-18 1 

0.0211637 0.503182 -2.42029 
0.189572 -0.116962 1.17241 
-2.08535e-18 1.87097e-17 1 

-0.399518 0.506722 -0.97601 
0.0603691 0.0893966 -1.15557 
-4.82289e-18 1.73551e-18 1 

-0.19671 0.0634422 1.4994 
-0.0615122 -0.00797981 -0.807796 
-5.20889e-18 1.03744e-17 1 

-0.170563 -0.000742559 0.248828 
-0.142757 -0.00653138 0.652674 
2.72324e-18 9.39047e-20 1 

-0.15741 0.129183 -0.323012 
-0.0663973 -0.0565901 0.223531 
-3.70175e-18 -2.48018e-18 1 

-0.268461 0.0144075 0.47636 
0.164416 0.161347 -0.0868865 
-1.19925e-17 1.1654e-17 1 

-1.06238 -0.825187 0.467573 
0.143486 0.525184 -0.83328 
-1.35836e-17 -2.40368e-18 1 

-0.227702 0.0540184 -2.04214 
-0.161863 0.156678 0.0968475 
-7.06155e-18 -4.62556e-18 1 

0.22646 -8.55579 61.8497 
-0.0156472 1.21281 -0.795339 
2.85811e-18 -4.51661e-18 1 

-0.678891 -0.190325 -0.351261 
0.0196333 0.0918291 0.416351 
9.72099e-18 -3.33768e-19 1 

-0.295091 -0.229364 5.1374 
0.144231 0.15534 -3.4215 
1.83115e-18 5.9179e-18 1 

-6.18731 5.69897 -16.4181 
-0.423035 0.597228 -1.90263 
1.78674e-17 3.27342e-18 1 

-0.609646 -0.952968 -1.11718 
0.408213 0.685516 -1.11754 
2.72158e-18 -3.09958e-18 1 

-1.32422 -1.22945 -12.0547 
0.271561 1.08559 -17.8039 
-2.29135e-18 -1.27156e-18 1 

-1.20261 -0.870046 8.58786 
-0.472771 0.227006 2.79959 
2.83037e-18 -4.8699e-18 1 

-2.95383 -0.760531 2.77202 
1.25731 0.681952 1.41499 
6.21305e-18 -2.65191e-18 1 

-0.0265537 0.0961819 0.0282034 
-0.0599484 -0.065175 0.111875 
-7.11114e-18 -2.00314e-18 1 

-0.262143 0.0286329 -0.231063 
0.179384 0.108214 0.762251 
-2.02279e-18 3.2148e-18 1 

-0.352001 -0.088525 0.0600375 
0.0118868 0.074865 -0.0642103 
9.02257e-18 9.52382e-18 1 

-0.237788 -0.0221959 -0.226423 
0.0402044 0.00543486 0.195113 
4.37698e-18 4.41065e-18 1 

-0.376587 0.28442 0.390591 
-0.254779 0.253454 0.0155808 
0 -1.08474e-17 1 

-0.105313 0.0720133 0.231177 
-0.111705 -0.0915476 0.882911 
-3.62661e-19 -1.14525e-18 1 

-0.320275 -0.402185 -1.63988 
0.499927 0.310416 1.80711 
1.01485e-17 1.10096e-17 1 

-1.1789 -0.239735 -3.8971 
-0.110769 0.349631 -2.04422 
9.87395e-18 1.08165e-18 1 

-2.26753 -0.681987 -1.09807 
1.1803 1.36215 -0.708429 
-1.55785e-18 7.3998e-18 1 

-1.75092 -1.80564 -3.20474 
0.47847 0.799512 1.26985 
2.24803e-17 1.20296e-18 1 

-1.04313 -0.0492912 -23.1039 
-0.028983 0.954191 -11.2083 
6.68955e-18 4.59198e-18 1 

-0.364776 0.0618824 0.137184 
0.104375 0.00620804 -0.135973 
1.07546e-17 -1.17086e-17 1 

-0.132263 0.279834 2.95249 
-0.332641 -0.0833639 0.111298 
1.58434e-17 -2.65461e-18 1 

-0.278625 -0.051569 -0.671108 
0.102899 -0.0253552 -0.0323372 
2.36013e-17 6.17264e-18 1 

-1.01938 -0.22309 -0.668758 
0.392722 0.350686 -0.532017 
-1.55377e-18 -2.18268e-18 1 

-0.364211 -0.102104 0.774907 
-0.0748238 -0.0624786 0.17663 
-6.68319e-18 1.48326e-17 1 

-0.43239 -0.136226 -0.223329 
-0.0831651 0.0539986 0.266413 
-1.31082e-17 2.61985e-18 1 

-0.186562 0.0782174 4.9298 
0.00886348 -0.000689617 1.42378 
-1.8057e-19 2.48566e-18 1 

-0.513655 -0.40908 0.0156156 
0.273754 0.481835 1.05999 
-7.2845e-18 -4.38089e-18 1 

-0.309276 -0.069845 0.335123 
0.106875 -0.0549371 0.197987 
1.27237e-17 -2.76602e-19 1 

-0.400156 -0.191769 3.35883 
0.286593 0.322014 0.302667 
-8.65061e-18 -8.60549e-18 1 

-1.84147 1.7977 5.64427 
1.03614 -0.375061 2.39159 
-8.25971e-18 -5.74246e-18 1 

-0.100841 0.00682849 -0.364595 
-0.0654042 -0.0639611 -0.105097 
2.62773e-18 -3.29767e-18 1 

-0.307204 -0.17941 0.0810812 
0.0682467 -0.143278 0.519183 
1.08621e-17 -5.2225e-18 1 

-1.30408 1.35648 -19.5858 
0.974501 0.132777 5.35491 
1.79754e-18 9.06699e-18 1 

-0.584852 0.0735034 -0.927322 
-0.236359 0.0628056 -0.0300214 
-3.92409e-20 -4.55194e-18 1 

-6.10785 -3.05458 5.04567 
-0.056117 0.928396 -0.314692 
1.11881e-17 -1.28878e-17 1 

-1.7388 -0.984507 -10.5565 
0.434779 0.780893 4.14747 
-7.18536e-18 -4.1156e-19 1 

-0.871477 0.588764 -1.1815 
-0.0610981 0.337454 -1.33611 
7.80976e-18 8.78598e-18 1 

-1.281 -0.19966 -10.4985 
-0.247935 0.80614 2.0211 
9.24661e-19 -5.45053e-18 1 

0.188519 -0.0905724 0.275924 
-1.03405 -0.643248 -0.141516 
-6.48001e-20 -6.86881e-18 1 

0.127579 -0.522954 0.168237 
0.450293 0.21796 0.206639 
7.61763e-18 -2.13792e-17 1 

-0.502463 0.154356 -0.585245 
-0.306309 0.0524392 0.707021 
-6.41472e-18 -1.96215e-18 1 

-0.113066 -0.296075 1.16652 
0.214461 0.131948 0.644651 
5.38206e-18 1.16208e-18 1 

-0.00680828 -0.391548 -0.0165007 
0.397081 -0.02291 -0.220703 
6.74638e-19 -8.01133e-19 1 

-0.108322 0.00568767 0.0386817 
-0.00468844 -0.0421423 -0.00779139 
3.90081e-18 7.7248e-18 1 

-0.89389 -1.66429 0.59247 
0.997213 1.16121 0.722082 
1.11934e-17 1.4139e-18 1 

-1.86345 -0.725421 -2.08381 
-0.273719 0.556958 -3.59787 
5.9381e-18 -2.24489e-18 1 

-0.122511 0.246012 -0.446674 
-0.0632061 0.0276804 -0.0073632 
1.08121e-17 -6.84313e-19 1 

-1.48718 -0.839746 0.733754 
-0.0419013 0.732305 -0.619145 
1.60553e-17 4.47475e-18 1 

-0.0633898 0.0358221 0.258762 
-0.0504123 -0.0473892 0.161737 
-5.21484e-18 -1.68479e-18 1 

-0.170317 0.0434124 0.182966 
0.0355706 0.0592986 -0.485934 
6.73283e-19 -1.01605e-17 1 

-1.92263 0.0942039 1.08037 
-0.0569747 0.42559 0.029348 
8.05788e-18 2.71832e-18 1 

-0.352974 -0.00546438 0.342812 
-0.205916 0.217288 -0.277611 
3.01566e-19 -3.06206e-18 1 

-0.920539 0.222848 -1.93052 
0.568085 0.319109 1.70215 
-7.019e-19 2.19539e-18 1 

-0.27661 -0.0451631 0.284918 
0.0547945 -0.0800869 -0.14284 
5.84452e-18 3.68204e-18 1 

-0.156581 -0.165471 0.931815 
0.00365311 -0.0987941 0.612482 
1.05894e-18 1.95217e-17 1 

-0.440638 0.166766 2.00835 
0.31229 0.216442 0.857845 
9.67652e-18 6.68428e-18 1 

-0.731911 -1.13273 -9.21511 
0.239177 0.619666 -2.1454 
-2.74549e-19 -2.92853e-18 1 

-1.15949 -0.229426 1.2376 
-0.178336 0.591819 -2.434 
2.27488e-18 -6.183e-18 1 

-0.29109 -0.207281 0.211295 
0.0254948 -0.00960326 -0.0138656 
4.44634e-18 -3.04527e-17 1 

0.66852 -1.00671 0.144195 
1.10532 0.833898 0.134999 
-1.2348e-17 -1.13094e-17 1 

-0.10245 -1.14042 -0.363191 
1.04585 0.969537 0.0198913 
5.28575e-18 -2.49475e-19 1 

-0.0981884 -0.407585 -0.413398 
0.0851758 0.1211 -0.0979891 
5.04503e-18 -1.74894e-18 1 

-3.3926 -1.45484 -12.4488 
0.0574711 0.826875 7.04118 
2.00598e-17 1.91683e-17 1 

-0.459191 -1.10702 -3.2682 
0.0758609 0.162391 -0.901655 
-3.04231e-18 -8.4763e-18 1 

-0.179133 0.037786 0.017357 
0.015614 -0.0954397 -0.202984 
6.49514e-18 2.80728e-18 1 

-1.91986 0.380522 -88.4212 
-0.319885 0.960068 -8.94026 
1.68945e-18 6.13671e-18 1 

-0.140439 -0.681927 -0.219702 
0.148881 0.0906708 1.34399 
2.04084e-17 4.39835e-20 1 

-0.145714 -0.0100856 -0.273433 
0.0171479 -0.00572888 -0.0349269 
-5.06173e-18 1.65223e-17 1 

-0.381797 -0.0972949 -0.49786 
0.169958 0.0234292 0.293597 
7.74116e-18 -2.50219e-18 1 

-0.21847 -0.409391 0.18965 
0.452302 0.005618 -0.0122986 
-1.43812e-17 4.20045e-18 1 

-0.427792 -0.817104 -3.50988 
0.686164 0.360766 1.87134 