# vtk DataFile Version 3.0
Output file generated by Yade's KinematicLocalisationAnalyser
ASCII
DATASET UNSTRUCTURED_GRID

POINTS 13483 float
661.616 27.6774 -0.430992
867.385 44.4376 0.525166
129.455 6.09135 0.450219
914.623 4.29781 0.387088
538.911 7.54509 -0.307788
338.429 34.3631 -0.461825
168.567 6.80476 -0.409441
617.793 10.005 0.142928
535.753 22.3317 0.142566
801.746 12.0936 -0.369161
226.469 8.72677 -0.101912
276.285 6.2951 -0.280454
716.717 28.2236 -0.132969
692.105 13.8474 0.0860796
147.73 16.9508 0.436884
238.366 34.0951 -0.390873
234.159 12.842 0.267343
310.425 9.399 0.37805
366.587 32.1673 0.419071
567.037 8.52074 0.346238
442.327 36.245 -0.0979022
643.237 43.1449 0.280805
909.697 31.2543 0.435577
772.558 41.561 0.429813
494.947 15.9118 0.293551
259.113 43.5812 -0.121699
530.567 26.8815 -0.474637
636.567 19.1815 0.213594
48.279 15.3968 -0.471289
797.015 30.8222 -0.325889
520.491 4.83792 0.321308
18.0365 22.644 0.323487
882.153 42.1374 0.265156
534.464 2.46306 0.486439
84.2242 43.3453 0.100322
564.11 29.7293 0.331035
573.872 16.4767 -0.410205
369.909 21.7437 -0.177037
577.163 25.2773 -0.321657
377.543 32.687 -0.176475
259.348 14.486 0.300767
467.834 34.7768 0.0659843
745.914 6.94424 -0.104817
207.691 6.15951 -0.37156
59.7272 6.84966 0.130918
73.534 8.76008 0.267748
764.782 8.51551 0.488208
25.3256 11.5766 -0.283989
666.082 43.4152 0.325635
748.16 22.5165 -0.313096
185.735 31.8782 -0.282598
861.557 32.5213 -0.127297
37.8589 27.4398 0.112473
577.972 2.94347 0.321797
153.251 7.42697 0.466665
646.1 32.9762 0.389326
545.09 25.6124 -0.118103
188.216 0.931718 0.255064
35.1916 2.41038 -0.284298
375.531 17.4062 0.260699
678.243 43.9822 -0.132296
499.13 33.3956 -0.183632
430.447 1.03065 0.187372
777.44 7.65261 0.351454
28.4396 41.823 -0.235818
276.197 29.9663 -0.290973
801.759 7.49113 0.187485
739.476 43.6244 -0.362255
450.35 8.48348 -0.477142
618.592 3.49883 -0.341469
837.181 28.577 0.381186
141.14 7.58768 -0.268393
538.829 24.7981 -0.128895
516.072 14.7587 -0.103858
317.212 16.4998 -0.340484
22.3168 13.3827 0.246661
888.57 33.2176 0.330969
358.299 38.1648 -0.278842
745.588 19.4098 0.336211
764.351 12.2533 0.236793
898.093 10.9793 -0.192894
502.636 33.9461 -0.165499
99.4715 37.5066 0.266449
758.584 33.5891 -0.218251
712.396 37.2821 -0.107206
918.211 36.6261 0.119756
890.664 0.803504 -0.483382
313.73 28.447 0.435308
680.236 6.25387 -0.0957011
26.1452 5.21677 -0.451015
143.104 37.1606 -0.135084
555.399 13.975 0.205667
880.882 22.7986 0.517402
211.005 28.1657 0.232648
47.8314 33.7974 0.267632
533.317 1.15955 0.112869
254.375 8.79485 -0.350533
840.859 38.1568 -0.261829
865.994 25.1295 0.223812
390.088 20.3463 -0.260349
177.299 26.5268 0.424039
597.505 37.4877 -0.410405
410.618 14.8266 -0.489209
447.071 29.0389 -0.109484
408.874 4.37611 0.410452
595.275 10.7467 -0.0946341
919.416 11.1002 0.21505
86.6536 38.4256 -0.391015
362.367 4.7616 -0.171934
610.814 9.35373 -0.325879
389.31 42.8892 0.44463
28.1807 23.9055 0.483434
32.8581 5.65588 -0.330743
619.671 31.7155 0.398934
548.22 23.1534 -0.140579
28.5047 35.8113 -0.356116
100.398 29.9134 -0.211996
351.447 15.6978 -0.308951
656.62 18.5712 -0.110417
515.743 37.4311 0.302183
821.797 7.67765 -0.354596
812.431 6.17623 -0.215779
418.92 36.5891 0.0946774
698.963 24.8053 -0.097404
258.449 16.6481 0.520107
357.262 3.6714 0.46157
111.879 30.8821 0.324908
125.756 23.7548 0.265955
592.525 37.9692 0.0796309
331.244 18.6638 0.474321
791.177 33.6763 0.11151
743.865 43.2087 0.120381
522.039 20.2006 -0.385143
869.457 9.28228 0.320879
465.349 22.8306 0.219206
300.252 23.7567 -0.303584
745.962 31.0296 -0.281975
302.055 28.4094 0.398432
630.392 11.3943 -0.185456
359.633 34.8997 0.185935
549.239 11.3516 0.444074
398.041 30.6134 0.0844513
467.87 16.359 -0.111604
344.886 41.1273 0.276506
206.93 29.2804 -0.117026
871.629 42.3534 0.149113
915.163 11.7114 -0.300246
6.42385 12.0135 0.432265
472.094 21.9815 -0.416192
41.6012 21.7527 0.0759613
408.604 30.7432 -0.463653
429.033 24.2731 -0.256286
80.9716 11.7382 0.479343
56.1381 32.8259 0.417992
245.327 13.1947 0.433242
679.808 37.6244 -0.393205
633.382 20.1555 -0.450933
81.3566 20.4197 0.487679
775.881 44.969 -0.420421
854.86 2.40389 -0.424744
731.549 39.9802 -0.487137
772.388 2.32474 0.37367
602.188 26.0196 -0.38719
644.767 43.5974 -0.467163
559.93 18.0187 -0.354653
911.825 2.82336 0.293267
243.03 24.4992 -0.117684
138.446 34.1622 -0.193621
268.765 6.51914 -0.374526
102.862 4.01108 -0.254386
69.7104 10.0157 -0.182605
299.777 35.4232 -0.31162
17.7202 24.3233 -0.372822
608.276 18.8243 0.39535
665.862 38.3601 0.184593
504.889 20.9432 -0.361026
902.734 39.2589 -0.426877
443.106 8.48083 0.0834745
475.197 35.1368 -0.36892
586.98 3.42016 -0.182055
24.8453 23.2047 -0.384482
633.184 4.26446 -0.368011
597.498 4.31755 -0.286203
224.56 11.2009 0.477624
463.287 16.0295 0.183682
338.908 6.28382 0.313967
422.713 18.6693 -0.324771
826.999 40.5714 -0.133185
209.455 25.1387 0.411417
882.403 6.80253 0.342559
825.985 36.8427 0.323557
417.893 10.0108 -0.184768
798.658 2.53928 -0.361925
665.74 24.8212 -0.389064
830.135 17.813 -0.357982
469.938 41.5096 -0.270216
543.044 12.1577 0.342041
508.52 43.5352 -0.218219
486.522 8.6347 0.128404
734.98 38.7594 -0.30162
732.374 35.1807 0.338586
209.26 38.2479 -0.339628
895.927 11.021 -0.129941
647.139 44.3 0.241604
12.3908 16.7939 0.166315
444.437 24.9523 0.33497
204.15 22.6678 0.38997
101.176 38.4574 0.20021
877.306 20.2891 0.439414
728.039 44.0503 0.220311
347.748 25.0437 0.353464
583.609 10.0784 0.319412
89.4902 43.3984 -0.162252
269.83 25.469 -0.470328
611.453 23.168 0.372227
532.135 18.1814 0.40343
286.367 0.888569 -0.342446
607.486 39.2381 0.362512
585.454 40.179 -0.447831
527.575 32.2914 0.356151
546.289 0.769147 -0.485095
784.227 18.4235 0.360446
195.983 11.7379 0.169297
548.074 35.8107 0.428348
620.793 38.7397 0.110016
79.2547 0.94569 -0.273193
274.406 4.61891 0.157958
914.246 13.5584 0.176562
898.744 12.8571 -0.3702
922.354 16.5921 -0.436566
330.918 8.48116 -0.224649
837.728 21.6326 -0.384374
444.644 40.4177 0.327824
490.878 0.817005 -0.397262
719.971 34.7088 0.450359
29.7019 29.4915 -0.304679
360.416 40.2181 -0.474059
275.345 2.79605 0.30787
885.567 39.596 0.228535
795.806 45.7604 -0.22836
313.315 10.7177 0.172289
739.005 28.366 0.0825765
612.491 2.65857 0.261153
595.17 6.36601 0.415081
105.406 17.6614 -0.462771
330.757 1.03964 -0.221791
374.998 2.24583 -0.37142
15.1828 7.58689 0.308632
4.6972 30.4713 -0.236459
177.037 18.6587 0.361424
74.4023 41.0799 0.214004
72.8197 28.3053 -0.321719
463.294 14.2838 -0.447644
401.207 34.2396 -0.469839
859.368 34.5036 -0.134941
21.2454 3.96996 0.277794
76.7771 6.76503 -0.130761
691.088 37.1059 -0.157782
321.8 0.926511 0.322072
398.68 16.0756 -0.0885728
257.324 4.59546 -0.382465
723.643 20.9048 -0.192149
494.24 8.33192 0.392708
840.955 19.6032 0.369535
698.381 28.3833 -0.302162
744.521 17.6632 -0.0823124
459.344 25.8114 0.479275
111.117 43.908 0.311749
596.504 41.3444 0.0744024
827.467 13.2915 0.189236
259.708 29.7633 -0.237675
34.5256 16.4841 0.185701
367.505 13.5666 0.483114
117.438 39.6871 -0.458946
292.283 41.5394 -0.188696
465.465 1.06891 0.172632
886.472 27.7396 -0.391554
764.489 0.803752 -0.45623
362.992 3.06373 0.463165
327.69 26.0626 0.137053
507.156 40.3944 0.199807
88.868 7.91317 0.380657
216.41 43.9644 -0.377713
869.075 27.3211 -0.355882
543.007 38.0547 -0.0836439
218.732 40.4552 0.252425
175.595 41.3617 -0.390373
920.662 31.9917 -0.413823
917.72 11.1776 -0.491066
669.268 3.6272 -0.50155
207.956 24.0688 -0.0986601
604.245 27.2743 0.102074
606.288 26.8595 0.259875
447.87 5.54951 -0.136073
528.015 0.933016 -0.27778
857.208 36.6978 0.476665
92.8282 30.2072 -0.214492
729.922 18.0555 0.460269
299.845 15.335 -0.327887
10.7434 2.32394 -0.336135
136.985 35.9705 -0.198525
73.1869 22.7869 0.449085
783.796 35.3266 0.329111
891.361 44.9543 -0.174378
203.114 27.6974 -0.168574
909.796 11.3077 -0.291433
49.1316 35.791 -0.23979
99.1973 28.3452 0.15228
702.642 12.9315 0.361044
452.555 17.9941 -0.487259
570.443 16.4188 0.112825
260.337 27.8205 -0.18235
687.907 4.47706 -0.415054
922.35 10.6276 0.352763
32.8096 30.7128 -0.269892
295.204 7.68226 0.185037
242.857 14.9429 0.257258
1.11418 35.172 -0.147925
246.415 14.3816 0.355937
231.5 10.8568 -0.111616
234.562 25.8738 -0.27795
145.235 27.262 0.133589
602.268 14.846 -0.313018
183.004 13.9692 -0.341868
879.429 40.341 -0.230554
190.502 3.75739 -0.47647
51.7964 37.1384 0.352122
834.26 46.3377 0.426275
307.299 31.082 0.394773
754.059 24.0741 -0.430199
895.765 29.8713 0.490209
328.904 9.08246 -0.112753
823.542 28.9433 0.342288
359.68 2.63015 -0.353259
455.512 23.1743 0.397535
751.472 15.8864 -0.409886
115.705 11.7771 -0.402412
529.77 3.9571 -0.458593
844.988 17.3023 -0.198383
96.7372 7.55725 -0.17939
307.918 14.4709 0.189484
464.049 11.5474 -0.205145
910.059 2.60683 0.414092
435.757 1.86982 -0.467509
193.76 38.1933 -0.285507
830.371 10.3835 -0.312115
140.345 35.3004 -0.181309
287.866 30.9031 -0.387274
438.633 21.3133 0.211745
633.048 13.0823 -0.326453
424.12 9.71662 -0.436099
500.795 26.9207 -0.423174
868.363 43.8524 -0.408339
52.0921 10.6724 0.0982646
327.405 37.6486 -0.254716
415.66 25.7901 -0.383665
448.647 20.7193 0.242062
573.361 44.0164 0.35653
850.366 35.7787 -0.214033
738.637 34.3121 -0.354552
247.067 33.7155 0.380662
15.2468 30.6224 0.161801
730.796 36.2754 -0.135779
559.735 40.436 0.490093
251.182 38.575 -0.0949384
762.333 30.4086 0.103377
165.7 9.1501 -0.196338
401.755 21.173 0.268118
508.996 41.4257 0.103121
453.565 19.3674 0.203298
864.34 46.2989 -0.25824
466.94 3.34462 0.410401
54.5438 24.8314 0.298094
516.113 31.1809 0.341349
476.489 40.2934 0.374183
882.924 34.102 -0.239351
820.566 28.2347 -0.237269
595.718 18.1032 -0.138525
873.672 34.8053 0.432711
320.869 2.01144 -0.443921
414.984 28.4422 -0.456766
31.8193 37.6765 -0.297108
827.053 29.5279 0.141049
675.219 19.5839 -0.492589
508.208 0.782642 -0.477387
138.478 4.46458 -0.280986
467.883 39.0823 -0.0940739
13.3311 0.915151 0.328712
909.133 5.31213 0.173629
405.648 38.4009 -0.40258
[...]
POINT_DATA 13483
TENSORS Strain_matrix float
-0.0388846 -0.0789313 -0.558801 
0.0990407 -0.0743833 0.00883125 
-2.86376e-17 1.47279e-18 1 

-0.228746 -0.0794399 -1.92985 
0.109978 0.205098 4.30774 
5.14861e-18 2.11386e-18 1 

-0.048576 -0.0119418 0.226817 
-0.00591055 -0.0768639 -0.922141 
-1.21646e-18 7.37857e-18 1 

-0.334329 -0.00548134 0.471365 
0.00864831 0.0531307 0.591625 
-3.70141e-18 2.85446e-17 1 

-0.0837521 -0.0275138 0.0606506 
0.00613445 -0.0700435 0.0300986 
-2.53013e-19 5.67874e-18 1 

-0.0411662 -0.00840742 -0.524955 
0.000225218 -0.038141 -0.342134 
-1.95357e-18 2.06627e-18 1 

-0.0319076 -0.0194882 -0.0160471 
-0.00458737 -0.0945877 0.0169004 
-9.1295e-19 2.97977e-18 1 

-0.0578113 0.0252551 -0.0927839 
0.0154599 -0.0659342 -0.0241176 
9.6057e-18 2.81128e-18 1 

-0.0403887 0.047018 -0.191346 
0.038624 -0.0291977 -0.16505 
-4.05672e-18 3.54963e-18 1 

-0.0984652 -0.0374844 0.00476969 
-0.108083 -0.0839204 -0.158702 
5.76234e-18 -6.25425e-18 1 

-0.0308311 0.0121558 -0.0782561 
-0.0129862 -0.0621257 -0.147623 
2.06368e-18 -8.58492e-18 1 

-0.0492819 -0.0215333 0.146602 
-0.0299704 -0.0833943 0.43277 
2.2876e-18 2.44615e-18 1 

-0.117464 0.206154 0.866215 
-0.0510053 0.0674166 0.591208 
7.21349e-19 -8.19948e-18 1 

-0.0823238 -0.0456384 -0.211364 
0.0223262 -0.0321001 0.160744 
3.76432e-18 1.58807e-18 1 

-0.0599984 -0.0268409 0.0856449 
0.00742454 -0.0613662 0.556154 
4.47804e-18 1.79065e-18 1 

-0.0448959 -0.0321691 -0.139064 
0.00985033 -0.0356236 -0.156349 
-6.81638e-18 1.53369e-18 1 

-0.0253171 -0.0178726 -0.0477753 
0.0267173 -0.134808 -0.0928368 
-9.50233e-20 -1.90047e-19 1 

-0.0873555 -0.00180093 0.0464905 
0.0302011 -0.086994 0.0808943 
-3.96258e-18 -1.43644e-18 1 

-0.0952462 -0.0974065 0.0400595 
-0.028613 -0.0675909 -0.0196894 
-6.67389e-18 -2.58987e-18 1 

-0.0630718 0.034172 0.271724 
-0.0567178 -0.0973463 -0.032099 
2.66337e-18 3.70097e-18 1 

-0.0317673 -0.00234442 0.0779897 
0.0198687 -0.0258906 0.0148264 
1.31634e-17 1.18085e-18 1 

-0.0961009 0.00389997 0.22512 
0.0306817 0.0131461 0.0631274 
-1.32682e-18 -6.27742e-18 1 

-0.348471 -0.0177878 2.24861 
-0.0429364 0.209044 1.54546 
-4.19866e-18 -1.10707e-18 1 

-0.112689 0.0284114 0.544421 
-0.00461661 0.000241587 0.563474 
1.50601e-17 -1.51393e-17 1 

-0.0526827 -0.0265685 -0.0943106 
0.0786948 -0.0380911 0.0841867 
2.16257e-18 -5.39678e-18 1 

-0.0345673 0.0791799 -0.0752537 
-0.078227 -0.0202359 0.116591 
-1.22323e-17 1.24722e-17 1 

-0.0496722 0.0149108 4.80359 
-0.000215596 -0.0421989 -1.42494 
3.11721e-19 -3.75178e-18 1 

-0.157676 -0.0425124 0.0251291 
0.0446183 0.0580169 -0.504386 
8.14767e-18 -6.97824e-18 1 

-0.0397875 0.0165065 0.973208 
0.0185104 -0.0913854 -1.65609 
-6.02707e-18 3.76508e-18 1 

-0.111044 -0.000308506 -0.0749507 
0.0578151 -0.0159101 0.0202456 
-3.30633e-18 -4.68088e-18 1 

-0.0502998 -0.0170821 -0.259673 
0.00891324 -0.162505 0.427562 
7.19238e-18 2.02862e-18 1 

-0.0307897 0.0517639 0.162271 
0.203917 -0.102216 -0.412333 
1.18194e-17 -5.65119e-18 1 

-0.14619 -0.177082 -1.07406 
0.214173 0.0237697 -0.0399266 
4.06082e-18 4.51202e-19 1 

-0.077379 0.0275326 -1.61287 
-0.0101169 0.0217484 -1.65644 
-7.62626e-18 -2.18514e-17 1 

-0.0261751 0.047231 0.0523414 
-0.0680359 -0.066946 0.0268266 
6.20217e-18 -3.27337e-18 1 

-0.0566778 0.0013137 -0.463325 
-0.0300836 0.0116303 -0.315385 
-1.10107e-17 -4.07307e-18 1 

-0.0586256 0.00345742 0.251102 
0.00177056 -0.046176 -0.530826 
-7.52082e-18 2.45778e-18 1 

-0.0056473 -0.111431 -0.17147 
-0.00932817 -0.155175 -0.130114 
-1.68714e-18 1.15651e-17 1 

-0.0543546 -0.0350541 -0.224469 
0.0965751 -0.0399421 0.359459 
-1.1157e-18 -2.27991e-18 1 

-0.0224624 0.011322 0.0736822 
0.00354775 -0.0769326 -0.0731205 
5.70887e-18 6.79737e-19 1 

-0.0783559 0.0711058 0.373937 
-0.0562657 -0.109602 -0.304829 
-1.06105e-17 7.46146e-18 1 

0.0021929 0.0124813 0.123229 
-0.0467204 -0.0415915 0.134006 
-9.50921e-18 6.02469e-18 1 

-0.132747 0.0230412 -0.0152776 
-0.0567528 -0.0235625 -0.03945 
-6.68558e-18 4.03401e-18 1 

-0.0264334 -0.0276256 -0.101422 
0.0162998 -0.0904359 0.357523 
2.90484e-18 -1.06141e-17 1 

-0.0418824 0.0006869 -0.0116361 
-0.0217619 -0.118061 -0.117374 
6.52999e-18 6.32592e-18 1 

-0.0484515 0.00844682 0.0191479 
-0.0370686 -0.0547755 0.117486 
-6.78222e-18 9.84948e-19 1 

-0.0896433 -0.00715325 2.67894 
-0.0136158 -0.0669758 -0.0242453 
-2.39936e-18 1.40983e-19 1 

-0.0254493 0.0049322 -0.000507716 
-0.00852725 -0.125745 -8.42801e-05 
-1.21702e-18 -3.85336e-18 1 

-0.0825911 0.0926778 -0.111719 
-0.060562 0.0396002 0.209885 
1.39696e-18 -1.22932e-17 1 

-0.222552 -0.102487 0.176938 
0.00516324 0.0612293 -0.8201 
9.26181e-18 1.59129e-17 1 

-0.0147458 -0.0676231 0.180824 
-0.0546569 -0.0310457 -0.220141 
1.24803e-17 1.72805e-18 1 

-0.050963 -0.0298107 -0.0495681 
0.0154038 -0.0406443 -0.0714358 
2.47634e-18 4.72052e-18 1 

-0.0842662 -0.0164577 0.00298934 
0.00749233 -0.00705537 -0.0382591 
-1.2827e-17 -6.67332e-18 1 

-0.0833719 0.0205871 0.0679625 
-0.000445428 -0.0608945 -0.0788011 
5.51674e-18 -2.32498e-18 1 

-0.0606021 0.0111505 0.853272 
-0.021039 -0.105929 0.276467 
2.78112e-18 5.50771e-18 1 

-0.0679583 -0.0438472 -0.840668 
0.0409759 -0.00508686 0.248633 
1.55877e-18 -1.44756e-17 1 

-0.054806 -0.0444863 0.179805 
0.123667 0.0157034 0.158 
1.08574e-19 -8.46875e-18 1 

-0.0374048 0.0227918 -0.0391718 
-0.0136641 -0.108019 -0.0076127 
9.16041e-19 9.42159e-18 1 

-0.0233999 0.026842 0.0556878 
0.000334002 -0.150923 -0.0972178 
-7.82941e-18 -8.82187e-18 1 

-0.0464284 0.0197735 -0.0374028 
-0.0104324 -0.0707524 -0.0875833 
-1.2551e-17 -2.48856e-18 1 

-0.0691967 0.256296 -0.00365186 
0.0549046 0.140087 0.154883 
7.51731e-19 -1.06913e-17 1 

-0.0870744 -0.0386367 0.227218 
-0.0277104 -0.0149353 0.000775968 
6.14493e-18 5.51486e-18 1 

-0.0573969 -0.0391677 -0.159969 
-0.000579403 -0.0428751 -0.0361724 
-7.12272e-18 -2.18766e-17 1 

-0.108976 -0.0084707 -0.280125 
0.0278363 -0.0461533 0.0827391 
3.54399e-18 5.17808e-18 1 

-0.059124 0.0179074 -0.0534288 
0.0281684 0.00121445 -0.148863 
2.40204e-18 -1.48512e-17 1 

-0.0942078 0.042843 0.357834 
-0.0134192 -0.0377222 -0.0834246 
-5.55494e-18 -2.54351e-18 1 

-0.112029 0.0546909 0.0171733 
-0.0585623 -0.0674857 -0.144406 
3.95523e-18 1.95784e-18 1 

-0.133316 -0.048609 -0.427581 
0.0947962 0.0370823 -0.573153 
9.02341e-18 3.62304e-18 1 

-0.0718136 0.00366013 0.0257887 
-0.0551511 -0.093903 0.749479 
7.48521e-19 3.33286e-18 1 

-0.111928 -0.0166286 0.0516959 
-0.0176708 -0.0911075 0.100757 
1.16029e-18 1.00483e-17 1 

-0.170226 0.0854454 1.08568 
0.0286863 0.051958 -0.159417 
-6.20122e-18 -3.60373e-18 1 

-0.0279283 0.00495482 0.0558585 
-0.00175797 -0.0736993 -0.0717595 
1.38263e-18 5.11936e-18 1 

-0.0441664 -0.0106685 -0.162143 
-0.0660876 -0.0414417 0.168284 
-2.57215e-18 2.28636e-18 1 

-0.0789587 0.0127854 0.10408 
-0.0170621 -0.0469242 -0.154155 
8.87273e-18 2.01149e-18 1 

-0.0574551 -0.00492833 -0.361491 
0.00184479 -0.0608899 -0.401412 
-3.21544e-18 8.68519e-19 1 

-0.0134433 -0.00954916 0.0606096 
-0.0461443 -0.123207 0.0373831 
-7.14075e-18 1.12521e-17 1 

-0.0971984 0.266732 0.112939 
0.321943 -0.0987407 -0.660849 
6.90057e-18 8.8174e-18 1 

-0.0369721 -0.0125886 0.000639274 
-0.0110886 -0.0619887 0.344744 
0 1.71207e-17 1 

-0.16899 -0.0312055 -0.558659 
-0.0178152 -0.00359674 -0.0986883 
2.5566e-18 -2.70751e-18 1 

-0.0835715 0.0173295 0.0708947 
-0.0170904 -0.047651 0.0557193 
-9.18732e-18 6.99381e-19 1 

-0.182295 0.11554 -0.217254 
-0.121501 -0.0405519 0.20571 
-1.27075e-17 5.98289e-18 1 

-0.0334208 -0.0506858 0.381109 
-0.00374129 -0.00298272 -0.0586273 
1.2901e-17 7.90054e-19 1 

-0.0392825 0.0257557 0.227264 
-0.0181277 -0.0248322 0.188485 
-5.50895e-18 1.16347e-18 1 

-0.072578 0.0841591 0.353819 
-0.0599933 -0.0459942 0.173265 
-7.83258e-18 4.4805e-18 1 

-0.0756275 -0.0844437 0.203816 
0.111856 -0.0108572 -0.0782838 
2.5128e-18 3.52673e-19 1 

-0.0450513 0.362653 -0.165753 
-0.309538 0.0835122 -0.235135 
-3.90735e-19 -1.2339e-19 1 

-0.236051 -0.0311204 -0.67188 
0.009666 0.126695 -0.104692 
-5.2168e-18 5.07841e-17 1 

-0.0649121 0.0274114 0.273397 
0.03613 -0.0818499 -0.168466 
1.13399e-17 1.39707e-17 1 

-0.077069 -0.038396 0.0146889 
-0.00702707 -0.0720969 -0.12943 
-3.98673e-18 8.26568e-18 1 

-0.0646862 0.0200887 0.0974055 
0.00485621 -0.0741342 0.204392 
-8.69132e-18 3.16048e-18 1 

-0.03082 0.00710221 -0.148526 
-0.0124065 -0.0785133 0.140524 
1.06662e-17 3.55e-18 1 

-0.0375004 0.0333873 -0.00183859 
0.00305789 -0.085134 0.286459 
8.0706e-18 -1.06385e-17 1 

-0.154498 0.00292117 -7.44263 
0.0588294 0.0476971 -0.512468 
3.02033e-18 1.16486e-18 1 

-0.0917459 -0.0381224 0.0252236 
-0.0182532 -0.0234155 0.0781483 
4.46964e-18 2.87334e-18 1 

-0.032026 0.0042198 0.0669168 
0.0441246 -0.0158012 -0.0732958 
-8.54034e-18 1.00929e-17 1 

-0.0733301 0.0217564 0.0284059 
-0.00793104 0.0865546 -0.357896 
4.75366e-18 7.08132e-18 1 

-0.0705025 0.029294 -0.0145891 
-0.0223763 -0.0407683 0.0472342 
1.11759e-17 7.99218e-18 1 

-0.183338 0.0130455 -0.0006298 
0.0385986 -0.0160977 -0.0221585 
-2.40399e-18 2.93822e-18 1 

-0.0581805 -0.0290302 -0.0393035 
0.027434 -0.04003 0.00721186 
-1.32618e-19 3.84593e-18 1 

-0.0225082 0.0178289 -0.00327969 
-0.0473534 -0.0770132 0.0445029 
7.70193e-18 -1.03113e-17 1 

-0.0566271 -0.0189264 -0.601707 
0.0142705 -0.0340636 -0.520683 
2.99567e-18 6.74142e-18 1 

-0.096682 -0.0111468 0.0324085 
0.001344 -0.047951 -0.490264 
-5.55629e-18 -4.7968e-18 1 

-0.0399496 -0.00847268 -0.424458 
0.0195802 -0.05967 -2.13425 
-1.91182e-18 7.32988e-18 1 

-0.0825305 -0.0599762 -0.157673 
-0.0176064 -0.0054326 -0.193553 
9.4138e-18 -5.41801e-19 1 

-0.0445725 -0.0200566 0.137357 
0.0092087 -0.104772 0.0658155 
8.77609e-18 -6.23397e-18 1 

-0.0708957 0.00985321 0.233102 
0.0234376 -0.0594592 0.0237367 
-4.51533e-18 7.23374e-18 1 

-0.270951 0.0605225 0.0640556 
-0.058027 -0.0307378 0.0245545 
5.75188e-18 5.13245e-18 1 

-0.0390813 0.0185726 0.389517 
-0.0440567 -0.0664085 0.153728 
-9.31495e-18 4.10175e-18 1 

-0.0658021 -0.00371612 0.000441099 
0.00467582 -0.0879422 0.0437652 
-3.68526e-18 -3.48232e-18 1 

-0.0791923 0.0253769 -0.0117942 
0.0100576 -0.0869881 0.0672772 
-1.10462e-17 -6.10776e-18 1 

-0.0696958 0.028283 -1.01385 
0.0310632 0.0139309 3.35978 
3.95073e-18 -2.22173e-17 1 

-0.0192923 0.0693019 -3.19005 
0.0367472 -0.104609 0.12802 
8.89121e-19 -5.15501e-18 1 

-0.0366066 0.0236446 -0.0414636 
-0.00455705 -0.127689 -0.0379656 
-8.49088e-18 2.13241e-18 1 

-0.0517086 -0.0698075 0.104795 
0.111929 -0.0194152 0.530654 
1.52926e-18 1.64599e-17 1 

-0.116047 -0.0133172 -0.0944816 
0.00520829 0.0594391 -0.198313 
4.79486e-18 -1.37725e-17 1 

-0.0388677 -0.0240591 -0.246988 
0.0295788 -0.0369282 -0.182956 
8.24679e-18 -9.54403e-18 1 

-0.0564775 0.0597632 0.0333565 
0.0019157 -0.0369737 0.0511131 
-3.11503e-18 4.98405e-18 1 

-0.0403912 0.00841882 -0.0657078 
0.0442663 -0.0753466 0.0198083 
8.47824e-18 4.40428e-18 1 

-0.0611833 0.108193 0.174929 
-0.0565513 -0.0332256 0.151652 
6.66495e-18 -2.22692e-18 1 

-0.0547778 0.0254499 -0.0650399 
-0.0295571 -0.0220577 -0.335659 
9.71317e-18 -5.23818e-18 1 

-0.130981 0.0451803 -0.112826 
-0.0135633 -0.123414 -0.0999949 
6.17408e-18 -5.70516e-18 1 

-0.125575 0.068385 0.104319 
-0.0202545 -0.0371151 0.225714 
5.6241e-19 9.8638e-19 1 

-0.0427279 0.0359829 -0.0580017 
-0.0755335 -0.00865281 -0.137277 
-1.26617e-17 2.29966e-18 1 

-0.097048 -0.0183651 -0.189947 
-0.017805 0.0170977 0.0235178 
7.71902e-19 -2.75312e-18 1 

-0.0416918 0.00153661 5.01253 
-0.0036277 -0.0686064 -4.18142 
2.44415e-19 7.52911e-19 1 

-0.0504787 0.0119366 -0.458028 
-0.019381 -0.125954 -0.0153808 
-3.10874e-18 1.09979e-18 1 

-0.0634891 -0.0206279 -0.0781347 
0.0025186 -0.0404059 0.0685012 
-1.28829e-17 6.31415e-18 1 

-0.0780388 0.029983 0.0384868 
-0.0320378 -0.0123848 -0.0724099 
8.11435e-18 4.18805e-18 1 

-0.0448914 -0.0130676 -0.0731752 
-0.00771003 -0.0494669 -0.120676 
-3.25121e-19 3.77953e-18 1 

-0.0377812 0.0151141 0.328253 
-0.0191369 -0.0785463 2.26472 
1.01439e-17 4.84606e-18 1 

-0.0814407 0.0239632 0.119659 
0.0137976 0.0259951 -0.224157 
3.70558e-19 -5.06076e-18 1 

-0.166993 0.0450202 0.13146 
0.0429598 0.0604443 -0.161057 
5.92211e-18 3.47088e-18 1 

-0.0401784 -0.004948 -0.0861575 
-0.00871406 -0.028587 0.118655 
5.36302e-18 4.08997e-18 1 

-0.227966 0.0853942 0.237598 
0.106766 -0.0496306 -0.156211 
8.48232e-19 1.26023e-17 1 

-0.0562523 -0.0492162 0.0843276 
-0.0253158 -0.0157494 -0.104872 
1.24898e-17 -6.43637e-18 1 

-0.0317939 -0.0132365 -0.2822 
-0.0453705 -0.0131767 0.0972347 
-2.16934e-18 -9.43636e-18 1 

-0.176025 0.267701 -1.12927 
0.102682 -0.0480116 -0.0470985 
-5.14241e-18 -4.58861e-18 1 

-0.0724846 -0.00190173 -0.177925 
0.0770452 -0.025582 -0.647271 
4.51805e-18 3.85296e-18 1 

-0.0691013 0.0111201 -0.0234324 
0.0135389 -0.054314 0.12098 
1.80936e-17 -1.00183e-17 1 

-0.0275276 -0.0136147 0.111204 
-0.0349051 -0.0613564 0.0894501 
3.66505e-18 -1.21326e-17 1 

-0.0901018 -0.0217245 0.248716 
0.0247461 -0.0406373 0.0845672 
-7.74379e-18 3.64414e-18 1 

-0.039737 -0.0350444 -0.134951 
0.0650339 -0.043502 -0.0050887 
1.51312e-17 9.10718e-18 1 

-0.0396847 -0.0426183 -0.242764 
0.0583126 -0.0544041 -0.0209879 
1.24863e-18 -1.11946e-18 1 

-0.0322872 -0.00994313 -0.119979 
0.0289589 -0.0407797 -0.1046 
-7.9031e-18 -7.60903e-18 1 

-0.0207618 -0.0151468 0.311018 
0.00577534 -0.00935922 0.188661 
2.64691e-18 -1.07618e-17 1 

-0.245883 -0.342688 -0.513248 
-0.0468411 0.188239 0.391181 
4.89834e-18 -7.28471e-18 1 

-0.210355 -0.025206 0.264747 
0.067386 -0.051732 0.214889 
-8.88099e-18 -1.86123e-17 1 

-0.0348299 0.00791467 -0.503343 
-0.0138769 -0.100532 -0.420217 
8.12459e-19 -5.68721e-18 1 

-0.0591979 -0.0338103 0.044398 
0.0521023 -0.0489043 -0.26928 
8.41435e-18 2.19859e-17 1 

0.00399626 0.0125491 0.140557 
0.0485414 -0.0951916 -0.0412108 
6.16549e-18 6.31262e-18 1 

-0.0468155 -0.0357639 2.82033 
0.0316045 -0.0431194 1.28099 
-1.36535e-18 1.4296e-18 1 

-0.0981369 0.0643067 -0.0425919 
0.0224756 -0.0321964 -0.160671 
1.17838e-17 -2.92728e-18 1 

-0.0719372 -0.0253828 0.0391435 
-0.00805194 -0.0825243 -0.167151 
-5.58562e-18 9.66973e-18 1 

-0.0503604 -0.0154549 -0.879139 
0.0120226 -0.025854 0.0585173 
-6.72961e-19 4.86383e-18 1 

-0.0365112 -0.0153456 1.15887 
-0.0186717 -0.0668027 -0.203198 
-3.68372e-18 8.58834e-18 1 

-0.133225 -0.0411365 -0.0730823 
0.0306748 0.0236359 0.150964 
-2.51598e-18 3.76752e-17 1 

-0.107528 -0.059623 -0.514239 
0.0276949 0.0469091 1.13765 
4.93558e-19 -1.17233e-18 1 

-0.0499158 -0.0128332 1.7607 
-0.0261175 -0.0277236 2.70619 
6.56302e-18 -4.13647e-18 1 

-0.102592 -0.0445989 0.254444 
0.00629992 0.186237 -0.172092 
-1.17716e-19 2.20297e-18 1 

-0.170683 0.0727529 -0.193988 
0.00109007 -0.102063 0.183677 
6.10453e-19 9.50017e-18 1 

-0.115344 0.0304316 -1.65093 
-0.0272525 -0.0258232 6.55472 
2.1479e-18 8.67722e-18 1 

-0.0700253 -0.00597154 0.0166484 
-0.0168119 -0.0972091 0.160129 
4.10787e-18 -9.29611e-18 1 

-0.0524996 -0.00807284 -0.40548 
0.0283718 -0.0334561 0.52378 
-1.14031e-17 -6.39875e-18 1 

-0.0803079 -0.158729 10.5829 
0.010862 -0.055502 6.47568 
1.1113e-18 -5.28485e-18 1 

-0.0548808 0.0103657 -0.287297 
0.0522313 -0.0785003 0.113363 
5.62291e-18 6.92331e-19 1 

-0.254682 0.174368 -0.151954 
-0.0433852 -0.079567 0.222558 
-2.78424e-18 2.46049e-18 1 

-0.0227919 0.0266785 0.0150174 
-0.0087735 -0.0832694 0.0554888 
-8.5129e-18 2.12822e-19 1 

-0.0659547 -0.00555159 0.114457 
-0.0334657 -0.0412807 -0.112037 
-7.2186e-18 4.5393e-19 1 

-0.0202383 -0.0433781 0.0129212 
-0.003666 -0.115108 0.128089 
-2.68486e-19 3.32731e-18 1 

-0.0400829 0.00660087 -0.101219 
-0.00872448 -0.124879 0.361218 
1.71876e-17 -1.23213e-17 1 

-0.0320647 0.00708014 0.0215528 
0.0137568 -0.0705898 0.108065 
-1.68071e-17 8.67464e-19 1 

-0.0480775 0.0180593 0.0131187 
0.0346214 -0.0140749 -0.0557137 
3.65379e-18 -4.40123e-18 1 

-0.0783918 0.0482516 0.0732601 
0.105106 -0.146257 -0.380504 
1.61509e-18 -1.43563e-17 1 

-0.0663057 0.00819939 0.502874 
3.19317e-05 -0.0185121 -0.271619 
2.21389e-19 -2.58487e-18 1 

-0.0636512 -0.00371514 0.023645 
0.0288328 -0.0617315 -0.092836 
-2.84268e-18 3.93601e-18 1 

-0.0897256 0.0226859 -0.0284144 
-0.0328702 -0.0103881 -0.37039 
1.57278e-17 -5.21836e-18 1 

-0.336861 0.00679975 1.47292 
0.189318 0.104019 -1.27733 
5.98281e-18 8.55486e-18 1 

-0.0598678 0.00571242 0.0470234 
-0.016728 -0.059017 -0.128371 
3.60063e-19 -4.27673e-19 1 

-0.0384978 0.0144507 0.0186321 
0.0030246 -0.0446714 -0.221676 
-2.58303e-18 -7.65445e-19 1 

-0.0825954 0.0607204 -0.0166968 
-0.0361179 -0.0879454 -0.0468744 
1.09734e-17 -1.45404e-18 1 

-0.0118518 0.120465 0.453127 
-0.0925943 -0.062486 -0.4576 
1.29981e-17 -8.29612e-18 1 

-0.0800501 -0.0191109 -0.0262561 
-0.034011 -0.151742 0.255056 
1.37236e-19 -3.22505e-18 1 

-0.0443918 -0.00975464 -0.0367659 
-0.0368382 -0.0695454 0.013298 
1.99366e-18 3.92195e-18 1 

-0.0574847 0.00610795 -0.399792 
0.0141179 -0.0711812 0.610341 
1.16038e-18 5.46599e-18 1 

-0.139552 -0.0124189 -0.0917484 
0.07407 0.0350737 -0.294415 
1.34689e-17 -7.81762e-18 1 

-0.0614665 0.0149401 0.0406706 
-0.0757851 -0.0614881 0.138773 
-8.19291e-18 -2.62173e-19 1 

-0.0852764 -0.0408861 0.303749 
-0.0480381 -0.0601353 0.387452 
3.30633e-18 6.99684e-18 1 

-0.116002 -0.0698266 -0.241315 
0.0614109 -0.00810411 -0.00893376 
2.5921e-18 -1.0145e-17 1 

-0.0456533 -0.0233386 -0.161332 
-0.00934192 -0.0725816 0.163095 
-5.2598e-18 -1.3807e-17 1 

-0.187208 0.0807644 -0.0491283 
-0.0213353 -0.0214488 0.144676 
7.62736e-18 -2.19454e-17 1 

-0.0754366 -0.0224376 -0.146257 
0.0402459 -0.0392351 -0.0944564 
6.62367e-18 -2.27924e-18 1 

-0.0623847 -0.0749685 -0.117094 
0.029296 -0.0724094 -0.0350794 
8.7246e-19 -1.13701e-17 1 

-0.198664 -0.113923 0.20934 
0.0759793 0.0153062 0.111778 
-3.49931e-18 -8.561e-19 1 

-0.167363 0.0362503 -0.448346 
-0.125241 0.0446505 -0.435673 
-6.83567e-18 -1.66678e-17 1 

-0.13163 0.0460274 -0.0310537 
-0.10262 -0.0224201 0.0199821 
9.14149e-18 -6.48261e-18 1 

-0.0705502 0.0603177 0.124024 
-0.0626184 -0.0154638 -0.107616 
-4.38027e-18 4.47962e-18 1 

-0.0461134 0.0221564 -0.174396 
-0.014167 -0.11245 -0.320368 
-3.81987e-18 -4.01576e-18 1 

-0.000110704 -0.0214944 0.146575 
-0.0619777 -0.0600333 -0.513025 
8.73436e-18 0 1 

-0.0564429 -0.023919 -0.0344515 
-0.0440772 -0.0706751 0.237314 
3.48686e-18 1.07949e-17 1 

-0.11603 0.0408889 -0.122322 
0.000683017 -0.0117892 -0.434773 
-4.44145e-20 -4.33706e-18 1 

-0.0570603 0.0604955 0.0585841 
-0.113143 -0.0897461 0.000394297 
1.20158e-17 4.65128e-18 1 

-0.0367883 0.0130209 -0.0250842 
-0.0540503 -0.0621553 -0.0081143 
-6.65121e-18 5.8312e-18 1 

-0.203846 -0.0132304 -0.207042 
0.00856983 -0.0282324 0.0874586 
3.63772e-18 -3.68896e-18 1 

-0.0924386 -0.0461932 0.660636 
0.0255047 0.0998439 0.194119 
7.11274e-19 1.98332e-17 1 

-0.108494 0.0612706 -0.129512 
0.0440046 0.0459353 -0.246712 
9.97777e-18 -4.8833e-18 1 

-0.032038 -0.00170857 -0.166342 
-0.0246663 -0.0507835 -0.0955707 
6.81325e-18 -3.25144e-19 1 

-0.0453294 -0.024308 0.13669 
0.0304582 -0.0334254 0.117622 
-1.66882e-17 -2.8145e-18 1 

-0.0541563 0.0133979 0.0869648 
0.0206097 -0.00732381 -0.0882846 
2.46118e-18 -3.42951e-19 1 

-0.0988122 0.311804 0.828219 
-0.0430098 -0.0863901 -0.218685 
-8.16062e-19 5.74977e-18 1 

-0.010314 -0.0192501 0.0810951 
-0.0957891 -0.030689 -0.210629 
-4.54886e-18 5.45942e-19 1 

-0.0306176 -0.00759929 -0.00486929 
-0.0390991 -0.0463613 0.122205 
2.76461e-18 2.38457e-18 1 

-0.0976335 -0.00884561 -0.0162581 
0.0173601 -0.0554927 -0.493428 
6.397e-18 1.01384e-17 1 

-0.0419595 0.0474337 -0.159789 
0.0657037 -0.0531806 0.384906 
-7.62087e-18 -4.19148e-18 1 

-0.0448337 -0.00215975 1.70066 
-0.0229383 -0.0363976 -2.26083 
3.65394e-18 3.45111e-19 1 

-0.0872962 0.0713185 -0.0509005 
-0.017649 -0.0111189 -0.203843 
-3.23883e-18 -3.40929e-18 1 

-0.0441797 -0.0183806 -0.0568027 