# vtk DataFile Version 3.0
Output file generated by Yade's KinematicLocalisationAnalyser
ASCII
DATASET UNSTRUCTURED_GRID

POINTS 13483 float
395.296 54.7893 -0.459709
487.847 65.041 -0.511296
99.1959 6.01657 0.464021
512.726 18.4761 0.416292
338.676 24.9748 0.435057
243.878 57.2934 0.455371
126.847 7.27776 -0.482267
392.223 10.7623 0.255366
334.463 52.6384 -0.184771
461.814 40.1201 -0.610309
166.182 8.79487 -0.095495
202.791 7.48461 -0.289381
419.697 67.8996 -0.145027
414.019 43.0055 0.0809413
111.392 21.3356 0.453048
182.144 41.5278 0.430568
173.272 13.097 0.24723
218.957 26.8687 0.471383
257.744 67.8304 0.467063
354.293 10.0102 0.371031
295.049 72.1501 -0.109583
377.628 63.8429 -0.283642
509.408 56.0516 0.483403
464.833 102.166 0.429233
320.457 24.0232 0.346773
183.96 64.3492 0.121982
334.124 60.4172 -0.514407
398.208 25.2907 -0.274669
35.6224 17.3638 -0.499607
463.288 80.2539 -0.359794
337.318 4.82548 0.509126
15.959 27.0141 0.302888
496.699 76.5878 -0.2801
335.705 18.1949 0.704969
61.5053 53.1776 0.106443
346.862 40.8587 0.375543
360.286 17.1624 -0.499344
256.807 39.0883 0.192063
364.105 28.6142 -0.394606
264.468 65.7156 0.418128
190.864 17.1677 0.332156
304.343 61.7531 0.06639
441.562 23.057 0.140733
152.342 6.18509 -0.58026
45.6586 10.9633 0.106105
54.643 9.76686 0.297661
447.904 36.3873 0.541216
20.7506 12.0905 -0.311568
371.465 81.4996 0.435839
433.824 56.5704 -0.309036
135.707 43.0392 -0.296125
487.813 51.7256 0.116811
25.7499 36.6366 -0.113289
362.254 2.55684 0.622459
116.426 9.48156 0.604905
387.493 51.9123 -0.466625
335.799 54.3701 0.134049
139.794 1.02441 0.292055
29.2953 2.32951 -0.399388
252.784 26.5118 0.271062
382.207 90.217 0.131359
325.809 62.5499 -0.182027
283.776 2.52006 0.32452
456.182 36.7829 0.535106
16.239 54.7986 -0.272503
203.746 58.7314 -0.36888
458.505 30.9144 -0.267919
433.828 91.8922 -0.342769
297.297 10.5457 -0.622569
392.354 3.74378 -0.521981
473.689 36.5559 0.494245
108.919 8.52459 0.428572
335.875 58.0335 -0.141725
325.327 33.1626 0.0955978
223.727 34.104 -0.439599
18.5601 14.3666 0.306806
505.641 78.3939 0.359035
252.216 75.6712 -0.313117
432.273 51.8365 0.349879
443.976 39.4813 -0.274261
503.182 20.7119 -0.325239
326.132 66.7471 -0.188366
75.9107 49.216 0.291651
454.974 89.8482 0.21225
412.156 81.5997 -0.0248408
509.192 69.075 -0.108902
507.037 0.621451 0.689633
224.642 44.7892 0.418727
413.644 28.7439 -0.108821
22.3471 5.79754 -0.663129
108.628 45.4001 0.145006
350.586 20.1382 0.321202
492.454 37.92 0.632633
156.624 34.3679 0.253448
30.342 41.427 0.294168
345.011 0.997598 0.261235
189.375 8.93199 -0.694754
486.722 80.4837 -0.297731
484.483 39.1754 0.263346
259.893 29.0232 0.280806
131.585 35.0796 0.471447
360.822 54.5381 -0.494687
272.299 18.8384 -0.591282
297.064 48.849 0.133957
268.421 6.8298 0.673313
375.554 11.5609 -0.138436
510.448 32.611 0.240851
64.4782 48.8324 -0.485197
243.124 7.5417 0.241468
386.385 10.93 -0.579361
279.681 68.6283 0.437868
19.3341 33.7119 0.484525
27.2261 5.56781 -0.321021
369.629 55.8881 0.506036
338.555 42.1048 0.214964
13.0371 49.039 -0.317744
75.9656 39.1844 0.220605
237.551 20.622 0.354205
398.151 41.3556 0.126922
331.807 77.655 0.193239
456.518 7.0619 -0.540287
451.963 9.68456 -0.287438
288.077 56.5606 0.10412
410.541 59.0287 0.100599
189.664 22.6657 0.541553
239.888 5.9686 0.604754
81.8406 39.8707 0.332242
95.2858 26.7448 -0.268708
362.19 50.8541 0.0734527
236.997 28.4812 0.479978
462.276 82.1856 -0.109394
438.289 92.9976 0.118124
326.264 43.0882 -0.40863
492.249 13.9529 0.550241
302.015 36.3948 0.255158
211.708 43.5212 -0.300654
434.515 76.5753 -0.290152
216.958 52.2956 0.388186
401.009 11.5701 -0.21789
253.369 71.2875 0.188931
345.401 22.1362 0.567315
269.639 42.0991 0.114754
303.357 21.1742 0.135567
240.628 67.6972 -0.451139
153.163 36.6625 -0.134954
491.672 67.2579 -0.208748
507.385 33.7665 -0.319611
5.95103 12.9781 0.461092
302.55 30.574 -0.434962
28.7893 26.1535 0.0802593
282.11 43.0278 -0.578446
286.131 38.0457 -0.256625
60.5266 12.7154 0.508082
38.1359 38.8805 0.470243
181.803 13.2414 0.567935
385.703 83.5805 -0.374468
393.921 26.9485 -0.502318
62.0855 24.6441 0.532444
466.652 106.341 -0.405441
482.161 4.03934 -0.555034
426.881 85.058 -0.463882
448.606 18.8655 -0.544922
374.75 30.3956 -0.477967
379.219 63.0407 -0.457956
349.903 27.7473 -0.419742
512.5 13.879 -0.378199
181.909 27.6765 0.119093
106.009 40.6503 0.191045
198.052 11.6112 -0.614232
77.2066 4.88818 -0.297064
52.6948 12.4992 0.213726
220.559 60.3255 -0.300419
14.8923 28.3628 -0.366498
383.594 21.0013 0.642373
375.422 76.0371 -0.195173
323.308 30.2759 -0.435578
514.965 87.7825 0.350974
290.838 10.5351 -0.264611
306.858 49.2234 -0.489625
369.276 3.46757 -0.362183
18.1985 29.2714 -0.431055
403.37 3.9949 0.531526
376.914 3.90116 -0.327229
165.406 12.3624 0.553258
301.141 18.4685 -0.226104
229.016 7.00429 0.487069
282.163 26.8181 -0.395257
477.107 69.231 0.101781
155.549 31.6037 0.438736
499.508 6.26783 0.416151
474.697 62.0784 0.419974
276.538 12.7777 0.525577
446.074 3.30489 0.623948
399.684 55.5979 -0.419517
464.926 20.1035 -0.439262
314.099 69.8304 -0.22459
342.268 28.3033 -0.513652
322.117 78.2578 -0.19811
316.203 16.1732 -0.360391
430.799 85.7696 -0.248081
429.825 81.8792 0.331205
157.31 44.9917 -0.347249
504.278 17.8291 -0.152441
379.977 57.0548 -0.293294
11.7438 17.9231 0.171606
293.102 38.4714 0.363681
149.687 30.6735 0.412898
76.9852 50.6653 -0.242913
488.71 29.9085 0.568666
424.531 91.4881 -0.243043
248.541 44.5214 0.380268
366.671 10.1909 0.351746
66.5867 54.4413 -0.170794
197.853 43.7018 -0.482995
380.4 31.7944 0.353461
330.881 42.3242 0.466503
210.638 0.864842 -0.418686
359.109 64.4819 -0.455998
361.009 44.8904 -0.488036
342.382 75.3019 -0.377369
345.259 6.34995 -0.688172
447.157 58.5554 0.416134
145.91 14.6392 0.216607
351.897 72.5172 0.413563
364.933 75.487 -0.12119
59.2581 0.907086 -0.295172
201.479 5.9186 -0.21316
506.087 35.1396 0.278566
503.028 22.7011 -0.555347
512.427 38.0682 -0.578279
221.638 10.0221 0.386889
469.986 25.4122 -0.474984
294.345 81.3332 0.1462
322.292 1.90731 0.578361
417.537 79.8467 0.452763
11.7707 42.7909 -0.295026
254.722 78.0371 0.473392
202.396 4.20832 0.417228
499.757 79.6038 -0.257118
477.443 86.611 0.25761
220.642 29.1221 0.189152
429.511 74.3374 0.089593
388.377 2.55005 0.277983
375.003 6.8218 0.631779
80.796 18.4929 -0.550254
224.053 1.00666 -0.546659
249.77 4.39398 -0.478679
12.9811 7.94395 0.688207
4.16613 32.445 -0.261886
131.161 22.9913 0.352911
54.1228 47.9621 -0.225907
55.6896 35.1918 -0.29752
301.651 16.7082 -0.460797
275.708 43.4259 -0.480072
485.823 52.7936 -0.123735
18.0276 4.0233 0.302947
57.4602 7.6919 -0.199844
393.611 82.1509 -0.160349
217.408 1.63823 0.56719
266.023 23.1432 -0.0973571
191.176 5.682 -0.625933
423.395 53.9511 -0.205983
319.558 12.3269 0.488358
471.557 22.0729 0.430788
408.967 62.9152 0.312405
434.745 47.2672 0.110854
298.454 37.1145 0.517754
87.3218 53.5363 -0.30952
356.921 54.3108 0.0921153
461.035 12.5603 0.274439
194.682 48.1523 -0.242791
23.4718 24.4415 -0.167476
246.225 21.4273 0.702592
90.3602 46.8641 0.506476
217.536 68.5157 -0.188313
308.588 2.40851 -0.229513
494.625 48.9004 -0.464137
441.111 2.70321 -0.734242
242.745 4.07818 0.548469
236.341 40.5218 0.169533
322.926 74.9472 0.19649
66.9107 9.22719 -0.601977
164.312 49.6291 -0.415068
485.89 42.4558 -0.568656
358.352 80.1006 -0.0673986
165.659 44.9422 0.367648
133.715 60.366 -0.392198
512.638 62.6907 -0.417443
509.221 33.5648 -0.644142
429.683 5.192 -0.60839
153.702 31.6828 -0.110499
374.865 35.2823 -0.111477
376.976 31.973 0.300696
295.057 7.51439 -0.139902
341.762 0.781151 0.505866
483.173 53.8141 0.493549
70.2877 40.1055 -0.223053
433.324 42.5827 0.488588
210.441 32.222 -0.334123
8.2866 2.57801 0.419203
104.216 41.7032 -0.194123
56.7813 30.0062 0.429936
464.26 89.5738 0.291015
500.231 87.307 -0.183071
149.173 35.8184 -0.178139
505.842 30.6734 0.467081
32.1689 43.2021 0.256334
76.1623 35.7211 0.153921
423.793 38.9739 0.356908
294.419 25.8841 -0.5473
358.675 18.0141 0.152843
192.52 41.6359 -0.212546
416.129 27.2543 -0.468305
513.03 31.7094 0.467467
15.4762 42.8685 -0.266273
213.669 13.5103 -0.316464
179.863 15.7482 0.261879
1.06042 37.0902 0.158295
182.646 14.5585 0.442399
170.656 11.1475 0.200474
179.077 28.6646 -0.278691
111.952 34.399 0.13964
380.903 15.6069 -0.402194
135.797 18.1944 -0.367449
496.43 73.2957 -0.21874
141.119 5.82887 -0.624246
34.323 43.7162 0.369044
479.169 79.8064 0.560337
222.13 52.6793 0.392576
435.964 64.7683 -0.468798
503.651 66.0085 0.504882
221.417 12.0226 0.119778
465.206 58.3158 0.385415
241.682 2.67345 0.525705
297.562 30.3899 -0.428805
438.43 43.6535 -0.532555
88.3655 12.109 -0.621121
343.945 5.30908 -0.661521
473.235 19.8029 0.273659
72.4926 7.99633 0.368643
214.255 29.8013 0.197254
303.889 13.7637 0.200416
514.209 9.44076 0.519909
287.177 1.8739 -0.588671
146.352 50.5449 0.271454
463.404 10.1385 -0.484771
107.433 42.4745 0.182628
211.629 55.4665 -0.371518
290.281 28.7461 0.237156
403.036 14.1815 0.420841
278.482 10.047 -0.60821
319.347 49.7893 -0.412495
489.341 65.3379 -0.510338
39.9209 15.2785 -0.102031
238.611 51.2614 -0.361637
279.343 35.7242 -0.461094
293.793 24.1728 -0.396802
354.2 51.4213 -0.415556
494.38 81.6003 0.318566
436.092 83.0894 -0.348988
185.452 49.0835 0.434541
8.54841 42.9829 -0.158877
427.88 81.7038 -0.140291
350.2 57.6297 -0.620823
184.682 55.0961 -0.0955559
451.864 86.4094 0.114023
124.451 10.1574 -0.205241
269.92 30.1215 0.28854
323.797 76.8865 0.097399
295.394 28.9224 -0.246095
483.571 67.8743 -0.366294
308.904 5.49903 0.620584
39.5453 29.2672 0.333658
334.536 71.3482 -0.34315
306.129 54.3817 -0.382519
502.741 69.5482 -0.269434
468.193 54.9382 0.272594
376.331 20.4022 -0.237939
496.519 64.176 -0.557364
218.229 2.35958 -0.63689
283.522 42.2889 -0.457223
16.7671 49.7987 -0.293334
472.792 53.6531 0.163296
404.969 43.3517 -0.519427
326.634 0.820487 0.652919
106.2 5.68102 0.418403
309.505 64.6891 0.110839
10.6502 0.930073 0.364485
509.641 16.6411 0.12964
277.799 49.0281 -0.440726
[...]
POINT_DATA 13483
TENSORS Strain_matrix float
-1.98645 -1.07068 -0.154692 
0.916139 0.726335 2.47731 
3.53049e-18 -6.60675e-18 1 

-1.30953 1.41881 -34.5432 
0.128477 1.07299 -20.901 
-2.32737e-18 8.06181e-18 1 

-0.228501 -0.227832 -0.0367499 
0.123808 0.000891773 -0.511147 
-3.96216e-18 1.95467e-17 1 

-1.33194 -0.69979 1.41739 
0.709678 0.48784 0.0661293 
-4.77668e-18 1.22051e-17 1 

-0.541959 0.410873 0.510883 
-0.669826 0.266613 -0.94369 
-4.0244e-18 4.42877e-18 1 

0.229107 -0.844249 0.46159 
1.01416 0.876552 -0.698654 
-1.21961e-17 -1.72688e-18 1 

-0.491998 0.0328064 0.877161 
0.133088 0.171052 0.525015 
3.3032e-18 -1.62848e-17 1 

-0.246353 0.0182746 -0.199617 
0.0461278 -0.115613 0.0454043 
-7.08352e-18 -1.22422e-17 1 

-2.58333 0.0192344 -0.0408389 
-0.934282 0.499789 -1.064 
1.32476e-18 -4.25155e-18 1 

-1.41206 0.190238 -6.30978 
-0.997605 0.745646 0.171719 
-5.57943e-18 -3.45119e-19 1 

-0.445027 0.00545889 -0.68238 
-0.0444285 0.11003 -0.150775 
-2.14536e-17 2.33924e-17 1 

-0.236159 -0.327176 0.17224 
-0.0660888 -0.302391 -0.16797 
-1.89181e-17 -1.26121e-17 1 

-1.12817 -1.30864 4.22608 
-0.130701 0.324728 -0.202336 
-1.07229e-17 7.30982e-18 1 

-0.0724887 -0.208172 0.877037 
0.547294 -0.0708742 -0.555384 
7.40664e-19 -8.0415e-18 1 

-0.412519 0.358383 4.55675 
0.0184248 0.215487 -0.452126 
-2.10218e-18 1.19383e-17 1 

-0.122157 -0.562491 0.0181527 
0.971696 0.400716 0.796185 
1.38634e-17 3.71502e-18 1 

-0.283885 -0.343915 0.133324 
-0.0262316 0.110104 -0.0461188 
-6.41537e-18 -2.96094e-18 1 

-0.145289 -0.496977 0.144803 
0.586495 0.00654117 -0.344824 
-3.30246e-18 -3.52263e-18 1 

-0.750432 -0.189351 3.76679 
-0.0501837 0.334596 -0.480974 
-1.24223e-17 -1.92648e-18 1 

-0.0578511 0.378064 0.506452 
-0.622181 -0.02864 -0.186994 
-1.0473e-17 -8.51466e-18 1 

-1.85657 -0.384661 -0.761845 
-0.349747 0.435297 -4.82768 
-1.09987e-17 1.27076e-17 1 

-3.57393 -4.46194 -0.810573 
-0.295601 0.681448 0.178933 
1.61535e-18 1.38459e-18 1 

-0.0764908 0.0463568 0.886135 
0.456625 0.296653 4.58216 
-5.83109e-18 1.56586e-17 1 

-1.12299 1.72981 34.5126 
0.124756 0.659104 11.4042 
4.63829e-18 -3.22423e-17 1 

-0.365026 -0.967478 0.531995 
-0.159821 0.332775 0.721462 
3.75965e-17 -5.7212e-18 1 

0.0605981 -0.706434 -0.811324 
0.554336 0.292872 -0.171916 
-8.43415e-18 4.6657e-18 1 

-2.03294 1.82627 -34.0226 
0.0604245 0.671304 7.483 
3.33763e-18 -8.07927e-18 1 

-3.03859 -3.47602 1.24544 
0.8543 1.28046 -1.94442 
2.78877e-18 -1.86097e-17 1 

-0.323198 -0.194895 -1.93088 
0.341629 0.243567 -0.905678 
1.135e-17 -6.8573e-18 1 

-1.11173 2.22451 0.25266 
-0.78882 1.22232 1.26273 
-4.25946e-18 -7.26723e-18 1 

-0.340108 -0.225915 -0.684854 
0.0830222 -0.178745 0.573211 
7.65707e-19 7.27422e-18 1 

-0.173266 -0.301107 -0.285985 
0.241591 0.380718 0.192324 
-4.46334e-18 3.0231e-18 1 

-0.682848 -0.018654 -7.09612 
0.747606 0.745856 -1.23189 
2.31459e-18 1.6989e-18 1 

-1.47165 -1.48012 37.7669 
0.230882 1.2101 -30.4929 
-8.09661e-18 9.67095e-18 1 

-0.0255433 -0.342026 -0.0661696 
0.364614 -0.0893553 0.381373 
2.332e-17 3.601e-18 1 

-1.03812 -0.1277 4.1121 
-1.18827 0.0399155 1.00693 
8.59699e-18 4.69969e-18 1 

-0.445755 0.409446 -0.338621 
-0.119644 0.180507 -0.703351 
3.78138e-18 7.21549e-18 1 

-2.51576 0.60375 -3.3301 
-0.438768 0.501185 -1.01867 
8.18339e-18 8.06444e-18 1 

-0.126109 -0.666392 -0.36713 
0.652329 0.160502 -0.795199 
-3.57434e-18 -1.21852e-18 1 

-0.321001 0.301207 6.64723 
-0.194394 0.259519 0.355577 
-5.10355e-18 -1.1533e-17 1 

-0.605403 -0.379676 0.988982 
0.309725 0.467321 0.765823 
-4.57534e-18 8.23876e-18 1 

-0.28695 0.662265 1.22342 
-1.50102 0.858008 0.616035 
-1.34443e-17 -5.97526e-18 1 

-0.641444 -0.929266 -1.11639 
0.26142 0.422341 0.93442 
4.04322e-18 3.57307e-18 1 

-0.38074 0.0983267 -0.0825113 
-0.0246554 -0.0850178 -1.93109 
-1.19332e-17 2.96955e-18 1 

-0.427541 0.102863 0.436522 
-0.199 0.0798265 0.456251 
-3.00473e-18 7.3088e-18 1 

-0.146092 0.0966049 0.00524581 
-0.166467 0.00104815 0.277132 
1.0811e-17 8.41406e-18 1 

-0.755335 -0.815508 -0.966144 
0.578633 0.452511 1.6862 
-7.24932e-18 -2.92389e-18 1 

-0.156913 -0.262431 0.0263911 
0.250157 -0.0609375 -0.0588702 
-2.31998e-17 -2.24823e-18 1 

-7.22259 -4.14956 34.7123 
0.443564 0.451027 6.51632 
-3.67107e-18 -1.96003e-17 1 

-1.52902 -0.665445 2.06602 
0.246192 0.674865 -2.04313 
-3.55469e-18 -1.073e-17 1 

-1.09181 0.551041 -11.6137 
-0.433241 0.67836 -4.098 
-1.38225e-17 -8.66065e-18 1 

-0.703803 0.820183 4.02337 
0.323206 -0.112933 -0.342128 
2.80738e-18 7.85756e-18 1 

-0.983648 -2.3609 -0.215173 
-0.556539 -0.0462374 0.87493 
7.82231e-18 -2.28327e-17 1 

-0.411304 0.336735 -0.118373 
-0.0876477 0.0111248 0.169939 
-9.39544e-18 -1.70627e-17 1 

-0.920087 -0.360681 0.5523 
0.0129107 0.363573 -1.11363 
1.29583e-17 -1.54692e-17 1 

0.238833 -0.6455 6.58038 
1.00818 0.301555 3.51625 
-9.23614e-18 -1.57572e-17 1 

-2.19398 0.610578 1.99853 
-0.862632 0.626671 -0.971583 
-6.77252e-18 1.97468e-17 1 

-0.330873 -0.0520337 -0.544034 
0.0888093 -0.253091 0.978235 
1.82548e-17 -2.85345e-17 1 

-0.361377 -0.0351628 0.788125 
0.117843 -0.103947 -0.534133 
5.21191e-18 1.46538e-17 1 

-0.467192 1.14193 2.35807 
-0.12518 0.572111 0.140527 
-2.36553e-17 9.49457e-19 1 

-3.06541 7.08534 15.5001 
0.0361547 0.743526 0.510015 
4.36537e-19 5.74748e-19 1 

-0.00930351 -0.871817 1.3912 
0.967511 0.704566 0.269625 
-9.77576e-18 6.00822e-18 1 

-0.515472 -0.00805166 -0.0628534 
0.0270796 0.153029 -0.0531393 
-2.56129e-18 7.03865e-18 1 

-2.4728 0.336152 -14.3357 
0.0582675 0.452301 -2.30349 
-3.15724e-18 -4.34121e-19 1 

-0.234143 0.566964 -0.23614 
-0.330474 0.138489 -0.413118 
8.3973e-19 1.0346e-17 1 

-0.864471 -0.0191677 0.865621 
0.147928 0.694601 -0.0143599 
3.48923e-17 9.87778e-18 1 

-4.00649 -0.171871 -2.95109 
-1.15147 0.795309 -0.513107 
-4.78699e-18 6.92496e-18 1 

-0.0369829 -0.332542 0.025323 
0.393906 0.134024 -0.73101 
1.72875e-17 -9.47572e-18 1 

-0.522034 0.00799738 1.97669 
-0.434762 0.0447539 2.46975 
-4.30951e-18 -1.93686e-18 1 

-0.469469 0.185544 0.213748 
-0.377961 -0.124636 -0.131533 
5.99531e-18 -2.30996e-17 1 

-2.87442 0.0160924 0.759212 
-1.35773 1.11535 -0.278296 
1.53168e-18 1.12511e-17 1 

-0.598382 -0.227077 -0.723765 
0.164379 0.164303 -1.1161 
5.19213e-18 -9.79424e-18 1 

-2.53795 1.96099 -3.0597 
-0.527044 1.19884 1.78143 
-2.77997e-17 9.08835e-18 1 

-2.60344 0.0188458 1.99388 
1.62506 1.00109 2.07713 
-9.81977e-18 -1.06214e-17 1 

-0.00893447 -0.0428938 -2.38857 
-0.335465 -0.182794 4.02888 
-1.38341e-18 6.46262e-18 1 

-0.558748 0.0485972 0.181999 
-0.0728169 0.16565 0.0923341 
8.50393e-18 -4.25197e-19 1 

-2.97117 0.947166 -21.7454 
0.20305 0.676245 -11.6222 
-3.79537e-19 1.45173e-17 1 

-0.057082 -0.32756 2.65294 
0.34504 0.0413129 1.30415 
-4.20703e-18 -9.0584e-18 1 

-2.38234 -0.0607 0.0501928 
-0.106126 0.746452 0.0641526 
-2.90338e-18 -2.41035e-18 1 

-0.00190727 -0.9588 -0.771563 
0.561733 0.508959 0.267497 
3.76927e-18 4.57394e-18 1 

-0.60197 -0.917688 0.363869 
0.878474 0.740524 1.20629 
-7.61482e-18 -1.30668e-18 1 

0.0961583 -0.726027 0.367893 
0.894637 0.362782 0.360938 
2.25909e-18 -6.30001e-18 1 

-0.504718 0.0946357 -1.13736 
0.0843602 0.22536 0.283027 
2.3196e-18 1.68171e-18 1 

-0.367382 2.37375 -1.59118 
0.141331 -0.121253 -0.381414 
-3.02188e-18 -3.23773e-18 1 

-0.178945 -0.252964 0.125332 
0.274646 0.0461683 0.224598 
7.22806e-18 -7.67981e-18 1 

-0.30733 0.350207 -0.608657 
-0.346672 0.137714 -0.525562 
1.34585e-17 1.81871e-18 1 

-0.996724 2.30452 -27.3454 
0.104016 0.505515 2.28272 
-1.0111e-17 -2.06466e-17 1 

0.508913 0.942946 -2.75976 
-0.635339 0.052858 1.66863 
-1.11811e-19 1.34173e-17 1 

-1.79164 -2.21984 2.47023 
0.573454 0.928137 0.39357 
-1.10992e-18 -3.69974e-19 1 

-0.366584 0.0471035 0.18257 
0.0146643 -0.0617276 -1.54649 
2.87504e-18 4.88615e-18 1 

0.015256 -0.666862 0.0550504 
0.470815 0.0769163 0.261466 
1.23079e-18 -7.69243e-18 1 

-0.353132 0.730336 0.995941 
-0.573645 0.143305 0.600863 
3.86261e-18 -1.50115e-17 1 

-1.72569 0.423155 14.5405 
0.223106 0.657213 18.1079 
1.28414e-18 1.13018e-17 1 

-0.137651 0.14116 0.518034 
-0.342194 0.0283238 0.21245 
1.24019e-18 -4.00678e-18 1 

-0.00380416 0.205728 0.40824 
-0.203906 -0.00371401 0.502711 
6.80452e-18 8.11957e-18 1 

-5.61445 -1.3653 1.75429 
0.126803 0.531912 -0.91175 
7.17735e-18 1.3487e-17 1 

-0.550933 -0.0532986 -7.93498 
0.0974233 0.0874505 8.88677 
-1.41514e-18 1.56876e-18 1 

-0.772147 -0.900764 0.344088 
0.9296 0.663463 -0.124588 
1.99193e-18 -6.8791e-18 1 

-2.41639 -1.14209 1.50523 
0.446139 0.758996 -0.0997922 
9.06572e-18 6.44143e-18 1 

-1.29207 0.377356 3.21632 
-0.316046 0.54819 -1.08237 
-3.10246e-18 6.53398e-18 1 

-0.794675 -0.133526 7.99494 
-0.051174 0.384389 -1.74131 
-5.6824e-18 2.09267e-19 1 

-0.0402411 -1.26308 -29.5099 
0.872487 1.02311 -0.0243165 
-1.17899e-17 -3.79118e-18 1 

-0.616326 -0.114049 1.80932 
-0.00220654 0.152447 1.3846 
-6.3692e-18 2.42209e-18 1 

-4.57208 2.01698 -8.53048 
-0.135217 1.07172 2.64499 
1.56005e-18 8.87879e-18 1 

-0.654167 0.220268 5.84909 
-0.137187 0.176531 -3.38555 
4.28643e-19 -3.99812e-18 1 

-0.303489 0.338212 0.66118 
-0.366754 0.0147225 -0.444183 
-6.25136e-18 -2.52459e-18 1 

-0.362017 0.495718 0.126311 
-0.374617 0.115391 0.1406 
-4.86355e-19 4.37719e-18 1 

-0.210355 -0.242027 -1.33475 
0.248957 0.0904404 -0.419744 
-2.42158e-19 2.83671e-18 1 

-0.54914 0.530826 -0.130055 
-0.0090413 0.144341 0.483318 
1.2914e-17 -5.73954e-18 1 

-0.519112 0.0387381 6.73466 
0.040131 0.0516657 -1.09989 
2.61851e-18 -8.98509e-18 1 

-3.48856 -0.94574 -60.6844 
0.0470716 0.90601 17.7952 
-1.08829e-17 -9.79877e-19 1 

-0.344337 -0.627627 0.678151 
0.25729 0.295071 -3.02536 
2.29677e-18 -1.53118e-18 1 

-0.291387 -0.0665317 0.0457984 
0.0634611 -0.0630924 -0.250438 
2.7541e-18 -2.646e-17 1 

-2.22141 -0.619707 -18.5568 
-0.0551942 0.819297 -23.964 
-8.09197e-19 3.40355e-19 1 

-0.962031 -0.986737 0.805481 
-0.203858 0.555153 -0.335606 
1.34584e-18 -4.53063e-18 1 

-0.00550986 0.370747 -1.00483 
-0.305623 0.0633796 -0.504112 
-6.58273e-18 -4.70325e-18 1 

-0.593069 -0.377353 0.255573 
-0.092885 0.256254 0.0371509 
3.52859e-19 -9.85512e-18 1 

-2.41255 1.73182 -1.7095 
-0.267415 0.519416 0.115052 
-1.81094e-17 -3.06837e-18 1 

-1.03312 -1.45156 -1.62913 
0.180043 1.17804 -1.1012 
-1.06447e-17 -2.67432e-18 1 

0.104203 -0.542117 0.28355 
0.550813 0.163703 -0.186508 
6.47136e-18 2.86167e-18 1 

-0.899201 0.330375 0.776581 
-0.0867622 0.204923 -0.327609 
1.93047e-17 -1.96111e-17 1 

-0.589365 0.647547 -0.0347662 
-0.58384 0.301534 0.605423 
8.31992e-18 5.8861e-18 1 

0.573536 -0.975563 0.10645 
0.977954 0.624271 0.210699 
-4.41348e-18 -1.183e-18 1 

-0.671611 -1.03845 3.37947 
0.16585 0.329253 0.375473 
4.35777e-18 -7.8111e-19 1 

-0.81356 0.248988 6.00461 
0.163998 0.349896 -2.32259 
-3.68307e-18 2.86966e-19 1 

-0.913297 0.0160891 0.896731 
0.0347021 0.2045 -1.6238 
1.48088e-17 -1.66306e-17 1 

-0.928194 0.100535 1.60703 
-0.519769 0.381004 -0.440169 
6.51269e-18 -3.06479e-18 1 

-0.304308 0.0147809 0.230168 
0.221516 0.108943 -0.861858 
3.71182e-18 8.69959e-18 1 

0.707578 -0.945346 -0.363937 
1.29672 1.16443 -0.797181 
1.30642e-17 -1.11616e-17 1 

-0.628928 1.17415 -4.90322 
0.367919 0.478101 -0.121205 
3.35674e-17 -9.53035e-18 1 

-1.78345 1.2495 10.241 
-0.250892 0.593177 0.627127 
6.97084e-18 9.72749e-18 1 

-0.108161 -0.330927 -0.0501429 
0.377902 0.147017 -0.290148 
4.3431e-18 4.42933e-18 1 

-1.0442 0.152938 0.709908 
0.132062 0.326888 3.24913 
-2.51125e-18 -2.10603e-17 1 

-0.466328 -0.0371549 -8.96924 
-0.00741038 0.0984736 -2.14108 
5.18014e-18 -9.16487e-19 1 

-1.73734 0.193604 1.69544 
-0.20077 0.548193 -0.85636 
-4.94911e-18 3.8579e-18 1 

-1.2947 0.540183 -2.07403 
0.0640583 0.487862 1.90312 
-9.04167e-18 6.55669e-19 1 

-0.433902 2.98943 -7.98363 
0.142612 0.168464 -0.764752 
2.39208e-18 3.02021e-18 1 

-0.460932 0.713619 -2.62334 
-0.186372 0.432641 -0.490657 
2.57966e-18 4.33478e-18 1 

-0.594271 -0.0324315 -0.153705 
0.115378 0.0931157 0.0655191 
1.4358e-17 -6.94022e-18 1 

-0.632045 -0.450992 -0.272588 
0.287766 0.33666 -0.673702 
-1.60227e-17 -1.07593e-17 1 

-0.387238 0.741305 -0.773256 
-0.773571 0.422619 -0.561653 
2.05566e-17 1.47217e-17 1 

-0.283623 -0.258761 0.726631 
-0.43624 -0.148961 0.0541778 
9.45252e-18 -2.55186e-19 1 

-0.669454 -0.281101 -2.3988 
0.356257 0.121828 -0.948352 
-4.4268e-18 4.93899e-18 1 

-0.494431 -0.397862 -2.16732 
0.509738 0.593794 -2.64017 
-4.3826e-18 7.69707e-18 1 

-0.0361767 0.177804 0.160357 
-0.241285 0.0112377 0.417299 
6.20106e-18 -1.10827e-18 1 

0.301629 -0.952011 -0.844173 
1.04483 0.565838 0.352826 
-5.59337e-18 -1.91322e-17 1 

-0.400587 0.0934785 0.792576 
0.410378 -0.00543483 0.30058 
-9.48898e-18 -2.1277e-17 1 

-0.162428 -0.000133937 -0.923932 
0.000100983 -0.100394 -0.370669 
-5.9715e-18 -1.90759e-17 1 

-1.01475 0.370451 -8.2312 
0.130382 0.518519 2.80533 
7.48101e-18 1.67716e-18 1 

-0.494918 0.642247 -1.03963 
-0.284029 0.385224 -0.79311 
-1.77281e-17 -1.34887e-18 1 

-1.02945 0.671189 45.0922 
0.297098 0.104436 -12.3209 
2.33964e-18 1.97679e-18 1 

-0.822071 1.24545 -5.26391 
-0.295737 0.732628 2.05827 
-7.38949e-18 7.48025e-18 1 

-0.315494 -0.0695133 -0.478836 
0.155121 0.0222143 -0.32799 
6.04598e-18 5.00473e-18 1 

-0.227572 -0.0952136 4.25378 
-0.107692 0.0610272 7.39794 
-9.49371e-18 -3.35739e-18 1 

-0.225614 0.000384051 -1.79417 
-0.0598391 0.00595484 1.94725 
1.03287e-17 -1.14538e-17 1 

-0.2779 -0.0241288 0.509254 
0.209367 0.163213 -0.0765304 
-1.17887e-18 -7.85916e-19 1 

-1.42702 -1.51892 -4.61753 
0.29609 0.702464 3.37577 
-8.94936e-18 -5.70215e-18 1 

-0.370993 -0.0227201 -9.52244 
-0.106773 0.253829 7.28534 
-3.38785e-18 9.43913e-19 1 

-0.027039 -8.40506 43.4719 
-0.0269516 1.26226 -0.0180028 
6.38669e-19 -9.01347e-18 1 

-0.672087 -0.171416 -0.312356 
0.0422954 0.113292 0.427028 
4.17041e-19 -2.50224e-18 1 

-0.338654 -0.0604419 2.39761 
0.148658 0.139855 -4.09797 
8.59678e-18 2.21954e-18 1 

-5.93135 7.95509 0.174848 
-0.58293 1.18138 1.37534 
-2.61726e-18 8.52132e-18 1 

-1.36671 -1.10754 -3.0149 
0.412879 0.718578 -1.91331 
-5.407e-18 -2.19508e-18 1 

-1.27856 -1.51819 -12.5905 
0.328285 1.11277 -20.211 
3.15113e-18 1.68999e-19 1 

-1.56752 -1.01044 2.59346 
-0.402037 0.21647 -0.233083 
1.27131e-17 9.12254e-19 1 

-2.68364 -0.923165 1.56008 
1.1879 0.763905 -0.24604 
-4.62008e-18 1.49336e-18 1 

-0.891505 0.957543 1.68111 
-0.188975 0.27007 0.848239 
1.4636e-17 1.55836e-17 1 

-0.087105 -0.450416 -0.0547369 
0.504903 0.20212 0.0467768 
1.1051e-17 -5.00835e-18 1 

-0.891084 -0.45085 -1.15994 
-0.239724 0.275186 4.93527 
4.13351e-18 1.7158e-17 1 

-0.306172 -0.11479 -0.4811 
0.0601769 0.00876793 0.366058 
-9.91767e-18 -6.00367e-18 1 

-0.55263 0.568824 0.0928338 
-0.520902 0.355035 -0.0579289 
1.2435e-18 5.27518e-18 1 

-0.0232676 0.491129 -0.0229063 
-0.541695 0.103549 1.2661 
-4.95424e-18 1.22763e-17 1 

-0.135751 -0.576131 -2.12207 
0.714145 0.342011 1.92584 
-8.58027e-18 1.19778e-17 1 

-1.09913 -0.728542 -13.2084 
0.0955169 0.3927 21.1964 
9.03249e-18 9.22467e-19 1 

-8.25399 -6.03871 2.20933 
0.738665 0.408652 0.0810204 
-3.46145e-18 -1.1166e-18 1 

-2.18287 -1.708 -2.63171 
0.260417 0.735491 0.833174 
9.58582e-18 1.18607e-18 1 

-1.8215 -0.985357 -47.3204 
-0.567062 0.51087 -22.8266 
-1.97426e-17 3.96939e-20 1 

-0.429477 0.0272213 0.139735 
0.106017 -0.00213885 -0.116102 
-4.62702e-18 2.83418e-18 1 

-0.483678 0.145072 -1.42816 
-0.197177 -0.0454806 -5.73481 
5.60662e-18 -5.99597e-18 1 

-0.324531 -0.0941839 -0.644615 
0.103435 -0.0488528 0.0382718 
6.03397e-18 3.18118e-18 1 

-1.15244 -0.503418 1.57341 
0.8607 0.538288 -1.09117 
1.64893e-17 1.83214e-18 1 

-0.46398 -0.109882 1.31513 
-0.105079 -0.0724071 0.405202 
9.39484e-18 1.4737e-18 1 

-0.441635 -0.135285 -0.237028 
-0.083118 0.0318747 0.19037 
-2.55339e-18 -1.08838e-17 1 

-0.359007 0.00946128 -1.55725 
-0.103519 0.0784986 1.71084 
7.19752e-19 1.43506e-17 1 

-1.64197 -0.785756 -0.858919 
-0.0996989 0.466243 0.836761 
1.9592e-17 3.06893e-18 1 

-0.434834 -0.169316 -3.16931 
0.156185 0.0273887 -0.112305 
9.88985e-18 -1.556e-17 1 

-1.06611 0.189879 -0.953978 
0.553338 0.698853 0.622601 
-5.68247e-18 6.78108e-18 1 

-1.7428 1.91485 5.62066 
0.921804 -0.42592 2.42751 
1.01033e-17 -1.67336e-17 1 

-0.158912 0.117924 0.060063 
-0.367864 -0.020068 0.813685 
-9.83087e-18 4.56433e-18 1 

-0.320952 -0.0839805 0.0879404 
0.0837851 -0.121232 0.529428 
4.98535e-18 -3.11584e-18 1 

-0.46609 0.411061 -2.02835 
0.921417 0.0709783 5.38339 
-5.30001e-19 -2.76778e-18 1 

-1.31072 0.236627 -1.54847 
-0.187134 0.283098 -0.219906 
-1.91384e-17 2.68609e-19 1 

-7.09416 -2.53815 19.2164 
-0.0739651 0.949569 -0.523732 
1.41339e-17 1.57044e-18 1 

-1.75516 -1.1183 5.44812 
0.572131 0.826503 2.78328 
1.20303e-17 5.56022e-18 1 

-0.885953 0.327672 -1.66007 
-0.0141363 0.344454 -1.60371 
-6.77501e-18 -1.5876e-18 1 

-3.91726 3.45905 -0.376553 
-0.694888 1.67829 -0.329259 
-5.84198e-18 4.62127e-18 1 

-0.689187 -0.724005 1.69858 
-1.43851 -0.828459 0.708991 
-6.83088e-18 1.74305e-17 1 

-2.4127 -1.8261 -12.4966 
0.210005 0.450008 -2.56894 
-1.37792e-18 3.30701e-18 1 

-0.521933 0.185704 -0.591963 
-0.374867 0.0757704 0.715834 
6.20638e-18 4.49565e-18 1 

-0.0245761 -0.323665 -0.0320116 
0.326915 0.056649 -0.241567 
-7.26071e-19 7.06579e-18 1 

-0.0249252 -0.292863 -0.108797 
0.399396 -0.00591468 -0.228723 
-1.18061e-18 -2.40316e-18 1 

-0.087398 0.229635 0.00325156 
-0.277227 -0.00992324 -0.00117835 
-2.088e-19 -7.03326e-18 1 

-0.428675 -1.61162 0.915318 
1.02443 1.27542 0.315983 
-6.37984e-18 -2.95186e-18 1 

-1.77192 -1.05782 -1.97611 
-0.203953 0.526733 -3.67801 
-2.08918e-18 1.19988e-17 1 

-0.181556 0.219961 -0.513443 
-0.0794208 0.0344568 0.030477 
-4.64818e-18 1.22221e-17 1 

-1.69194 -0.16257 10.7823 
-0.0280342 0.717364 1.36461 
2.13238e-18 7.36914e-19 1 

-0.285173 -0.28875 2.43238 
0.0654512 0.176046 -1.19061 
-8.37926e-19 -2.61046e-18 1 

-0.576671 0.176397 2.31584 
0.163505 0.258459 0.0866485 
-1.61288e-17 3.36017e-19 1 

-2.07611 -0.0159323 10.0704 
0.303521 0.486375 -1.87483 
-6.14892e-18 5.85395e-18 1 

-0.307066 0.0310102 0.422123 
-0.205782 0.204716 -0.221053 
1.91566e-18 -4.81371e-18 1 

-1.43446 1.06142 1.14529 
0.480881 0.487981 -1.43885 
-2.97136e-18 1.66017e-17 1 

-0.311522 -0.0538681 0.378826 
0.0656317 -0.091181 -0.307448 
3.13119e-18 -3.62044e-18 1 

-0.0954563 -0.193746 0.82859 
0.253043 -0.00139547 0.311654 
-1.57215e-18 2.25387e-17 1 

-1.02875 0.451948 25.0147 
0.566297 0.418471 -2.82279 
-5.31172e-18 3.41612e-18 1 

-0.61188 -1.66204 -0.716813 
0.490358 0.806672 2.02871 
5.69305e-18 -9.39509e-18 1 

-1.51802 -0.489728 -6.44515 
0.00787384 0.646535 -1.86421 
-2.97972e-18 -2.02702e-18 1 

-1.37193 2.24 1.92127 
0.166652 0.342283 0.111447 
6.51201e-18 -4.32088e-19 1 

0.585521 -0.955989 -9.59329 
1.10438 0.927521 0.468416 
-1.81696e-18 1.29783e-19 1 

0.0546392 -1.10362 0.536088 
0.742939 0.859899 -14.2148 
2.06885e-17 -7.83351e-18 1 

-0.402504 0.182564 16.1082 
-0.198165 0.126327 6.02947 
1.07804e-17 1.35648e-18 1 

-3.37396 -1.24331 -2.19845 
-0.104477 0.714209 6.95815 
5.36934e-18 3.51784e-18 1 

-0.514051 -1.6629 -2.65788 
0.175032 0.14188 -0.736967 
-2.07779e-18 7.9995e-18 1 

-0.341735 0.344676 -0.938307 
-0.267385 0.109681 0.171577 
-2.76285e-18 2.42922e-17 1 

-2.54026 1.6695 -152.894 
-0.685422 1.29342 -13.9535 
3.86462e-18 3.64143e-18 1 

-0.0218859 -0.808992 -0.252149 
0.188917 0.141259 1.25999 
-9.56935e-18 5.1834e-18 1 

-0.264432 0.651855 0.400972 
0.0313176 0.0273709 -0.451952 
-8.33008e-18 -1.90402e-18 1 

-0.651874 -0.479181 -0.841261 
0.172511 0.206514 0.496815 
-1.44984e-17 9.49842e-18 1 

-0.183443 -0.372319 0.235005 
0.471005 0.028773 -0.100809 
-1.51725e-17 7.48419e-19 1 

-0.407538 -0.787041 -0.349203 
0.763188 0.402494 1.48681 
-7.28335e-18 -9.80717e-18 1 

-0.39043 -0.32035 -5.55169 
-0.195204 0.161181 3.10097 
6.31604e-18 -5.76786e-18 1 

-3.78373 0.934248 6.00235 