# vtk DataFile Version 3.0
Output file generated by Yade's KinematicLocalisationAnalyser
ASCII
DATASET UNSTRUCTURED_GRID

POINTS 13483 float
571.849 39.3334 -0.396167
687.096 56.1162 -0.472153
118.558 6.05077 0.444883
718.06 11.7866 0.473937
484.545 16.27 0.405914
311.49 39.0919 0.594957
154.895 6.96517 -0.458916
546.232 10.2636 0.223056
482.584 35.7509 -0.150608
650.569 31.5786 -0.452474
208.233 8.82943 -0.102771
254.164 6.41043 -0.293125
608.527 47.9771 -0.14545
594.504 29.8656 -0.0744618
135.606 17.5954 0.467048
219.283 35.3273 -0.235773
215.582 13.1732 0.252753
286.113 9.5234 0.424656
336.151 36.2889 0.436757
502.837 8.22452 0.389285
406.025 38.493 0.0973516
553.46 51.8595 -0.261747
709.501 49.5597 0.445657
651.115 82.8541 0.429584
451.888 16.5618 0.290308
238.711 46.4126 0.136366
480.851 38.6168 -0.492146
560.917 20.8061 0.259812
43.9895 16.1187 -0.500428
659.674 65.8279 -0.322798
475.322 4.76144 0.391996
17.6521 23.9215 0.30981
697.078 66.4447 0.275386
481.069 8.52904 0.55535
76.9657 45.7637 -0.107715
504.053 35.4297 0.315476
509.106 15.8876 -0.413242
338.98 22.1276 0.20744
514.261 26.4564 -0.327942
345.707 35.845 0.520566
239.063 14.5585 0.335733
428.2 39.1919 0.0901249
625.057 11.6893 0.115828
190.406 6.32856 -0.41726
54.7855 7.1471 0.115015
67.6753 9.08519 0.267581
632.703 24.6563 0.547062
23.3962 11.6551 -0.270427
561.198 60.1477 -0.358869
622.28 39.2469 -0.315236
170.046 33.2236 -0.307082
687.485 42.4154 0.119662
33.6089 29.5432 0.12021
512.467 2.95456 0.388533
140.479 7.43528 0.509496
556.425 36.6622 -0.409401
489.325 37.7446 0.117756
173.6 0.981379 0.264617
32.5796 2.32407 -0.34494
344.985 18.0577 0.250161
572.823 66.6607 -0.13284
457.981 36.5941 -0.201654
395.079 1.02771 0.201755
641.107 23.2769 0.443568
25.9787 45.079 -0.236421
254.205 32.0315 -0.328782
648.126 21.0499 -0.206607
622.989 70.4411 -0.332653
413.33 8.40366 -0.584159
547.084 3.83122 -0.459432
668.911 34.3692 0.403366
129.501 7.84215 -0.259977
486.683 39.2228 -0.139722
467.415 20.7879 -0.0992005
292.157 16.942 -0.343171
20.9013 13.7326 0.256262
705.989 65.6953 0.30503
328.991 41.7236 -0.330312
620.666 33.3379 0.315292
629.489 28.297 -0.253222
707.285 14.7094 -0.222482
460.594 39.4938 -0.192302
91.8832 40.9008 0.265589
644 68.8289 0.210607
602.049 60.0363 -0.101476
713.315 57.585 0.0993884
705.181 0.762254 -0.471636
289.26 29.1189 0.476846
592.499 14.9528 -0.124703
24.2518 5.25073 -0.56217
132.491 39.3385 0.162238
497.301 17.3159 0.292923
694.535 30.5498 0.624319
194.438 29.345 0.253365
43.5061 35.3093 0.30844
486.182 1.12252 0.163106
234.161 8.8101 -0.428181
685.449 70.6059 -0.295643
684.757 31.603 0.263862
357.17 20.5556 -0.259764
161.654 27.7632 0.454166
526.608 48.7688 -0.4171
376.926 15.6847 -0.49617
410.675 31.2265 -0.11008
375.115 4.83363 0.518301
527.656 10.6933 -0.0990653
715.497 25.59 0.225561
79.4493 40.8872 -0.395813
332.713 4.96744 -0.222748
540.247 9.92905 -0.507845
357.657 45.4181 0.516834
24.0708 26.6456 0.449959
30.3368 5.64109 -0.371346
538.866 47.0107 0.480814
490.202 33.6896 -0.145387
25.4798 38.8612 -0.411592
93.5567 33.1462 -0.229575
323.747 16.9957 -0.280508
572.971 26.0277 0.129756
468.553 49.6261 0.184066
650.383 7.6342 -0.455528
645.633 9.77326 -0.304323
384.471 38.1778 0.114555
592.748 43.3892 0.0939727
236.252 17.8244 0.47488
328.151 3.86679 0.463659
102.402 33.4515 0.308042
115.142 24.9724 0.26709
525.032 44.6171 -0.0690312
305.47 18.7365 0.493546
659.797 68.8361 -0.102948
627.172 71.247 0.114076
471.688 27.0504 -0.425572
687.932 11.0782 0.352472
424.461 26.6477 0.231617
277.266 24.2276 -0.304201
625.18 56.1763 -0.271572
278.171 30.0437 0.375751
556.106 12.2623 -0.259112
329.777 38.2863 0.207439
491.542 17.7303 0.447795
364.476 32.0034 0.0817636
429.053 18.3123 -0.1074
316.196 45.1403 -0.33439
190.63 30.5479 -0.126129
691.677 57.4447 -0.149081
712.506 27.0573 -0.305276
6.01237 12.5822 0.433832
431.808 24.5118 -0.401808
37.5378 23.4787 0.0705734
374.824 31.9293 -0.472746
394.624 25.375 -0.239821
74.4138 11.8823 0.501766
51.252 33.8439 0.467706
225.797 13.5395 0.458463
576.099 59.5214 0.106171
556.432 22.049 -0.480637
75.407 21.1344 0.503028
650.822 87.7059 -0.405398
676.534 4.03238 -0.58841
616.059 63.8505 -0.489175
632.521 6.61852 -0.576767
533.362 29.9436 -0.452151
553.331 50.0548 -0.434941
498.185 23.8504 -0.465011
717.483 7.65867 -0.33212
224.763 25.1484 -0.116219
128.296 36.3971 -0.206261
247.217 6.87867 -0.403004
94.3644 4.49694 -0.268942
64.1031 10.5829 0.246302
276.352 37.1949 -0.315865
16.6245 25.3433 -0.361778
538.038 20.1559 0.421511
563.9 55.3928 -0.205123
460.855 22.263 -0.340877
714.599 70.9474 -0.187649
406.645 8.77234 -0.124578
434.437 38.8337 -0.323357
520.335 3.3752 -0.273097
21.3811 24.6911 -0.411232
559.071 4.55383 0.533347
529.661 4.25471 -0.333281
206.436 11.3285 0.496825
424.759 16.6939 0.18234
312.296 6.43915 0.354271
388.474 19.6315 -0.329596
676.039 58.8718 0.106963
193.538 26.2043 0.452737
697.206 6.42767 0.504588
674.278 50.7774 0.37957
383.576 10.7171 0.182308
637.887 3.12002 0.645268
576.33 36.9728 -0.432087
659.365 19.6418 -0.399417
430.534 46.1527 -0.300173
487.513 21.047 0.497823
459.784 52.5852 0.234166
444.53 9.44013 -0.215563
619.997 64.3433 -0.25324
619.044 60.2615 0.32572
192.848 39.8709 -0.340695
706.742 12.6671 0.157042
551.372 45.8457 -0.327233
12.0067 17.4037 0.192229
408.805 26.3063 0.359424
188.23 23.8436 0.400382
93.4761 41.9918 0.211464
691.789 25.9467 0.424946
613.798 70.2066 -0.249179
320.373 27.7382 0.348717
517.665 10.0689 0.33645
82.0301 46.3841 -0.169869
248.616 25.8838 -0.468194
540.55 27.7881 0.422657
480.145 27.8545 0.411028
263.638 0.884833 -0.341503
531.135 57.4681 -0.153292
520.561 41.1917 0.508033
478.613 47.0738 0.381416
487.648 1.91551 -0.604428
641.558 46.0439 0.39919
180.242 12.7272 0.187604
496.003 52.0472 0.418616
544.759 60.7588 -0.113731
73.11 0.95336 -0.271625
252.429 4.70092 0.161681
711.025 28.4162 0.166485
707.613 16.5615 -0.598955
717.399 31.4368 -0.544704
304.847 8.63223 -0.243685
664.33 25.1871 -0.430735
406.538 44.3843 0.386461
448.823 0.886879 0.527871
607.161 58.6323 0.513442
25.8219 32.5183 -0.313757
330.902 44.5207 -0.58045
253.368 2.87936 0.35889
700.678 68.6404 0.172493
673.46 76.8528 0.224554
288.607 10.9472 0.258747
620.036 53.7298 0.0831331
542.005 2.52827 0.321936
527.452 6.46366 0.45076
96.9425 18.7046 -0.492397
304.732 1.04255 -0.230593
343.838 2.27091 -0.362036
14.0218 7.68308 0.415086
4.57131 31.1132 -0.247777
162.506 18.9987 0.348557
68.1708 42.42 -0.220236
67.31 29.3598 -0.31764
424.863 14.9611 -0.48042
367.654 35.4583 -0.488185
685.693 43.7727 -0.144059
19.589 4.01172 0.271531
70.6867 7.02691 -0.155878
583.792 58.0529 -0.182231
296.137 0.937622 0.381506
365.867 16.4636 -0.0858761
236.648 4.7159 -0.35589
608.426 35.414 0.188988
451.524 8.90378 0.438048
666.03 21.8359 0.362802
591.072 46.7247 0.316005
621.3 31.4288 -0.103247
420.087 28.9032 0.498749
103.489 46.7797 0.322139
522.696 49.8506 0.0823355
655.271 13.0269 0.271466
239.936 32.1694 -0.234848
31.8829 18.5601 0.157292
337.234 14.0809 0.498801
108.539 42.0534 -0.473976
269.449 42.8675 -0.231937
427.081 2.12748 -0.346646
696.216 41.0732 -0.416648
631.581 1.61321 -0.754277
333.194 3.44274 0.580585
302.489 28.014 0.137726
460.572 49.3878 0.229519
81.86 7.84889 -0.478191
199.292 45.9859 -0.380145
687.33 33.2065 -0.391022
492.997 54.6466 -0.0659882
201.541 41.851 0.283894
161.688 43.7508 -0.378387
717.221 52.2175 -0.402258
714.311 26.6981 -0.633212
587.488 4.56525 -0.580691
191.894 25.4783 -0.0943955
533.836 32.5017 0.121636
536.333 30.0977 0.28562
411.029 5.64431 -0.154557
481.207 1.1392 0.323715
683.17 45.3333 0.479617
86.3022 33.2133 -0.21596
613.663 25.2657 0.477468
275.846 15.7712 -0.324709
9.49278 2.41192 -0.320255
126.766 38.0413 -0.180972
67.8876 23.9574 0.473873
659.075 74.0214 0.290835
700.773 77.4423 -0.159313
186.866 28.9374 -0.180358
710.781 24.2767 0.385947
44.9861 37.2765 0.276092
91.9104 29.8826 0.148437
603.931 23.6393 0.371413
416.183 19.3329 -0.455031
507.262 16.803 -0.106625
240.606 30.3009 0.192701
595.494 12.644 -0.411357
717.991 24.5883 0.441312
29.0137 33.3471 -0.269312
271.762 7.8922 0.198982
223.872 15.5566 0.279382
1.10346 36.1727 0.146734
226.92 14.687 0.401945
213.031 11.0762 0.124484
216.478 26.5748 -0.301823
133.174 29.2146 0.124655
533.002 15.3399 -0.401716
168.007 14.3298 -0.335186
696.975 63.1232 -0.244917
175.531 3.99681 -0.485211
47.242 38.2726 0.448295
677.931 70.0438 0.526382
283.136 32.9429 0.398733
624.844 46.8333 -0.49425
704.706 57.3603 0.525019
302.938 9.29945 -0.0994549
664.594 48.0456 0.348196
330.162 2.48783 -0.4394
418.764 24.1231 0.351474
622.685 28.8035 -0.486673
106.103 11.9834 -0.416665
482.991 3.46431 -0.67283
668.432 19.7683 -0.172946
88.8975 7.80813 0.277115
283.72 14.6753 0.208264
425.609 12.3724 -0.224559
717.264 4.86662 0.591528
400.043 2.02049 -0.526404
177.928 39.5407 -0.316869
657.519 10.3364 -0.408648
130.126 37.4562 0.191446
265.033 32.0494 -0.365118
403.438 22.0752 0.211016
558.523 14.3 0.367367
389.013 9.74694 -0.51933
456.73 29.7265 -0.447884
688.651 55.7855 -0.430208
47.7641 11.6544 0.124675
300.911 38.878 -0.318922
381.466 26.7017 -0.404933
412.558 20.9496 0.247306
514.285 46.1172 0.461641
693.71 70.8751 0.267628
625.026 61.5334 -0.356053
227.375 36.6615 0.435257
13.5715 33.9936 0.168672
617.116 60.3149 -0.14418
506.444 49.9892 0.487167
231.063 41.6074 -0.108323
642.527 65.5468 -0.113265
152.099 9.28061 -0.239792
368.329 22.4649 0.272811
461.518 51.2034 0.140317
416.647 21.0489 0.198798
684.15 58.4064 -0.397263
427.986 3.90709 0.526197
49.5147 25.6357 0.316311
471.123 43.0349 0.327743
436.654 43.5367 -0.413193
703.565 60.3699 -0.210312
665.194 44.2656 0.21712
527.745 19.7705 -0.161342
697.052 54.2916 -0.493789
295.718 2.21478 -0.495562
381.556 29.7289 -0.461387
28.7469 40.5702 -0.301697
671.024 42.2327 -0.145393
582.974 30.5464 -0.485608
463.629 0.762186 -0.487546
126.701 4.69629 0.341389
428.055 43.7356 0.105229
11.9242 0.928578 0.352985
714.874 9.99459 0.112458
371.807 39.5715 -0.432057
[...]
POINT_DATA 13483
TENSORS Strain_matrix float
-0.841812 -0.509918 1.87382 
0.368779 0.409394 0.846713 
2.7711e-18 -4.11308e-18 1 

-1.81035 0.732646 -39.9154 
0.076054 0.956145 -28.8035 
2.03209e-18 4.11576e-18 1 

-0.129985 -0.0758715 0.072386 
0.0403167 -0.0221568 -0.222964 
4.44078e-18 7.9584e-19 1 

-1.51849 -0.601148 -0.283368 
0.78324 0.523225 0.542363 
-4.51496e-18 2.05164e-17 1 

-0.439515 -0.105067 -0.398576 
-0.117515 0.191512 -0.956764 
-5.04326e-18 -1.22873e-19 1 

-0.14987 -0.056399 -8.11566 
0.0164764 0.0368202 5.56594 
2.04118e-18 4.71574e-18 1 

-0.124881 -0.032438 0.0764419 
0.00940172 -0.0808415 0.414638 
-1.01617e-18 -1.93813e-17 1 

-0.16557 0.0481874 -0.103629 
0.0464874 -0.097839 -0.258521 
-6.54558e-18 1.89582e-18 1 

-0.795865 0.487236 0.379015 
0.209906 0.284685 0.00655405 
8.42215e-20 7.41149e-18 1 

-1.07484 0.513879 2.02509 
-0.925915 0.721154 1.46833 
4.04488e-18 1.97403e-17 1 

-0.0842343 0.00753221 -0.225995 
0.0195931 -0.053124 -0.0598446 
6.53533e-18 -1.38013e-18 1 

-0.126874 -0.0664236 0.184672 
-0.010515 -0.0694152 0.261385 
-5.93445e-18 9.03447e-18 1 

-0.724721 -0.243883 0.94348 
-0.0771226 0.356971 -0.103713 
-1.06028e-18 2.12057e-18 1 

0.0193081 -0.390126 1.19076 
0.136419 0.0400238 0.504538 
3.09108e-18 -7.24471e-18 1 

-0.139036 -0.0138428 1.52037 
-0.0166736 0.02888 1.65389 
-3.88992e-18 -1.17658e-18 1 

-0.0616772 -0.345224 -0.618149 
0.275908 0.0954491 -0.234452 
3.4202e-18 6.47944e-18 1 

-0.0988462 -0.023077 -0.0758903 
0.0211717 -0.0801366 -0.00250562 
7.14978e-18 -2.01603e-18 1 

-0.179152 -0.0284456 0.0216311 
0.0260609 -0.0903847 0.0426244 
1.42387e-17 8.88788e-18 1 

-0.171386 -0.202376 0.510608 
0.084331 -0.0367795 -0.023019 
7.9766e-18 1.19378e-18 1 

-0.0874961 0.324428 0.483776 
-0.386871 -0.0867927 0.546988 
-1.00867e-17 5.68737e-19 1 

-0.190349 -0.135392 0.250544 
0.151118 0.0507461 0.207859 
-1.3556e-17 2.71119e-19 1 

-4.21552 1.79326 -3.32227 
0.024566 1.16298 0.495096 
5.2794e-18 9.96112e-19 1 

-0.567487 -0.0583142 3.87826 
0.231531 0.301803 1.22918 
9.27389e-18 -8.66096e-20 1 

0.0469758 -0.64042 -1.08706 
0.542357 0.309188 7.48698 
8.91717e-18 -8.42692e-18 1 

-0.116657 -0.0703488 0.40945 
0.133185 -0.0505622 0.362024 
1.63342e-17 -5.38927e-18 1 

-0.185294 0.133878 -0.0857768 
-0.0803181 0.0630754 0.0135647 
-4.07888e-18 -1.16675e-17 1 

-0.594469 0.4054 8.09638 
0.0856216 0.232891 5.60045 
-1.73372e-17 -6.02631e-18 1 

-0.140927 -0.132656 -0.0361129 
-0.0505414 0.0121686 -0.804487 
1.64878e-18 -2.17875e-18 1 

-0.0646051 -0.0800025 -0.85161 
-0.00827658 -0.0901706 0.556635 
1.2358e-17 -2.45576e-18 1 

-0.55645 2.79227 -0.470272 
-0.731656 0.74999 0.523836 
-3.87049e-18 1.16552e-18 1 

-0.047255 -0.209823 -0.373877 
0.0572689 -0.296771 0.257333 
-3.51586e-18 -2.33059e-18 1 

-0.0466602 0.0816337 0.46803 
0.127671 -0.0122885 -0.0984624 
5.34879e-19 1.20205e-17 1 

0.447423 -0.848435 -0.0249848 
1.13938 0.609281 -0.65761 
-6.8699e-19 -1.12032e-17 1 

-1.72431 -1.21606 1.36572 
0.920501 1.33103 -2.46661 
5.77375e-18 -8.89384e-19 1 

-0.0771326 -0.119275 0.196875 
0.0737899 -0.105338 0.320751 
3.58551e-18 1.12687e-17 1 

-0.659852 -0.101178 0.0951068 
-0.699091 0.359675 0.329765 
5.32323e-18 -3.44787e-18 1 

-0.31952 0.438782 -0.443941 
-0.0685791 0.161477 -0.159907 
4.66804e-18 6.43867e-18 1 

-0.317352 0.212096 0.130925 
-0.10647 0.225765 -0.0567639 
6.58745e-18 -9.75374e-18 1 

-0.0370139 0.22767 0.383356 
0.28514 -0.164091 -0.0225422 
-3.78526e-18 1.80581e-18 1 

-0.210791 0.0162348 3.61129 
-0.130733 0.0684889 0.776043 
-4.55673e-18 1.75186e-19 1 

-0.281417 -0.226156 -0.394696 
0.0355147 0.0589566 -0.660469 
1.68834e-18 4.78364e-18 1 

-0.100534 0.0677896 -0.0293555 
-0.0928481 0.00474026 0.153774 
1.18775e-18 4.3759e-18 1 

-0.656949 -0.395022 0.348419 
0.245325 0.319359 0.203494 
4.28108e-18 1.45842e-17 1 

-0.143641 0.0565054 -0.840589 
-0.0589753 -0.0140186 -1.46051 
-1.40212e-17 1.79788e-17 1 

-0.103902 0.0358724 -0.034972 
-0.0818438 -0.0754254 -0.0849205 
7.3139e-18 4.51046e-18 1 

-0.115345 0.0173547 -0.00295443 
-0.0572335 -0.014995 0.0392318 
1.58878e-17 7.0155e-18 1 

-0.803157 -0.467583 1.38091 
0.455749 0.326929 2.28567 
5.89647e-18 7.01961e-18 1 

-0.0773475 0.0481262 -0.0321844 
-0.0550955 -0.111059 0.0220253 
1.44855e-17 -5.48533e-18 1 

-1.66979 1.52959 -4.86548 
0.466996 0.619794 -2.15735 
4.0834e-18 6.75332e-18 1 

-1.13459 0.244341 -0.221141 
0.423081 0.450746 -0.999194 
-3.30699e-18 2.98372e-18 1 

-0.05504 -0.0999055 0.072849 
-0.118413 -0.0529458 -0.0783976 
3.39175e-20 6.10514e-19 1 

0.12304 0.771689 -0.416505 
0.225138 -0.315433 -0.374172 
-1.21944e-18 -6.1277e-18 1 

-0.114364 0.0127784 0.0307724 
-0.0550855 0.0062765 -0.0390504 
-9.77494e-18 7.31513e-18 1 

-0.203711 0.134503 0.0053916 
-0.076932 -0.0891011 -0.120526 
1.54902e-18 -1.22844e-17 1 

-0.152107 -0.00865643 -0.184871 
-0.0692317 -0.0903986 0.156333 
4.14515e-18 3.35175e-18 1 

0.210159 -1.24443 -4.13613 
0.380093 -0.111779 1.55139 
-1.35821e-18 -4.80747e-18 1 

-0.430149 0.66519 0.296042 
-0.891482 0.566495 -0.598094 
0 2.39307e-18 1 

-0.102229 0.365189 -0.701415 
0.011694 0.00148525 0.244967 
-1.79773e-18 -2.62964e-17 1 

-0.0532371 0.0195813 -0.0851683 
-0.026245 -0.145056 -0.0540813 
-1.87924e-18 9.53763e-18 1 

-0.0822337 -0.0145278 -0.396454 
0.0113877 0.00203165 -0.136294 
-1.16233e-19 5.6825e-19 1 

-1.08279 1.99933 -14.5904 
0.0692139 0.829578 0.218927 
1.22512e-19 -1.71095e-18 1 

-0.139376 -0.0966117 2.33787 
0.490432 0.141138 -1.11275 
1.71733e-18 6.0767e-18 1 

-0.1161 -0.0798884 -0.278311 
-0.00887103 -0.0547654 -0.125706 
-7.30341e-18 1.27468e-17 1 

-2.1841 0.615194 -8.46262 
0.264743 0.293786 0.021047 
1.99882e-18 -2.09876e-18 1 

-0.141463 0.0837126 -0.13106 
-0.0492429 0.0613005 -0.150258 
-1.64832e-18 -3.64365e-18 1 

-0.228467 0.0714373 0.486072 
-0.0479311 0.0233026 0.033114 
-1.10076e-17 3.76576e-18 1 

-1.25341 0.59256 -0.238346 
-0.393888 0.426584 0.904973 
1.11446e-17 5.82917e-18 1 

-0.0617721 -0.418318 0.0952815 
0.42848 0.175384 -0.751907 
5.81309e-18 5.13509e-18 1 

-0.164076 -0.0150766 11.1839 
-0.0150635 0.0117982 -0.506433 
1.77923e-18 2.1501e-18 1 

-0.346988 0.129777 0.483191 
-0.0789034 -0.243679 -0.695261 
-2.00707e-18 -1.55548e-17 1 

-1.29434 1.57875 0.0073734 
-0.112969 0.608209 0.435869 
1.76942e-18 1.86255e-18 1 

-0.104251 0.0408862 0.059654 
-0.0267691 -0.0326684 -0.0063241 
-5.04896e-18 -3.59403e-18 1 

-0.442498 1.13801 0.647351 
-0.0347645 0.220383 0.623292 
1.34042e-18 2.11883e-18 1 

-0.641993 -0.971076 -1.34767 
0.468775 1.11122 1.82264 
-8.48802e-18 3.96566e-18 1 

-0.125336 0.0209239 -1.00778 
0.0582309 -0.013434 -0.151686 
2.52421e-18 1.15609e-17 1 

-0.103583 0.0684815 0.0214959 
-0.026131 -0.0755062 0.0212157 
6.34296e-18 3.59841e-18 1 

-1.72157 0.656839 -12.6318 
0.790601 1.04731 -7.25609 
6.93485e-18 1.12637e-17 1 

-0.206659 0.07346 0.126883 
0.0602682 0.0243815 -0.221674 
-9.93381e-18 3.49523e-18 1 

-0.695529 -0.723878 0.298046 
0.278732 0.312193 0.662476 
8.90539e-18 -1.78763e-17 1 

-0.311936 -0.643594 -1.13732 
0.332862 0.28524 0.10816 
-4.74983e-18 -1.18746e-18 1 

-0.721962 -0.492604 -0.363231 
0.367708 0.26863 0.438831 
1.57177e-17 -1.47845e-18 1 

-0.0896885 -0.279725 0.657591 
0.447492 0.0533876 -0.217189 
3.66743e-18 5.72063e-18 1 

-0.0736096 -0.0334904 -0.111723 
0.0479888 -0.0172894 -0.0284825 
7.26751e-18 2.49493e-18 1 

0.119339 0.877558 2.82186 
0.496185 0.187318 0.177444 
-6.99535e-18 -7.65708e-18 1 

-0.20906 -0.283456 0.132403 
0.296265 0.055414 0.201466 
-1.54479e-18 9.93081e-18 1 

-0.203041 0.447135 -0.0522452 
-0.33948 0.136264 0.0396631 
1.73893e-17 -5.99633e-19 1 

-0.757681 3.89307 6.70879 
0.113179 0.328632 0.870261 
7.77857e-18 1.30263e-17 1 

-0.122414 0.168359 -0.408956 
-0.100857 0.0329674 0.791685 
-7.3927e-18 -1.06882e-18 1 

-1.77245 -1.32278 1.00877 
0.386116 0.782115 0.619478 
1.99295e-18 7.60943e-18 1 

-0.142711 0.0538006 2.22582 
3.68049e-06 -0.104109 0.116929 
-2.17633e-18 -1.52055e-17 1 

-0.160413 -0.164564 -0.0672294 
-0.0483953 -0.0638223 0.220424 
7.12151e-18 7.12151e-18 1 

-0.429703 0.454544 -0.147177 
-0.314093 0.0728249 0.57505 
-9.22278e-18 -2.51939e-18 1 

-0.929941 -0.0051203 -15.2941 
0.16737 0.385137 12.1639 
8.25368e-19 -1.96548e-18 1 

-0.138987 -0.0892071 0.37447 
-0.0314577 0.00269195 0.0393012 
1.8299e-18 -1.00644e-17 1 

-0.0984754 0.107293 -0.0654636 
-0.0421246 0.0100022 -0.178652 
4.93093e-18 1.34405e-18 1 

-2.38793 -1.93123 -0.752106 
0.184405 0.435511 -0.217153 
-1.75643e-18 5.07783e-17 1 

-0.166898 0.0645428 -0.0211717 
-0.00618324 -0.0303746 0.0831267 
-3.03221e-18 -7.5234e-18 1 

-0.80288 -0.882615 0.489851 
0.959006 0.654881 -0.207413 
4.59822e-18 -9.74248e-18 1 

-1.07429 0.640075 -1.50487 
0.172766 0.400042 0.460122 
3.43701e-18 1.0581e-17 1 

-0.267075 -0.136487 -1.02887 
-0.162471 0.134772 -0.354149 
-1.25952e-18 -1.51367e-17 1 

-0.138195 -0.0551578 2.35419 
0.00279397 0.0395857 0.884781 
-4.10634e-18 -7.01688e-18 1 

0.298186 -1.07208 3.15783 
0.847371 0.610641 2.8638 
5.43861e-18 3.65647e-18 1 

-0.116799 -0.025358 -0.0841601 
0.00306967 -0.0561197 2.36783 
-8.16118e-19 5.71937e-18 1 

-0.183583 0.0761447 0.041406 
0.0484898 0.12876 -0.223339 
-3.18257e-19 3.35007e-18 1 

-0.181172 0.029145 -0.95001 
0.0361678 -0.0545427 -4.07428 
-1.12534e-17 -2.49051e-19 1 

-0.245122 0.2161 0.0535225 
-0.306553 -0.0417437 -0.126312 
-1.65504e-17 -1.53796e-17 1 

-0.352705 0.523373 0.112685 
-0.441069 0.148874 0.164222 
6.45016e-19 1.30616e-17 1 

-0.134669 -0.0707849 0.230717 
0.0383978 0.00329528 0.0296544 
4.11986e-18 -5.53002e-20 1 

-0.158619 0.0643644 0.0953803 
0.0815378 -0.12442 -0.0945897 
-5.25495e-18 1.2862e-17 1 

-0.386615 0.074401 -0.686769 
-0.00366115 0.0606627 1.43794 
-3.19917e-18 -1.52187e-19 1 

-0.199467 -0.209046 -11.4222 
0.0059273 0.744187 27.5951 
-2.94703e-18 1.60953e-17 1 

-0.021228 0.0876292 1.15589 
-0.133419 -0.0382413 -0.917867 
-8.80963e-18 -5.53207e-18 1 

-0.082926 0.0618794 0.064663 
-0.0199592 -0.134065 -0.0309733 
1.25045e-17 -4.93683e-18 1 

-1.72862 0.534815 -13.3615 
-0.278497 0.773872 -15.4948 
5.12214e-19 5.36941e-18 1 

-0.355495 0.653234 0.0451267 
-0.378504 0.33004 -0.371018 
1.49481e-18 1.91336e-17 1 

-0.107525 0.023662 -0.819056 
-0.0171056 -0.0266064 -0.0612332 
-5.17886e-19 1.47968e-19 1 

-0.31743 0.0964115 -0.0113026 
0.0170002 0.113872 -0.194841 
9.57541e-18 -3.05099e-18 1 

-0.360505 0.373011 0.639569 
-0.0760191 0.267971 0.215954 
-2.90327e-17 -7.62474e-18 1 

-0.881593 -1.32948 -1.4841 
-0.16405 0.609485 0.118342 
-2.0485e-17 -1.0188e-17 1 

0.0242796 -0.462221 0.131422 
0.573325 0.170572 -0.204097 
-5.50329e-18 -8.21324e-18 1 

-0.764813 0.189653 1.03176 
-0.00490813 0.222173 -0.089989 
-3.73924e-17 -6.32213e-18 1 

-0.0703078 0.932131 -1.12554 
-0.487762 0.329325 0.585844 
6.20926e-18 1.89383e-17 1 

-0.105186 -0.00885307 -0.142401 
0.0012338 -0.0117115 -0.0176058 
-8.41731e-18 2.798e-18 1 

-0.115812 -0.532693 1.15471 
0.155479 0.172591 -0.474637 
-7.74787e-19 -8.60874e-19 1 

-0.436824 0.0533739 2.4877 
-0.0810396 0.240277 -1.23519 
-1.04921e-17 -1.09081e-18 1 

-0.124121 -0.0131879 0.129766 
-0.0550776 -0.129725 0.371391 
2.8021e-18 -9.60976e-18 1 

-0.16991 0.138244 0.184225 
-0.104625 0.126215 -0.0397911 
-2.99273e-18 -3.56581e-18 1 

-0.294651 0.238031 -0.671726 
0.00594649 0.121948 -0.612775 
1.42094e-17 1.42357e-18 1 

0.384631 -0.964934 -0.858387 
0.944182 0.661565 -0.423385 
-7.84405e-18 -7.69247e-18 1 

-0.148384 0.0349395 -0.775654 
0.0680097 0.0164449 0.42378 
4.05418e-19 -1.07001e-17 1 

-1.65213 1.06818 -6.64241 
-0.0940136 0.703882 1.18157 
-2.22201e-18 -2.1022e-18 1 

-0.212807 -0.306787 0.0680914 
0.328031 0.167166 -0.398127 
3.36146e-18 -5.36724e-18 1 

-0.310127 0.322359 0.469285 
0.290804 0.0230335 0.116804 
-4.08558e-19 4.69332e-18 1 

-0.368563 0.316699 0.485484 
0.0254503 -0.0200352 -0.388759 
3.62713e-18 -4.38858e-18 1 

-0.271788 -0.288175 0.222114 
-0.363934 0.159209 0.490657 
-1.28749e-17 -1.39818e-18 1 

-0.100066 0.020437 0.155217 
-0.101683 0.0327414 0.225224 
6.43286e-18 3.58253e-18 1 

-0.954053 2.39296 -4.91206 
0.368035 0.207415 1.14044 
-1.02374e-17 -5.26081e-19 1 

-0.151721 -0.0400731 -0.83466 
0.15223 0.061798 -1.22342 
-3.78539e-18 -1.63598e-17 1 

-0.294624 -0.0288182 -0.301647 
-0.0151133 -0.0128986 0.0951852 
4.36097e-18 -6.5671e-18 1 

-0.0849022 -0.010965 0.298613 
0.00516373 -0.0161552 -0.205208 
-1.54746e-18 -2.04891e-17 1 

-0.385646 0.607295 -0.0800052 
-0.506831 0.295496 -0.338842 
7.67814e-18 1.90125e-18 1 

-0.0699336 0.0149508 -0.0796599 
0.0185066 -0.0191285 0.025742 
7.45172e-19 -5.58879e-19 1 

-0.0789405 -0.248878 0.408081 
0.452684 0.107235 -0.322729 
1.00467e-17 6.32944e-18 1 

-0.106124 -0.0566043 -0.0932504 
0.0773632 -0.00440657 0.376501 
-5.81652e-18 -1.21983e-17 1 

-0.0720074 -0.00880151 0.377299 
-0.0172993 0.027032 0.413066 
-2.47955e-18 -2.79035e-17 1 

0.334205 -0.947293 -0.601621 
0.853145 0.518859 0.358307 
-3.09235e-18 -1.72156e-17 1 

-0.261259 0.095022 0.876266 
0.406036 -0.0015203 0.491428 
-3.97157e-18 -6.83479e-18 1 

-0.121142 0.041198 0.403105 
-0.0645289 -0.0928195 -0.439307 
3.76973e-19 1.139e-17 1 

-0.146757 -0.0388153 0.499225 
0.0484136 -0.0120574 2.51283 
1.1274e-18 -4.25906e-18 1 

-0.10544 0.0135028 -0.556694 
-0.104605 0.0386751 -0.116201 
-2.91423e-19 8.81553e-18 1 

-0.105913 -0.0548939 4.55586 
0.046682 -0.00295116 2.62252 
-7.41693e-18 -4.21289e-18 1 

-0.142318 0.0402061 -0.0446914 
0.100524 0.00506666 -0.172848 
6.29732e-18 2.82496e-18 1 

-0.157532 0.0119457 0.741218 
-0.0426438 -0.0230867 0.51089 
3.0686e-18 -8.533e-19 1 

-0.118091 0.0126395 0.518601 
-0.0378924 -0.0294181 0.958929 
8.84638e-18 4.75612e-20 1 

-0.110937 0.109082 0.0884144 
-0.0849617 -0.00372448 1.10986 
-1.25801e-18 -1.69186e-17 1 

-0.303225 -0.14444 0.297673 
0.154633 0.218122 0.18224 
3.51317e-18 6.28053e-19 1 

-0.369271 0.0919742 4.9036 
-0.153092 0.21507 1.22753 
9.36152e-18 1.35062e-19 1 

-0.145831 0.0152877 -3.29593 
0.0119723 0.0492881 0.997763 
1.71977e-18 -2.2966e-18 1 

-0.222931 -1.96633 44.2186 
-0.00520363 1.10255 -4.08493 
1.27369e-19 2.69856e-18 1 

-0.618024 -0.156357 1.48085 
0.108544 -0.0507321 1.56109 
-4.87825e-18 -6.71083e-18 1 

-0.26356 -0.19981 0.900285 
0.0809621 0.142068 -2.32729 
-6.02065e-18 -6.64096e-18 1 

-4.67815 -0.958275 3.63614 
0.0795014 0.842902 -1.90149 
-7.5775e-18 -7.40528e-18 1 

-0.707292 -0.181165 -11.5952 
0.309657 0.508142 -0.557782 
7.31458e-18 -7.28535e-19 1 

-2.47095 1.64302 -29.9741 
0.0568456 1.02735 -12.1186 
9.49002e-19 -1.02914e-17 1 

-0.935545 -0.276564 -2.06821 
-0.3922 0.320574 0.218732 
1.80143e-19 -6.44654e-18 1 

-0.567573 0.33848 0.251694 
0.994194 0.351511 0.337766 
8.32454e-18 1.06407e-17 1 

-0.0185791 0.116014 -0.00821964 
-0.105257 -0.0624889 0.0916167 
-2.10319e-18 -4.8073e-18 1 

-0.10897 0.00310345 0.187239 
-0.0124682 -0.028274 0.0127204 
1.34399e-17 1.63458e-18 1 

-0.134998 -0.0437563 -0.289866 
0.022193 -0.0644798 0.193382 
-5.34673e-18 -1.22314e-18 1 

-0.213935 -0.0212687 -0.23313 
0.0462516 0.00940454 0.287657 
9.9255e-19 3.79037e-18 1 

-0.110886 0.0210348 0.0328837 
0.0851051 -0.0491472 -0.104132 
1.96259e-18 -8.09812e-18 1 

-0.129429 -0.0152603 -0.508295 
0.0846852 0.00127345 0.183022 
-2.62501e-18 6.59402e-18 1 

-0.209395 -0.234091 0.390635 
0.180146 0.0640141 -0.544003 
7.97168e-18 5.32061e-18 1 

-0.630775 0.681304 1.60987 
-0.134209 0.23629 1.17301 
4.86022e-18 -7.62388e-18 1 

-0.292196 -0.613591 -0.302521 
0.735395 0.405726 -0.0157713 
1.05561e-18 -7.51107e-18 1 

-0.315558 -0.192433 1.79903 
0.181706 0.219355 -0.934277 
3.39445e-18 -7.75875e-18 1 

-0.830934 1.15635 -3.6231 
-0.64055 1.13367 -2.54347 
2.1165e-18 -2.3503e-18 1 

-0.136527 0.0238937 -0.0135046 
-0.0175711 -0.0378019 -0.135718 
6.31096e-18 7.61245e-19 1 

-0.112221 0.160817 -0.518724 
-0.253428 -0.0234197 0.448132 
-8.73666e-18 -1.34915e-18 1 

-0.237745 -0.0589515 -0.726652 
0.031113 -0.0716841 0.334963 
3.5155e-18 -3.36989e-18 1 

-0.443764 -0.280281 0.249448 
0.179576 0.269917 -0.971889 
-2.84061e-18 -1.22065e-18 1 

-0.382272 -0.0340906 0.525627 
-0.0783655 0.00731859 0.338943 
1.16993e-17 9.68882e-18 1 

-0.126463 -0.0490547 -0.0449861 
-0.0410566 -0.0501139 0.0557838 
6.80632e-18 -5.23708e-18 1 

-0.116018 0.0122775 -0.396965 
0.0521538 -0.0551201 -1.84356 
-6.42783e-18 -3.68683e-18 1 

-0.267929 -0.0870395 -0.0705363 
0.0892903 0.0864419 -0.270217 
1.6301e-17 8.81855e-18 1 

-0.178293 -0.0110943 -0.516938 
-0.0174266 -0.0484196 0.231989 
9.56174e-18 -1.07134e-18 1 

-0.0914544 -0.0906053 0.299795 
-0.0251369 -0.0538866 0.305406 
-5.87279e-18 4.96199e-18 1 

-1.94523 1.77483 5.11332 
1.22626 -0.311048 1.37522 
1.73352e-17 -1.13181e-17 1 

-0.138155 -0.0468971 -0.027871 
-0.0480353 -0.00922771 0.982086 
-7.47375e-18 2.16771e-18 1 

-0.406025 -0.0108804 -0.989392 
0.0712218 -0.0116076 0.292059 
-2.58816e-17 -6.41393e-18 1 

-1.74142 1.54208 -16.2768 
1.00062 0.043823 6.08463 
3.38415e-18 8.34857e-19 1 

-0.147122 -0.0462122 -0.361973 
0.0700499 -0.0193524 -0.544684 
-1.1189e-17 -5.04789e-18 1 

-5.71357 -2.90511 1.50217 
0.191818 1.01071 0.916992 
6.47993e-18 6.78233e-18 1 

-0.687446 -1.02462 0.00613052 
0.416463 0.645627 -0.532231 
-6.97916e-18 -2.25369e-18 1 

-0.719416 0.912847 -1.64916 
-0.176537 0.378005 -1.03542 
3.4313e-18 3.24582e-18 1 

-0.116611 0.173172 0.129243 
-0.150422 0.0231218 -0.216754 
-5.99362e-19 1.94164e-17 1 

-0.0440025 0.281897 0.418819 
-0.346581 -0.145725 -0.884685 
-9.05846e-18 -9.73349e-18 1 

0.00452066 -0.609514 1.1751 
0.519822 0.205523 -2.46985 
-3.61756e-18 -2.07947e-17 1 

-0.248739 0.0469491 0.231837 
-0.180892 0.0102063 0.29882 
-5.52213e-18 1.67016e-18 1 

-0.0328925 -0.318133 0.193526 
0.340298 0.0665949 -0.0675416 
-2.63266e-18 -9.09832e-19 1 

-0.00645375 -0.371836 -0.0270511 
0.376418 -0.0226346 -0.0685326 
-9.99649e-19 8.53867e-18 1 

-0.0877129 -0.0214692 0.0402823 
0.0241377 -0.0456384 -0.00197371 
2.59584e-18 2.81308e-18 1 

-0.76046 -0.871814 0.350089 
0.353691 0.540234 -0.553249 
8.89978e-18 1.37735e-18 1 

-2.18859 0.559596 -1.45683 
-0.372828 0.670617 -1.46142 
-4.42368e-18 -1.91028e-18 1 

-0.176385 0.255746 -0.455846 
0.0261136 0.0586771 -0.105759 
1.26167e-17 -4.20558e-18 1 

-0.224172 -0.0462171 -0.504612 
0.067388 0.134585 0.274856 
-6.25812e-18 3.63445e-18 1 

-0.0748976 -0.0626971 0.284559 
0.0446742 -0.0157701 0.657645 
-3.33122e-18 6.82695e-18 1 

-0.0967045 -0.0572401 0.100278 
0.0777259 0.0310915 -0.313823 
-2.89507e-19 3.8601e-18 1 

-0.693482 0.411219 2.06485 
0.141487 0.0741555 0.541567 
-4.07294e-18 3.45351e-18 1 

-0.360791 0.0576871 0.336759 
-0.259461 0.230134 -0.304216 
7.23181e-18 6.87652e-18 1 

-0.165368 -0.1916 0.849022 
0.153876 0.138621 -1.53699 
-4.96804e-18 4.99376e-18 1 

-0.208232 -0.0190824 -0.17415 
0.0810361 -0.0600456 -0.33819 
6.88198e-18 1.07618e-17 1 

-0.119899 -0.00580243 0.395332 
0.172655 -0.0199162 0.504298 
2.15474e-18 -1.3506e-17 1 

-0.123926 0.0649466 1.6458 
0.0304211 0.0841793 -0.244513 
9.55566e-18 3.19435e-18 1 

-0.818403 -0.882423 0.391955 
0.0889006 0.363684 0.229803 
1.49034e-18 -3.56724e-18 1 

-0.562262 -0.20284 -1.51457 
0.142327 0.244303 -0.480415 
6.07034e-18 3.65683e-18 1 

-0.145 0.0373017 0.0802571 
0.00239128 -0.096102 -0.278855 
-1.86268e-17 -5.11576e-17 1 

0.282359 -0.773574 0.382533 
0.696948 0.245431 0.438324 
1.11666e-17 -7.80752e-18 1 

-0.0338598 -1.11456 3.60187 
0.732641 0.471104 0.274581 
-2.28475e-17 -8.81832e-19 1 

0.0275173 -0.488667 -0.739458 
0.233774 -0.0686007 -0.273656 
-7.24382e-18 9.69515e-18 1 

-2.88191 -2.35034 3.22639 
0.236229 0.695029 0.491792 
-2.64476e-18 1.27253e-17 1 

-0.370949 0.205814 -1.59173 
0.019232 0.248351 -2.1628 
-1.1147e-17 7.41289e-18 1 

-0.123488 0.0152358 0.0331756 
0.0612776 -0.0681305 -0.185679 
-4.60854e-19 3.07236e-18 1 

-0.388074 0.266576 -0.18383 
-0.0238313 0.203399 -7.77816 
-7.52423e-18 -1.55509e-17 1 

-0.16476 0.5984 0.228851 
-0.1875 0.116952 0.496246 
-2.81402e-18 1.45349e-17 1 
