# vtk DataFile Version 3.0
Output file generated by Yade's KinematicLocalisationAnalyser
ASCII
DATASET UNSTRUCTURED_GRID

POINTS 13483 float
646.761 28.4271 -0.397942
839.34 48.3952 0.647177
126.574 6.1106 0.456809
876.147 6.2707 0.573403
527.318 7.63388 -0.300321
331.603 34.9957 -0.479819
164.992 6.84016 -0.421594
604.599 10.0773 0.147416
524.214 22.6696 0.142633
778.898 13.1237 -0.404834
221.655 8.76504 -0.102117
270.533 6.3366 -0.283427
699.491 29.0305 -0.136868
675.594 14.1901 0.0874951
144.543 17.026 0.451706
233.415 34.3272 -0.39402
229.247 12.8959 0.281753
304.097 9.44939 0.395662
358.988 32.8913 0.445926
554.935 8.51524 0.347772
432.646 36.8469 -0.103367
628.071 44.1024 0.276471
869.292 36.7637 0.431761
751.946 42.2165 0.519223
484.216 16.102 0.2897
253.943 44.0807 0.12591
519.098 27.2514 -0.4795
621.942 19.9536 0.230243
47.3959 15.4315 -0.469941
775.172 33.9336 -0.347526
509.337 4.85906 0.326115
17.8413 22.8319 0.333864
852.982 51.0137 0.267126
523.055 2.46841 0.488071
82.3967 44.133 -0.10216
552.253 30.0089 0.335804
561.681 16.5285 -0.409796
361.992 21.8404 -0.177893
565.18 25.4978 -0.318497
369.459 33.0831 0.422626
253.923 14.4699 0.343408
457.577 35.3545 0.0670093
726.75 7.06437 0.130771
203.225 6.18913 -0.37584
58.7752 6.88445 0.131982
72.384 8.8556 0.274442
744.717 8.8 0.489864
24.8966 11.641 -0.278062
649.735 44.7951 0.352529
730.093 23.1557 -0.30965
181.711 32.2944 -0.292717
834.646 35.8097 -0.135127
37.1673 27.7766 0.118446
565.691 2.9763 0.317772
149.932 7.41504 0.481481
630.977 33.1173 0.412118
533.264 25.9996 0.119871
184.327 0.947414 0.256374
34.6018 2.39769 -0.291718
367.69 17.5885 0.263149
661.916 45.7421 -0.132933
488.174 33.6649 -0.183275
421.431 1.0349 0.192817
756.835 7.8171 0.387904
27.8597 42.1916 -0.235978
270.484 30.2786 -0.295679
778.724 8.34083 0.189536
720.443 45.1727 -0.361114
440.827 8.54138 -0.488765
605.44 3.53699 -0.342773
811.226 31.0744 0.374798
138.055 7.63268 -0.269602
527.291 24.9812 -0.128096
505.016 14.8566 -0.0955247
310.631 16.638 -0.340765
21.9637 13.4713 0.251167
859.949 43.5594 0.353518
351.054 38.5541 -0.288831
726.578 19.2509 0.401362
744.066 12.6507 0.250841
862.247 11.0531 -0.24775
491.577 34.2446 -0.170767
97.5157 38.3968 0.25987
738.447 35.2516 -0.240466
694.948 38.2497 -0.113319
876.778 40.951 -0.0990862
856.128 0.747894 -0.546597
307.298 28.6536 0.443679
664.026 6.29669 -0.108066
25.69 5.22556 -0.45944
140.397 37.593 0.150651
543.519 14.0934 0.221727
848.731 26.718 0.593664
206.587 28.4979 0.240883
46.9539 34.1474 0.277059
521.929 1.15807 0.123262
249.026 8.81919 -0.367772
816.382 44.3626 -0.288551
836.364 27.4712 -0.239548
381.891 20.5796 -0.262407
173.414 26.7063 0.425183
583.759 39.2824 -0.434299
401.857 15.0334 -0.482566
437.426 29.7051 -0.110187
400.17 4.36608 0.408073
582.624 10.6069 -0.107124
879.755 13.6447 0.194646
84.7698 39.0654 -0.400186
354.811 4.76825 -0.183039
597.723 9.50885 -0.340399
381.255 43.2686 0.461815
27.6522 24.0088 0.479769
32.2761 5.64781 -0.334712
605.087 32.8947 0.40804
536.407 23.5456 -0.140733
27.969 36.0882 -0.390793
98.6023 30.7431 -0.218489
344.179 15.8391 -0.29898
641.689 18.936 0.119169
504.457 37.8952 0.307195
796.967 7.67725 -0.370951
788.649 6.31839 -0.31533
409.947 36.9337 0.097131
681.712 25.5381 -0.0923218
252.357 17.1676 0.528716
349.764 3.67652 0.468008
109.655 31.5461 0.34709
123.155 24.0489 0.272933
579.075 39.32 0.100007
324.479 18.8034 0.481258
770.581 36.8775 0.103703
724.826 44.8574 0.130948
510.653 20.6174 -0.372358
838.519 11.562 0.33412
455.116 23.4826 0.235692
294.355 23.8061 -0.301148
726.44 32.3902 -0.280142
295.772 28.7751 0.399481
616.008 12.1799 -0.188027
352.154 35.2345 0.208512
537.475 11.3924 0.45766
389.515 30.9896 0.0856122
457.612 16.6133 -0.11092
337.831 41.8532 0.273566
202.644 29.6229 -0.121474
843.309 47.3862 0.146866
876.585 14.9536 -0.285114
6.3366 12.0957 0.425914
461.586 22.258 -0.407304
40.9289 22.0764 0.0856883
400.088 31.2249 -0.479057
420.105 24.601 -0.257245
79.3797 11.6972 0.488491
55.0599 33.2564 0.434771
240.146 13.3269 0.438759
663.394 39.2215 -0.395158
618.799 20.9542 -0.436655
79.8919 20.7235 0.487695
754.586 46.1995 -0.431621
826.173 3.883 -0.573325
712.7 41.2302 -0.556523
751.735 2.35948 0.37149
588.293 27.6576 -0.421724
629.651 44.2057 -0.475701
548.005 18.1201 -0.362576
874.883 2.95308 -0.426077
237.85 24.7407 -0.122865
135.828 34.5538 -0.193259
263.16 6.54861 -0.367367
100.798 4.11886 -0.265136
68.6202 10.1258 -0.183581
293.614 35.8333 -0.319906
17.4575 24.4929 -0.369502
594.991 18.851 0.393966
649.808 39.6413 -0.227005
494.013 21.1303 -0.364636
871.759 51.2351 -0.419737
433.717 8.52858 -0.0987596
464.591 35.7649 -0.368215
574.535 3.46871 -0.178079
24.489 23.4566 -0.38391
619.089 4.48521 0.453444
584.85 4.27481 -0.294783
219.778 11.2611 0.484726
453.367 16.1045 0.184893
331.876 6.31856 0.326933
413.697 18.8826 -0.324246
803.449 43.7514 -0.12877
205.182 25.3813 0.413743
848.4 6.85216 0.395511
802.85 39.88 0.361234
409.018 10.1288 -0.177002
776.862 2.4956 -0.427697
650.515 25.2413 -0.404752
804.076 18.5093 -0.348565
459.695 42.3327 -0.289865
531.398 12.3158 0.347068
497.283 43.9018 -0.218309
475.936 8.67947 -0.0178989
716.077 40.1147 -0.299977
713.807 36.3497 0.349145
205.01 38.6599 -0.268919
860.142 11.4688 -0.121943
631.622 44.5628 -0.241839
12.3048 16.9642 0.170536
435.296 24.9795 0.330532
199.944 23.0353 0.399428
99.1631 39.4207 0.204422
844.291 23.2757 0.375996
709.875 45.9886 -0.231203
340.6 25.2867 0.350924
571.31 10.1871 0.319897
87.6022 44.2346 -0.166295
264.214 25.7097 -0.470038
598.779 24.4223 0.374096
520.711 18.3372 0.394042
280.427 0.888681 -0.342823
593.488 40.8171 0.376151
572.236 40.652 -0.512543
516.156 32.7023 0.373912
534.661 0.778649 -0.493431
762.706 19.0775 0.342123
191.839 11.9044 0.176245
536.438 36.1739 0.434506
606.504 39.9761 -0.123737
78.0029 0.943115 -0.274413
268.674 4.65683 0.15916
875.505 16.6806 0.192132
862.842 12.9092 -0.458816
881.354 20.1569 -0.533422
324.067 8.55845 -0.22616
811.071 23.0869 -0.392678
434.821 41.1951 0.354487
480.248 0.817861 -0.397168
701.8 35.9754 0.423765
29.0421 29.7199 -0.306577
353.221 41.1444 -0.504495
269.613 2.83046 0.316954
856.952 49.7758 0.2331
774.572 49.5503 -0.21856
306.863 10.8338 0.207296
721.011 29.4808 -0.0836293
599.571 2.67393 0.284301
582.526 6.31559 0.425348
103.289 18.2914 -0.476468
323.966 1.03685 -0.22589
366.984 2.26394 -0.363894
14.9283 7.60988 0.340531
4.57829 30.6406 -0.237091
173.19 18.7736 0.36457
72.9585 41.4584 0.213324
71.3906 28.6121 -0.324751
453.097 14.358 -0.40944
392.588 34.6661 -0.474347
832.84 37.8322 -0.127832
20.8547 4.01085 0.271886
75.5411 6.8159 -0.132921
674.159 38.0923 -0.185932
315.106 0.92903 0.323083
390.429 16.2127 -0.0854256
251.905 4.64076 -0.379448
706.204 21.6198 -0.199172
483.554 8.36725 0.397796
814.038 20.6512 0.380409
681.065 29.0192 -0.296561
725.548 17.513 -0.0972694
449.536 26.3589 0.517994
109.175 44.5027 0.316685
582.653 43.0783 0.0734962
801.544 13.6679 0.217086
254.338 30.2331 -0.248931
34.4932 16.7557 0.174315
359.802 13.6089 0.49583
115.044 40.1569 -0.469202
286.339 41.9476 -0.188561
455.548 1.08817 -0.209462
853.924 33.1652 -0.436013
744.38 0.774681 -0.524332
355.405 3.13988 0.513416
321.163 26.4688 0.13852
495.917 40.7806 0.206498
87.2241 7.91973 -0.419632
211.826 44.5313 -0.377414
839.63 30.7022 -0.367908
531.443 38.4994 -0.0880975
214.201 40.8875 0.260573
172.185 42.1201 -0.0767958
879.963 36.2145 -0.444168
878.471 14.9595 -0.527436
653.481 3.74567 -0.538908
203.668 24.3502 -0.0975284
589.878 28.7915 0.098896
591.903 28.198 0.255236
438.414 5.59185 -0.135167
516.712 0.928378 -0.280555
831.043 40.6701 0.445594
91.0966 30.8996 -0.213153
712.489 18.3768 0.451597
293.594 15.4063 -0.335878
10.4971 2.32313 -0.341513
134.377 36.394 -0.19972
71.7835 23.0433 0.457452
763.273 37.984 0.342079
860.296 56.8358 -0.161151
198.86 28.0353 -0.174601
871.953 13.0071 0.554146
48.3035 36.1769 0.247493
97.2271 28.6091 0.15684
685.845 12.8605 0.459663
443.254 18.0281 -0.487805
558.269 16.4778 0.114249
254.918 28.2851 -0.178988
671.528 4.55696 -0.413806
882.113 12.9267 0.460353
32.1644 31.0473 -0.268593
289.123 7.68791 0.180216
237.89 15.1128 0.257739
1.10899 35.53 -0.152529
241.225 14.5364 0.357596
226.65 10.8924 -0.110721
229.462 25.9047 -0.294042
142.474 27.5235 0.13482
589.111 14.8789 -0.329248
179.074 14.1312 -0.34028
851.136 48.2115 -0.22947
186.472 3.84393 -0.49341
50.667 37.6495 0.364171
809.185 51.0843 0.426503
301.005 31.4006 0.397268
734.655 24.3904 -0.511177
861.077 40.8244 0.470865
322.079 9.16634 -0.108716
801.177 31.2831 0.355906
352.146 2.61617 -0.362913
445.752 23.5796 0.372782
732.354 16.384 -0.435427
113.152 12.0062 -0.397228
518.439 3.89748 -0.475869
817.078 19.6119 0.158609
94.8382 7.64153 0.19554
301.649 14.5694 0.182152
454.178 11.5448 -0.206549
874.184 4.10374 0.600122
426.54 1.94378 -0.514323
189.599 38.6146 -0.292251
804.546 10.753 -0.362961
137.706 35.662 -0.17849
281.927 31.1066 -0.377624
429.337 21.4462 0.213754
618.69 13.8525 -0.348513
415.094 9.81266 -0.466529
489.954 27.1266 -0.42746
840.015 47.9859 -0.531418
51.2431 10.7167 0.0997287
320.627 38.2098 -0.262525
406.762 25.9655 -0.400209
439.471 20.5047 0.258736
560.591 44.5344 0.356398
824.341 40.5643 -0.230789
719.811 35.7998 -0.370057
241.954 34.342 0.376706
14.9529 30.8896 0.170295
712.08 37.2644 -0.130402
547.343 40.8918 0.441206
245.968 39.268 -0.100065
742.129 31.5959 0.100986
162.169 9.20554 -0.203471
393.356 21.8958 0.29444
497.772 41.7909 0.105849
443.69 19.6627 0.197525
837.419 50.9701 0.374966
457.07 3.39038 0.433607
53.4939 25.1383 0.315187
504.817 31.6825 0.343141
466.077 40.8619 0.384264
854.957 41.5907 -0.216146
798.023 30.2572 0.218453
583.39 18.481 -0.15375
847.056 40.7143 0.421205
314.206 2.0223 -0.435274
406.764 28.9848 -0.460103
31.2051 38.035 -0.298158
804.436 33.2289 -0.137832
659.398 20.321 -0.47447
497.261 0.772051 -0.490584
135.386 4.50837 -0.27647
457.407 39.83 0.102991
13.0522 0.917055 0.335869
872.326 6.72992 0.15528
396.879 38.8703 -0.409016
[...]
POINT_DATA 13483
TENSORS Strain_matrix float
-0.117317 -0.10334 0.3874 
0.0231002 0.0141429 0.833886 
3.0504e-18 -4.88064e-18 1 

-0.252996 -0.196094 -47.2699 
0.0565876 0.212448 2.82541 
-1.92568e-18 5.23175e-18 1 

-0.0683771 -0.00704976 0.514427 
-0.00147478 -0.0632542 -0.839217 
7.5424e-19 -1.9375e-19 1 

-0.793907 -0.157954 1.24422 
-0.14247 0.254966 -0.391838 
1.14227e-17 -1.71271e-18 1 

-0.0968965 -0.0275865 0.0489549 
-0.00561784 -0.0648581 0.0336181 
3.71058e-18 1.03319e-17 1 

-0.065308 -0.0147927 -0.37057 
-0.0036898 -0.0229991 -0.0619203 
6.08856e-18 8.33395e-19 1 

-0.0565019 -0.0221947 -0.0108593 
-0.00598818 -0.0892505 0.0235341 
5.47219e-18 2.25474e-18 1 

-0.0690975 0.0238038 -0.0932516 
0.0161636 -0.0648173 -0.0129832 
-8.55106e-18 -4.48353e-18 1 

-0.057099 0.0537643 -0.172807 
0.00372909 -0.0176269 -0.117766 
8.71151e-19 5.93673e-18 1 

-0.125447 -0.00367595 0.854531 
-0.204759 -0.0674047 -1.08856 
4.07431e-18 1.47877e-17 1 

-0.046586 0.0142879 -0.14348 
-0.0101774 -0.0613986 -0.0768076 
-6.4189e-18 1.5261e-18 1 

-0.0752564 -0.021537 0.0837665 
-0.0306585 -0.0737683 0.304643 
-1.47777e-17 -9.01079e-20 1 

-0.204226 0.221444 0.73041 
0.0378931 0.101329 0.62595 
5.77673e-18 -3.43026e-18 1 

-0.140066 -0.021844 -0.18511 
0.0687376 -0.01156 0.186329 
3.5618e-18 -6.86084e-18 1 

-0.0816338 0.00254743 0.068272 
-0.0121884 -0.0494956 0.416418 
1.8974e-19 -7.11524e-19 1 

-0.0760875 -0.0912893 -0.0374901 
0.0378098 -0.0114831 -0.128548 
-7.81457e-18 -1.34042e-17 1 

-0.0477593 -0.0179643 -0.0613396 
0.0390731 -0.131767 -0.0723411 
7.6076e-19 5.13513e-18 1 

-0.110638 -0.00752827 0.0444658 
0.0220543 -0.0845206 0.00231986 
3.00636e-18 -4.14746e-18 1 

-0.151498 -0.167812 0.117821 
0.0337993 -0.0603999 -0.00735875 
4.84937e-18 1.22966e-17 1 

-0.0809408 0.0390735 0.270849 
-0.0622661 -0.0966412 0.0350303 
3.37318e-18 -2.11878e-18 1 

-0.0610957 -0.0183227 0.0481527 
0.0384483 -0.0222699 0.000159739 
-4.50049e-18 3.43379e-18 1 

-0.202513 -0.0127705 -0.253407 
-0.0923396 0.0683222 0.477561 
1.77059e-18 -1.24531e-17 1 

-0.353138 0.0719085 7.53006 
0.012904 0.314425 1.21017 
1.00246e-17 -4.52331e-18 1 

-0.16493 -0.114681 -25.1237 
0.0246024 0.109231 -3.5966 
-5.34065e-18 7.37342e-18 1 

-0.0592258 -0.0468164 -0.0358129 
0.0747485 -0.0246039 0.0799473 
5.05242e-18 1.01048e-17 1 

-0.0960845 0.12942 -0.126658 
-0.10095 0.029311 0.0512515 
-1.21863e-17 5.42616e-19 1 

-0.0538879 0.0223002 5.26864 
-0.00610826 -0.0277024 -1.40718 
6.68089e-18 4.13824e-18 1 

-0.12305 -0.0328548 0.171852 
-0.0438665 0.0407113 -0.693217 
-1.34827e-17 -4.47824e-18 1 

-0.0544915 0.00454793 0.146331 
0.00644489 -0.0865801 0.353751 
-1.83905e-18 -1.15542e-19 1 

-0.303211 0.168882 -0.600241 
0.0271493 0.139019 -0.0604553 
4.02536e-19 3.61968e-18 1 

-0.0621808 -0.0155858 -0.253894 
0.0165025 -0.164216 0.409071 
-1.15315e-17 -3.04433e-18 1 

-0.040423 0.046307 0.168902 
0.20577 -0.0917675 -0.421217 
-8.82238e-18 1.48968e-17 1 

-0.0704989 -0.614316 -1.10659 
0.602449 0.221372 -0.16659 
-1.30575e-17 1.54242e-17 1 

-0.101298 0.0191669 -0.273729 
-0.005869 0.0393649 -0.540776 
-1.38886e-18 -3.35625e-17 1 

-0.0442109 -0.0342677 0.0152428 
-0.033259 -0.119085 0.218173 
7.20194e-18 -1.62264e-17 1 

-0.0874452 0.028595 -0.578157 
-0.0577451 0.0598969 -0.330952 
-3.0105e-18 -3.65413e-18 1 

-0.070163 0.0101591 -0.292776 
0.0152688 -0.0457123 0.227082 
4.45729e-18 -7.42787e-18 1 

-0.0139209 -0.139351 -0.191185 
0.0184997 -0.142429 -0.147887 
-8.16904e-18 2.05741e-17 1 

-0.0778978 -0.0641282 0.169363 
0.182499 -0.0373118 -0.0208942 
1.09886e-17 5.51477e-18 1 

-0.0732119 0.033181 2.31433 
-0.0536581 -0.0353277 -1.06586 
5.4696e-18 8.3838e-18 1 

-0.0941363 -0.0100962 -0.0270393 
-0.109169 -0.0666484 -0.0728598 
-3.17988e-18 4.45874e-18 1 

0.00783177 0.0252893 -0.0889192 
-0.128664 -0.0390454 0.101608 
4.16834e-18 7.74356e-19 1 

-0.231112 0.0711873 0.0852162 
-0.0876144 0.00931451 0.0362623 
5.59369e-18 -2.55203e-18 1 

-0.037689 -0.0184311 -0.0522589 
0.026259 -0.084769 0.391292 
3.45808e-19 6.61412e-18 1 

-0.0585161 0.000586976 -0.0128405 
-0.0283078 -0.111127 -0.10959 
5.40693e-18 -7.104e-18 1 

-0.0649224 0.0100898 0.000747687 
-0.0360135 -0.0391969 0.140798 
3.18574e-18 -8.21723e-18 1 

-0.148347 -0.024077 0.43303 
-0.00149776 -0.0441789 -0.242695 
-9.98513e-19 -1.14552e-17 1 

-0.0363037 0.007424 -0.0288973 
-0.00720519 -0.114919 0.00907103 
-1.11628e-17 4.92051e-18 1 

-0.11663 0.00613863 -0.173045 
0.037171 0.0522032 0.202504 
-5.24783e-18 -6.35263e-18 1 

-0.478368 -0.14824 -0.698242 
0.0959803 0.203109 -0.438894 
1.30931e-17 1.52341e-17 1 

-0.0563535 -0.110128 0.200632 
-0.0834283 -0.037533 -0.0771147 
-2.92421e-18 -1.54602e-17 1 

0.101477 0.190528 0.634488 
-0.04131 -0.155322 0.210458 
-1.69527e-18 -8.79537e-19 1 

-0.087719 -0.0367279 -0.0398569 
0.0192878 -0.0142902 -0.0816338 
4.97029e-18 -7.82299e-18 1 

-0.0986451 0.0448182 0.0945578 
-0.0154252 -0.051415 -0.0133538 
6.63942e-18 -1.24621e-17 1 

-0.08308 -0.000514943 1.02372 
-0.0471903 -0.0979292 1.32859 
-3.99168e-19 4.23732e-18 1 

-0.0978322 -0.0795586 -0.841815 
0.0257723 0.00353004 0.363311 
4.08025e-18 -2.99985e-18 1 

-0.105846 -0.0342157 0.192021 
0.144825 0.137516 0.324485 
9.59274e-19 2.82139e-19 1 

-0.0621717 0.0711901 -0.156593 
-0.00638601 -0.0717337 -0.079301 
-1.25153e-18 2.85576e-17 1 

-0.0334851 0.0246181 0.0639776 
-0.00234094 -0.147776 -0.0102694 
8.15358e-18 6.56146e-18 1 

-0.0707595 0.00291914 -0.116785 
-0.0145149 -0.0636166 -0.0549346 
-2.68954e-18 4.84117e-19 1 

-0.0455117 0.208341 -0.102326 
0.0364954 0.0087128 0.0856022 
-3.36047e-18 8.30233e-18 1 

-0.116626 -0.0646519 0.157204 
-0.0354415 -0.00801271 -0.00555764 
4.75551e-18 6.13548e-18 1 

-0.0780442 -0.0942052 -0.262686 
-0.00432885 -0.044484 -0.0654274 
-2.56938e-18 4.65193e-17 1 

-0.150892 0.0338617 0.263413 
0.0183728 -0.033097 0.523261 
3.65754e-19 -4.19332e-18 1 

-0.093135 -0.00133384 -0.0884695 
0.0380919 0.0281116 -0.128325 
1.7424e-18 7.84081e-18 1 

-0.114689 0.0642218 0.351622 
-0.0289445 -0.0254272 -0.0857086 
2.40247e-18 -5.62588e-18 1 

-0.173467 0.154255 0.0158293 
-0.181375 -0.0365157 -0.105015 
6.99901e-18 -1.47348e-18 1 

-0.153732 -0.0475839 -0.676592 
0.116917 0.0550143 -0.749493 
1.64157e-17 2.2894e-17 1 

-0.0924625 0.00942966 -1.36555 
-0.0572007 -0.0813291 0.526907 
5.96156e-18 1.03394e-18 1 

-0.126341 -0.0253003 0.0407655 
-0.0199783 -0.0844811 0.0773672 
-8.14687e-18 -2.82007e-18 1 

-0.566167 0.0351955 2.79124 
0.223829 0.343521 1.38394 
4.86805e-18 -2.26262e-18 1 

-0.0425559 0.00991525 0.0671024 
-0.00552673 -0.0684874 -0.0637021 
6.25835e-18 -1.98158e-18 1 

-0.0562133 -0.00320807 -0.219499 
-0.0866117 -0.0181927 0.167832 
8.09647e-18 1.79921e-19 1 

-0.0973537 -0.00991137 0.0824699 
-0.0177847 -0.0173794 -0.00817767 
2.31654e-18 5.10332e-18 1 

-0.0736477 0.00269697 -0.480495 
0.017823 -0.0459243 -0.344577 
6.04345e-18 1.02334e-17 1 

-0.0330631 -0.00638598 0.0531092 
-0.0387892 -0.109937 0.0284308 
1.23335e-18 -7.40012e-18 1 

-0.701579 1.36154 -2.63254 
0.780166 -0.151638 -0.71255 
3.39662e-18 -1.01772e-17 1 

-0.0707518 0.0505494 -0.078349 
-0.0337962 -0.0139714 -0.181953 
1.49097e-18 -8.53578e-18 1 

-0.270254 0.121569 -0.686065 
-0.0998327 -0.0178166 -0.0795357 
2.86163e-18 5.70623e-19 1 

-0.102838 -0.00117343 0.166732 
-0.0458894 -0.0321783 0.171284 
1.96361e-18 1.13269e-17 1 

-0.284641 0.0680082 -0.367472 
-0.0741392 -0.0348749 0.325027 
-4.65222e-18 1.54004e-17 1 

-0.0476501 -0.0729504 0.332245 
0.0123228 -0.00299882 -0.0419911 
-2.91898e-18 -3.64873e-19 1 

-0.0384404 0.00697805 -0.0135187 
0.00144954 -0.0251546 0.0510906 
-5.29461e-18 7.54634e-19 1 

-0.184952 0.121281 -0.379227 
-0.11981 0.0287331 -0.398238 
3.48072e-18 -1.93467e-18 1 

-0.145588 -0.0518272 0.220731 
0.0549753 -0.00900571 0.198214 
-4.56019e-19 -1.45155e-18 1 

-0.100289 0.595865 -1.20231 
-0.479498 0.156948 -0.438761 
-2.11177e-18 1.1341e-17 1 

-0.340199 0.868686 -0.573336 
-0.0168219 0.162373 -0.832447 
-7.84095e-18 -1.29671e-16 1 

-0.0869089 0.0198469 0.434139 
0.0253156 -0.0863785 -0.170093 
-3.73962e-18 -2.18092e-17 1 

-0.122579 -0.0451743 -0.135041 
0.0437961 -0.061136 -0.0441892 
1.33308e-18 1.29976e-17 1 

-0.0842992 0.0288833 0.121078 
0.00597276 -0.0675202 0.316382 
-7.46904e-18 -5.22615e-18 1 

-0.0738942 -0.0392194 -0.144887 
0.00111988 -0.0521782 0.136719 
-2.17571e-18 6.48083e-19 1 

-0.0592737 0.0290941 -0.00657451 
0.0202513 -0.0843684 0.297744 
7.77494e-18 5.25296e-18 1 

-0.403055 0.178323 -10.3818 
0.100958 0.15165 -8.602 
-1.81247e-18 -4.02987e-18 1 

-0.122024 -0.0333179 0.10964 
-0.0211473 -0.00623722 0.0773471 
-1.38849e-17 -4.70674e-19 1 

-0.0516336 0.0134348 -0.10872 
0.0409618 -0.00282372 0.0341494 
-1.90363e-18 3.98856e-18 1 

-0.0956074 0.0256729 0.0216241 
-0.00108472 0.0960212 -0.36143 
-3.08957e-18 3.08041e-18 1 

-0.0927323 0.0353232 -0.0164754 
-0.0159515 -0.0290182 0.0424145 
-1.14095e-18 -7.29392e-18 1 

-0.48796 0.0988715 -0.129748 
0.267612 0.120072 0.520861 
-1.25949e-18 2.2584e-18 1 

-0.304561 0.307431 0.56999 
0.472976 0.0736596 -0.568545 
2.97969e-19 -1.29244e-17 1 

-0.0331097 -0.00617862 -0.030787 
-0.0297428 -0.0712641 0.0582823 
-1.54922e-17 1.07717e-17 1 

-0.0762889 -0.0177501 -0.126611 
0.0274472 -0.0293333 -0.800998 
6.62079e-18 -1.2081e-17 1 

-0.163783 -0.0838924 -0.0520842 
0.0716387 -0.0960504 -0.24172 
-6.53727e-18 -7.13157e-18 1 

-0.0699818 -0.0341662 0.331691 
0.031195 -0.0785737 1.08594 
-4.62822e-18 -6.70628e-19 1 

-0.0811616 -0.0844293 -0.032849 
0.0378888 -0.0016761 -0.00472544 
1.24451e-17 3.03572e-18 1 

-0.0610318 -0.0241373 0.114787 
0.00685549 -0.0984853 0.208094 
8.64146e-18 1.06633e-17 1 

-0.135221 0.107648 0.115308 
-0.1315 -0.0626459 -0.0427403 
5.24066e-19 7.43518e-18 1 

-0.502595 0.319473 -0.0512954 
-0.393445 0.198118 0.195076 
9.62057e-18 1.11061e-17 1 

-0.0876196 -0.0108136 0.723252 
-0.0437781 -0.0381403 0.440796 
3.45943e-19 -4.05006e-19 1 

-0.0900005 0.0244018 0.0759898 
0.0183191 -0.105443 -0.0152271 
-9.38887e-20 -2.535e-18 1 

-0.109996 0.00808699 -0.242695 
0.013632 -0.0682873 0.109754 
3.45092e-18 2.88208e-18 1 

-0.121013 0.0507519 -1.10643 
0.0307146 -0.000993888 3.61617 
1.37376e-18 4.19256e-18 1 

-0.0338591 0.0669567 -1.41814 
0.0332668 -0.108765 -2.56868 
3.40053e-18 3.50204e-18 1 

-0.0494195 0.027221 0.00474666 
0.00201517 -0.13178 -0.0479925 
4.90859e-18 -8.95818e-18 1 

-0.0801647 -0.0737879 0.0556247 
0.0966438 -0.0055113 0.591318 
1.49773e-17 8.33002e-18 1 

-0.167802 -0.0433429 0.00560808 
-0.00299734 0.0949704 -0.206057 
5.346e-18 -9.74859e-18 1 

-0.0558366 -0.0435086 -0.336018 
0.0541251 -0.0375529 -0.229372 
-9.84674e-18 -5.05408e-18 1 

-0.100725 0.0717607 0.1627 
0.0249795 0.0584191 0.0421601 
-4.10926e-18 1.14382e-18 1 

-0.0628918 0.0164498 -0.0295809 
0.0367729 -0.0539281 0.100117 
-3.61891e-18 8.21005e-18 1 

-0.0826019 0.118859 0.176674 
-0.0417457 -0.0277088 0.142793 
3.86818e-18 1.05506e-17 1 

-0.0618111 0.0179349 -0.0921101 
-0.0284405 -0.0203216 -0.287798 
9.88516e-18 4.17734e-18 1 

-0.280546 -0.0865872 -0.0616962 
0.220024 -0.164856 0.322232 
-1.37897e-17 -1.19281e-17 1 

-0.239266 0.170655 -0.133737 
-0.156764 -0.0246412 0.608861 
1.334e-17 1.17008e-17 1 

-0.0554658 0.0341608 -0.0467718 
-0.0840331 -0.00599006 -0.144592 
-8.33558e-18 -5.34332e-19 1 

-0.0840745 -0.00930175 -0.119081 
-0.000436232 0.00612227 0.0277728 
-1.9384e-18 -1.35422e-18 1 

-0.0642624 0.00456861 -3.56592 
-0.0110192 -0.0448991 -3.00886 
-2.85154e-19 2.09356e-18 1 

-0.071538 0.0263487 -0.226574 
-0.0247366 -0.122129 0.460639 
-1.27121e-17 1.2749e-17 1 

-0.0731706 -0.0197795 0.0847385 
-0.0699122 -0.0394752 -0.0257684 
7.20486e-18 -5.73018e-18 1 

-0.11029 0.0838612 -0.00129469 
-0.0624989 0.0530397 -0.108919 
2.87309e-18 2.00978e-18 1 

-0.0957363 -0.158425 -0.0740779 
0.125919 -0.0233773 -0.100963 
2.90329e-18 -6.78052e-18 1 

-0.066212 0.00514556 -2.29937 
-0.0140986 -0.0606107 2.79492 
7.08924e-18 2.90625e-18 1 

-0.161356 -0.0249518 0.314747 
0.0378165 0.097504 -0.457687 
-4.78666e-18 -7.35451e-18 1 

-0.219662 0.0703611 0.119417 
0.107251 0.107393 -0.249187 
1.07289e-17 -1.64136e-17 1 

-0.0278775 -0.0375023 0.204849 
0.00651792 -0.014609 0.39436 
4.91927e-18 2.05491e-18 1 

-0.333627 0.377792 0.113271 
-0.0208345 0.0291434 -0.318621 
0 1.05212e-17 1 

-0.150928 -0.0113617 0.344865 
-0.0959935 0.0701 -0.0224433 
1.96927e-18 -7.6347e-18 1 

-0.0646474 -0.023456 -0.112232 
-0.0450075 0.00738387 0.127857 
-1.0187e-18 6.08256e-18 1 

-0.405639 0.123898 -2.35842 
0.0814406 0.230833 -1.26599 
-1.27289e-17 1.35687e-17 1 

-0.0916521 -0.0215455 0.281081 
0.0949227 -0.0111498 -0.915283 
1.63085e-19 -6.85888e-18 1 

-0.0839549 -0.130436 -0.154768 
0.00498595 -0.0571134 0.160442 
-8.74773e-18 3.04062e-17 1 

-0.044451 -0.017981 0.204538 
-0.00295956 -0.0864342 0.201095 
2.14092e-18 6.42277e-18 1 

-0.108594 -0.0220728 0.256045 
0.0254161 -0.0368801 0.207709 
6.33468e-18 -1.03818e-17 1 

-0.0496151 -0.0535954 -0.114618 
0.0895833 -0.0375732 0.0223947 
4.2408e-19 -3.10992e-18 1 

-0.0466776 -0.0963459 -0.0300248 
0.115222 -0.037769 0.0978253 
-8.29021e-18 -4.02416e-18 1 

-0.0482312 -0.0245453 -0.101439 
0.0395701 -0.0350617 -0.128878 
1.11734e-18 -1.54891e-17 1 

-0.0360131 -0.0168885 0.389568 
-0.00605818 0.00434839 0.256838 
-1.0902e-18 5.54834e-18 1 

-0.1408 -0.563977 -0.593454 
0.172652 0.194902 0.693983 
-5.79963e-18 9.32702e-18 1 

-0.428789 -0.103228 0.510274 
0.302793 0.0192632 0.241996 
1.49293e-17 1.37386e-17 1 

-0.0473261 0.0266475 -0.0607078 
-0.0292115 -0.0960777 -0.230193 
1.43072e-17 1.92812e-18 1 

-0.0689013 -0.0492668 -0.00262198 
0.0615486 -0.0359983 -0.102459 
-6.45153e-18 -1.18461e-17 1 

-0.0738634 0.00181357 -0.0141536 
-0.0472709 -0.0532701 -0.0525664 
-2.46074e-18 -4.92148e-19 1 

-0.0769621 -0.0566447 4.11435 
0.0274286 -0.014673 2.69371 
9.08257e-18 4.96296e-18 1 

-0.124589 -0.000129578 0.177974 
0.0639272 -0.0199426 -0.344797 
-9.0432e-18 -8.7417e-18 1 

-0.118697 -0.0371432 0.121299 
-0.0142513 -0.0425207 -0.133946 
-6.94541e-18 1.17607e-18 1 

-0.0810861 -0.0283914 -0.258028 
0.00779237 -0.0236106 0.190731 
-5.71558e-18 4.69265e-18 1 

-0.0631761 0.00314137 0.0481115 
-0.0163759 -0.0331342 0.685347 
-2.13577e-18 3.38906e-18 1 

-0.166323 -0.0531719 -0.237908 
-0.0229467 0.0433572 0.266792 
4.12571e-18 5.79047e-19 1 

-0.151831 -0.0856591 -0.799695 
0.00397599 0.0189368 1.23475 
-4.72107e-19 5.98985e-18 1 

-0.062207 -0.0189213 0.613868 
-0.0099423 -0.0198936 -0.335435 
5.37032e-19 1.18651e-17 1 

-0.190506 0.100807 -1.23532 
0.0639506 0.356154 -1.60474 
-4.74247e-19 -4.69842e-20 1 

-0.421903 -0.272863 -3.00223 
0.194468 -0.0407686 0.467237 
8.49284e-19 1.16141e-17 1 

-0.148129 0.0269983 1.26651 
-0.0451928 0.0416328 -5.30172 
-2.78485e-19 1.80346e-17 1 

-0.114738 -0.0065117 1.38486e-05 
-0.0284078 -0.0650524 0.247609 
8.72875e-18 7.57478e-18 1 

-0.191774 -0.158925 -2.43119 
0.0780236 0.114812 -0.285298 
-1.23545e-18 -1.88152e-18 1 

-0.103752 -1.04633 48.6628 
-0.00375948 0.748822 -39.0858 
-9.0991e-20 2.31693e-17 1 

-0.0712224 0.0145625 -0.333744 
0.0132925 -0.0735725 0.218564 
-5.61185e-18 9.80276e-18 1 

-1.11565 -0.187583 0.154064 
-0.155237 0.349203 0.744385 
-6.12293e-18 1.70914e-17 1 

-0.0387498 -0.00542042 0.0186392 
0.00911808 -0.0695468 0.109128 
2.21668e-19 3.07648e-18 1 

-0.0729158 0.00459508 0.13749 
-0.049941 -0.0358664 -0.110112 
6.66377e-18 1.81387e-18 1 

-0.0335949 -0.0476355 0.0909301 
-0.0102456 -0.106724 0.131408 
1.59157e-18 8.54005e-18 1 

-0.0667178 0.0163041 0.197623 
-0.0050592 -0.0907341 -0.0470673 
1.68996e-17 -1.07227e-18 1 

-0.0456143 0.00491231 0.0184619 
-0.000865769 -0.0647715 0.0946125 
1.38315e-18 -1.08838e-17 1 

-0.0679686 0.0242921 -0.0730627 
0.0333771 -0.0111223 0.0299364 
9.919e-18 -7.84563e-20 1 

-0.0945316 0.0132209 0.0662127 
0.128803 -0.134402 -0.478052 
-9.96638e-18 7.47478e-18 1 

-0.234685 0.141425 -2.25992 
-0.124464 0.137882 0.120318 
7.24485e-18 2.0055e-18 1 

-0.108051 -0.0533152 0.049767 
0.0909264 -0.0132354 -0.326528 
2.64176e-18 -4.27343e-19 1 

-0.108408 0.0176316 0.101982 
-0.0257225 0.0067562 0.0835035 
1.87533e-18 2.03005e-18 1 

-0.619343 0.546957 7.96374 
-0.0642488 0.311904 8.09431 
1.0992e-18 -3.65653e-18 1 

-0.0843674 -0.0048786 0.0369364 
-0.00887262 -0.0477167 -0.158529 
-1.03092e-17 -3.19093e-18 1 

-0.054275 0.0230645 -0.227533 
-0.0220283 -0.0348081 0.237124 
1.7634e-18 -5.55091e-18 1 

-0.123303 0.073334 -0.0648139 
-0.0183142 -0.0733606 -0.0372169 
-4.40991e-19 4.8999e-19 1 

-0.0293822 0.0904665 0.386828 
-0.0881008 -0.0568915 -0.359869 
4.06645e-18 -5.19602e-18 1 

-0.231802 0.0820364 0.233524 
-0.153886 0.00126119 -0.182435 
8.28261e-18 -7.27631e-18 1 

-0.0510035 -0.0126986 -9.27053e-06 
-0.0375544 -0.0806796 0.0155522 
-5.15396e-18 -2.55551e-18 1 

-0.0780559 0.00882455 -1.47572 
0.00326469 -0.0620049 1.69905 
1.64502e-17 3.54481e-18 1 

-0.134381 -0.0636565 0.050233 
0.124859 -0.0188877 -0.254369 
-1.97842e-18 -9.79789e-18 1 

-0.087498 0.0129439 0.0664139 
-0.0754491 -0.0539337 0.120859 
6.83148e-18 2.67901e-19 1 

-0.0923051 -0.0483753 0.349736 
-0.0503495 -0.0484157 0.36136 
-5.23037e-18 6.05031e-18 1 

-0.202227 -0.211098 -0.179459 
0.273445 0.0953658 0.101791 
6.65313e-18 -3.99188e-18 1 

-0.0748382 -0.0156632 0.0514399 
-0.00574482 -0.0635979 0.214942 
-4.21944e-18 -3.99631e-18 1 

-0.28298 0.154691 -0.472908 
-0.0674276 0.00532409 0.568542 
-1.12165e-18 -2.49753e-17 1 

-0.104049 -0.167647 -0.206472 
0.217286 -0.0174257 0.016462 
-3.07498e-18 -8.19994e-18 1 

-0.078828 -0.0874863 -0.0983514 
0.0462 -0.0625927 -0.0180243 
-5.09353e-18 4.99449e-18 1 

-0.560169 -0.516966 1.11669 
0.215856 0.288586 -0.601433 
-8.03553e-18 -5.25228e-18 1 

-0.138799 -0.0512741 -0.274032 
-0.0286612 0.00315559 -0.0541282 
4.2298e-18 -1.2425e-17 1 

-0.191536 0.0933563 -0.27943 
-0.109144 0.0605217 -0.516854 
4.80306e-18 -9.49045e-18 1 

-0.103029 0.0592287 0.102583 
-0.0617505 0.0104764 -0.191047 
-5.9026e-18 7.58905e-18 1 

-0.0663687 0.0345683 -0.1437 
-0.0343462 -0.0943416 -0.440562 
1.39018e-18 -4.70523e-18 1 

-0.0239528 -0.0120702 0.116376 
-0.049596 -0.0382181 -0.433861 
-9.29715e-18 7.99988e-18 1 

-0.0954902 -0.028844 -0.0635776 
-0.065131 -0.0541006 0.156808 
8.61125e-18 -1.12406e-17 1 

-0.118489 0.0381492 -0.0622082 
0.0469815 0.00356365 -0.319444 
-4.22762e-18 -2.09703e-18 1 

-0.08899 -0.0541022 0.423206 
0.0373083 -0.0614628 0.477165 
3.66492e-18 -3.80588e-18 1 

-0.0577064 0.00367825 0.065913 
-0.0130733 -0.0526874 -0.0689224 
-7.06528e-18 -1.20271e-17 1 

-0.441818 0.0595726 -0.286649 
-0.110811 0.159807 0.304012 
-2.7868e-20 5.64792e-18 1 

-0.274878 -0.125841 -0.255446 
-0.0399708 0.123556 0.421569 
1.78646e-18 7.14585e-18 1 

-0.146814 0.133906 -0.183113 
0.0507745 0.0821997 -0.275494 
-1.7981e-18 -2.95402e-18 1 

-0.00934623 0.0304193 0.126075 
-0.0154531 -0.0821473 -0.234348 
-2.6218e-18 5.56944e-18 1 

-0.0689435 -0.0130002 0.136866 
0.0345036 -0.00983741 0.376621 
-2.01231e-18 -4.49508e-19 1 

-0.0653225 -0.0238049 0.0897522 
0.0354316 0.00708676 -0.247314 
-2.18897e-18 1.93691e-17 1 

-0.313021 0.290826 -1.33081 
0.0743955 0.0814653 1.5692 
5.79421e-18 3.56024e-18 1 

-0.151037 0.0359061 0.04232 
-0.122845 0.106609 -0.724956 
5.58336e-18 -1.79359e-17 1 

-0.0422473 0.000399706 -0.00817844 
-0.05635 -0.0370747 0.0396623 
-1.07211e-18 6.47097e-18 1 

-0.111763 -0.00111019 0.0847952 
0.0307057 -0.0388139 -0.622713 
-5.78692e-18 -3.1187e-19 1 

-0.0817428 0.0527338 0.207927 
0.112011 -0.0195447 0.499624 
1.00345e-17 -3.23526e-17 1 

-0.0605126 0.00541682 0.543031 
-0.0125843 -0.0154604 -0.776403 
2.05157e-18 3.00724e-18 1 

-0.305829 -0.0901959 -1.11677 
-0.0369163 0.158029 -0.562847 
1.12806e-18 -6.18263e-19 1 

-0.0662713 -0.0113879 -0.108055 
0.00435711 -0.023258 -0.0220704 
-5.19204e-18 3.05267e-18 1 

-0.0647074 0.0186758 0.00525321 
-0.00464876 -0.18164 0.0742676 
-9.47265e-18 -7.80629e-17 1 

-0.074337 -0.0661619 -0.354573 