# vtk DataFile Version 3.0
Output file generated by Yade's KinematicLocalisationAnalyser
ASCII
DATASET UNSTRUCTURED_GRID

POINTS 13483 float
597.138 35.0715 -0.418141
727.167 55.6583 -0.464233
120.325 6.04292 0.448473
758.983 11.8443 0.458033
499.444 10.259 0.389539
316.731 37.889 0.486752
156.918 6.97999 -0.455149
566.854 10.1356 0.209736
496.957 28.8592 -0.136047
686.943 27.5956 -0.539478
211.009 8.8437 -0.10201
257.825 6.38946 -0.283354
642.605 40.7645 -0.139838
622.324 24.1902 -0.0806914
137.469 17.4147 0.471288
222.285 34.9526 -0.387792
218.434 13.0853 0.261881
290.384 9.61448 0.40776
342.406 35.2061 0.426531
521.587 8.56505 0.360767
413.104 37.3264 -0.103069
579.034 50.9768 -0.25403
749.905 49.423 0.48362
684.516 74.9805 0.426055
460.932 16.4281 0.294282
242.063 45.6582 0.134095
492.711 31.569 -0.456978
582.859 20.6014 0.231948
44.9779 15.8414 -0.47724
696.962 60.5563 -0.355903
484.454 4.80884 0.380158
17.7829 23.7269 0.31465
737.334 66.2433 0.256706
495.595 3.00998 0.513392
78.4529 45.476 -0.107987
521.673 32.2204 0.324436
527.934 16.1934 -0.419256
344.08 21.9826 0.181633
532.862 25.1965 -0.318466
351.938 34.9457 0.507917
242.321 14.398 0.314788
435.815 38.4851 0.0785798
657.654 9.72439 -0.152075
192.947 6.31909 -0.361455
55.9976 7.06985 0.106576
69.0286 9.05336 0.271121
668.442 20.1515 0.521578
23.6504 11.4587 -0.272116
594.806 53.7983 0.33918
658.058 32.7387 -0.318957
172.499 33.0489 -0.302217
727.76 41.9911 0.124304
34.997 28.8779 0.117871
531.667 2.99992 0.349236
142.441 7.44587 0.502489
580.338 36.724 -0.38039
503.593 30.6806 -0.11425
175.767 0.968456 0.258627
33.0521 2.34055 -0.330354
350.079 17.9966 0.256971
605.887 56.9284 0.135014
465.175 35.3814 -0.177341
402.299 1.03512 0.196605
676.33 18.1133 0.350048
26.6763 43.9838 -0.236492
257.676 31.5116 -0.316365
685.09 17.4681 -0.283572
656.66 62.0191 -0.345629
421.031 8.5268 -0.533925
567.604 3.61645 -0.378797
708.685 33.9993 0.397465
131.325 7.82764 -0.260234
499.013 32.0043 -0.135114
480.122 17.6785 -0.111753
296.684 16.903 -0.352276
21.0642 13.5683 0.268343
746.273 64.8874 0.314759
335.062 40.6782 -0.324931
654.632 28.2125 0.355893
665.479 24.2031 -0.255481
747.873 14.5353 -0.202443
468.544 36.1102 -0.172321
93.4145 40.6481 0.264867
677.663 60.9857 0.21141
635.775 51.929 -0.097573
754.049 57.0745 0.100316
745.772 0.773121 -0.47233
293.794 29.1124 0.453908
617.492 10.6516 0.135463
24.3901 5.06489 -0.491441
134.288 39.0932 0.16442
512.668 15.8784 0.188685
734.986 30.4085 0.616489
196.991 29.1585 0.238565
44.7446 34.9843 0.306797
495.697 1.13791 0.168494
237.25 8.78334 -0.409836
723.027 68.73 -0.289991
725.099 31.3182 0.275794
363.678 20.844 -0.26803
163.99 27.6964 0.460102
547.212 45.4222 -0.405869
383.144 15.1662 -0.498648
418.074 30.5968 -0.0960474
381.507 4.35846 0.407674
547.425 10.7197 -0.0986553
756.417 25.5674 0.222895
80.9794 40.5946 -0.398341
337.918 4.89383 -0.200115
560.93 9.94143 -0.605028
363.821 44.7746 0.504252
25.8359 25.3665 0.447447
30.7931 5.61204 -0.377608
560.091 41.9731 0.424179
505.405 27.689 -0.150253
26.5298 37.7755 -0.413915
95.2165 32.965 -0.226983
328.414 16.4273 -0.330623
596.321 24.1231 -0.133861
479.936 42.8681 0.288067
690.331 7.44067 -0.468761
685.386 9.44973 -0.200301
391.03 37.1954 0.100615
625.66 35.6605 0.10022
240.043 17.2939 0.556527
333.129 3.70192 0.465362
104.087 33.2642 0.304072
116.884 24.9593 0.263372
544.442 42.4001 -0.0953052
310.256 18.6701 0.49593
696.344 63.8449 0.103249
660.804 62.9211 0.11503
484.807 22.6599 -0.369079
728.109 11.1724 0.34664
432.766 25.8371 0.21864
281.027 24.0559 -0.30478
660.455 47.6137 -0.288768
282.292 29.1389 0.400811
577.074 12.3708 -0.231207
335.856 37.2572 0.20044
507.279 13.65 0.626834
370.897 31.5759 0.089489
437.002 17.4601 -0.101936
322.258 44.2134 -0.375285
193.166 30.16 -0.121258
731.737 57.0503 -0.146062
753.427 27.0182 -0.303243
6.06666 12.6214 0.427125
440.08 23.7955 -0.399209
39.1136 23.0168 0.0759701
381.252 31.5048 -0.471958
401.002 24.6577 -0.26234
75.8072 11.8601 0.500254
52.536 33.7194 0.46716
228.747 13.4884 0.454423
609.061 49.7659 0.155414
578.704 21.2386 -0.458967
76.7728 21.0589 0.506827
683.91 79.7748 -0.40598
716.63 4.09427 -0.586225
649.808 55.2734 -0.48034
669.571 4.31798 0.520595
554.251 30.1542 -0.409883
577.905 49.6842 0.446644
515.125 19.1597 -0.353923
758.381 7.7692 -0.339454
227.152 25.0874 -0.118533
130.032 36.2467 -0.204761
250.676 6.74933 -0.399443
95.8887 4.4702 -0.268871
65.4204 10.4776 0.235566
280.264 36.2245 -0.327516
16.9327 25.2407 -0.371594
558.804 19.7599 0.386792
595.587 48.7593 -0.242786
470.152 22.8873 -0.345013
755.362 69.821 -0.20451
414.158 8.68327 -0.117231
442.215 38.3343 -0.308306
540.03 3.38148 -0.212769
23.1874 23.4347 -0.459976
580.247 4.63102 0.482486
549.571 4.31917 -0.314345
209.172 11.3225 0.493124
432.841 16.608 0.185832
316.919 6.33252 0.353068
394.693 19.0644 -0.328088
714.519 56.3112 0.189573
195.63 26.0238 0.422473
737.371 6.47417 0.502018
714.562 49.8172 0.331354
390.158 10.3114 -0.162786
676.476 2.15415 0.44924
601.431 32.3328 -0.389379
698.417 20.6429 -0.374702
438.002 45.4876 -0.293586
501.801 15.692 0.461716
471.466 46.8343 0.225212
453.465 9.21889 -0.203577
653.674 55.8401 0.265563
652.794 51.7808 0.319404
195.396 39.5345 -0.337993
747.282 12.4483 0.120447
578.61 47.2346 -0.268655
12.1204 17.4324 0.182706
416.362 25.6445 0.340945
190.522 23.4164 0.405797
95.0075 41.7384 0.209274
732.18 25.7578 0.422671
647.65 61.7184 -0.257576
325.097 27.4787 0.355421
536.986 10.067 0.324704
83.523 46.0883 -0.169205
252.182 26.0569 -0.45241
561.056 27.5675 0.362748
493.672 22.5339 0.400613
267.397 0.887587 -0.342616
554.143 52.2714 -0.0502388
539.19 40.8618 0.481008
489.402 38.4112 0.395189
504.719 1.70623 -0.621673
678.381 41.3532 0.401174
182.547 12.6148 0.182671
508.788 42.5002 0.431431
566.239 55.6473 0.116014
74.4727 0.951548 -0.271732
256.052 4.73247 0.159905
752.043 28.3945 0.195209
748.251 16.445 -0.574879
758.36 31.421 -0.537453
309.415 8.602 -0.239261
704.219 25.4602 -0.40024
413.814 43.1449 0.388308
457.842 0.863716 0.513595
640.822 50.2747 0.48251
27.1098 31.4741 -0.320732
336.961 43.4711 -0.579315
256.983 2.88351 0.342693
741.147 68.2005 0.171051
708.147 75.4191 -0.214252
292.968 11.0218 0.23752
655.289 46.143 0.0900943
562.315 2.59585 0.30575
547.293 6.44291 0.440775
98.4945 18.8792 -0.481912
309.274 1.03437 -0.22867
349.32 2.29477 -0.34962
14.0947 7.69836 0.400398
4.5824 31.2553 -0.235659
164.689 18.9553 0.348572
69.5747 42.1682 -0.215893
68.6189 29.1904 -0.322768
432.703 14.847 -0.408632
374.036 35.1037 -0.483507
725.952 43.3121 -0.145803
19.6685 3.99201 0.266242
72.0471 6.99889 -0.149837
617.044 48.7894 -0.20075
300.564 0.93876 0.368479
371.995 16.1737 -0.0851352
239.899 4.69126 -0.37363
643.196 28.3152 -0.195609
460.529 8.82914 0.436435
706.212 22.2832 0.406992
624.591 38.9211 0.293569
655.488 24.9813 -0.0919967
428.314 28.0651 0.49991
105.073 46.5512 0.3204
543.784 47.7488 0.073862
695.434 13.2173 0.253969
242.742 31.7413 -0.247601
32.3186 17.721 0.169578
342.404 13.9518 0.502703
110.198 41.8637 -0.470665
273.396 42.4379 -0.206216
435.034 1.79482 -0.382713
736.439 40.7527 -0.454382
668.415 1.76642 -0.727856
338.474 3.3334 0.55379
307.239 27.844 0.142857
471.546 43.4926 0.205431
83.2783 7.84177 -0.474641
201.797 45.658 -0.378443
727.658 32.9697 -0.401172
504.037 45.1047 -0.0928675
204.155 41.667 0.277661
164.202 43.714 -0.295378
757.879 51.7347 -0.390404
755.248 26.6885 -0.632797
611.28 4.66992 -0.549958
194.214 24.8706 -0.0905167
556.323 33.6779 -0.100626
557.249 29.7774 0.267304
418.667 5.65458 -0.143691
490.706 1.16031 0.40072
723.359 44.779 0.468079
87.8834 32.9207 -0.213252
645.661 20.5243 0.4841
279.956 15.6261 -0.326335
9.55113 2.41945 -0.317994
128.521 37.9584 -0.184221
69.1603 23.7699 0.473117
694.723 68.0047 -0.31363
741.762 77.1239 0.00765604
189.364 28.5895 -0.174633
751.578 24.2966 0.361245
46.1769 37.0001 0.269694
93.5057 29.801 0.147365
632.02 19.3669 0.400863
423.653 18.6624 -0.444001
525.071 16.8591 0.115707
243.241 29.8216 0.192813
622.461 8.29179 -0.409745
758.939 24.5274 0.429389
30.2696 32.4627 -0.26818
275.852 7.75419 0.190576
226.792 15.4676 0.290528
1.07841 36.0811 -0.157014
229.86 14.6492 0.398924
215.876 11.0827 -0.107138
218.831 26.2899 -0.317146
134.865 28.8761 0.122193
553.166 15.4266 -0.347892
170.299 14.2933 -0.339888
737.045 62.9303 -0.226298
177.732 3.94305 -0.487957
48.432 38.0972 0.439353
715.245 67.9972 0.474736
287.514 31.6627 0.409514
660.358 38.4521 -0.425934
745.049 57.0224 0.532679
307.49 9.27607 -0.101317
703.778 44.627 0.385467
335.413 2.53891 -0.412206
425.691 23.7574 0.361839
658.252 23.7022 -0.505939
107.626 11.8116 -0.403537
492.834 4.05539 -0.488852
708.468 20.0018 -0.191979
90.3754 7.7684 0.269685
287.933 14.7771 0.188533
433.848 12.1609 -0.233454
758.291 4.92898 0.545043
407.333 2.01292 -0.518192
180.443 39.2851 -0.314897
697.405 10.4922 -0.399132
131.877 37.2757 0.190633
268.766 31.5942 -0.364565
410.35 21.9055 0.217375
579.605 14.4642 0.325066
396.059 9.91556 -0.49305
466.371 29.3375 -0.429483
728.743 55.373 -0.427504
48.732 10.9653 0.0953463
306.067 39.5176 -0.285887
387.831 26.2384 -0.410757
419.809 20.6292 0.288207
531.317 44.4886 0.358151
731.229 66.9754 -0.184922
658.705 53.0983 -0.345881
230.523 35.6115 0.325772
14.0137 32.4258 0.155366
650.866 51.7489 -0.141537
519.293 44.697 0.464024
234.392 40.6373 -0.106744
676.174 57.8339 -0.127668
154.124 9.33216 -0.228477
374.818 22.0997 0.283946
472.88 45.1444 0.152357
423.937 20.4128 0.192799
723.825 58.0614 -0.346285
436.405 3.96496 0.5311
50.9156 25.5112 0.319356
479.862 35.9308 0.331174
444.26 43.1991 0.352207
743.588 60.0125 -0.217248
703.407 41.019 0.290366
548.97 19.9094 -0.130941
737.292 53.9933 -0.489688
300.105 2.23037 -0.484469
387.896 29.2321 -0.467941
29.7202 39.6437 -0.300568
709.159 41.0678 -0.135323
608.723 25.7519 -0.617852
472.771 0.772635 -0.476075
128.533 4.68935 0.334897
435.612 43.021 0.108927
11.9968 0.931646 0.347521
755.721 10.0848 -0.0746275
378.259 39.2102 -0.425006
[...]
POINT_DATA 13483
TENSORS Strain_matrix float
-0.556075 -0.675935 1.28666 
0.226557 0.386006 1.23649 
1.15525e-17 1.0991e-17 1 

-1.45744 0.81687 -47.3652 
0.119013 1.06757 -28.696 
4.36556e-18 -8.47987e-19 1 

-0.122545 -0.0688463 0.0858158 
0.0361416 -0.022999 -0.218732 
2.78032e-18 -4.30737e-18 1 

-1.47577 -0.707962 -0.581142 
0.785391 0.525542 0.853767 
-3.9458e-18 1.35433e-18 1 

-0.309269 -0.0938579 -0.875151 
-0.01617 0.0980287 0.268509 
-2.56051e-18 -3.13e-18 1 

-0.147575 -0.00268075 -0.165656 
0.000245238 0.0562112 -1.29779 
7.22646e-19 -9.59226e-19 1 

-0.123978 -0.0422002 0.0704943 
0.00363224 -0.0761619 0.485478 
-1.00723e-17 -1.87632e-18 1 

-0.141285 0.0348403 -0.102058 
0.0591625 -0.0872008 -0.231841 
-1.12025e-17 1.69016e-17 1 

-0.390931 0.0750963 0.517972 
0.0885558 0.349405 0.867146 
-2.4346e-18 -1.2265e-17 1 

-0.879911 1.20367 -2.84013 
-0.71649 0.901677 -0.0708684 
-2.57496e-17 1.05343e-17 1 

-0.0749208 0.0017495 -0.201563 
0.0222964 -0.0524917 -0.0431385 
1.50502e-17 -1.57727e-17 1 

-0.10162 -0.0332279 0.106449 
-0.0437978 -0.0676197 0.309206 
-9.7236e-18 -9.02525e-18 1 

-0.946124 -0.144941 2.19296 
-0.133679 0.5141 -0.220883 
-3.63132e-18 -8.17046e-18 1 

0.146785 -0.426558 0.950013 
0.408934 -0.0382247 0.176942 
2.67106e-18 -1.36683e-18 1 

-0.12929 -0.0353332 1.99777 
-0.0160255 0.0105477 2.10581 
-5.05389e-18 1.58181e-20 1 

-0.086055 -0.198643 -1.20856 
0.156011 0.0354728 -0.711866 
-2.5762e-17 -2.03493e-17 1 

-0.0875936 -0.0313825 -0.0848821 
0.0377177 -0.0879467 0.00647863 
2.106e-18 -9.92827e-18 1 

-0.156928 -0.023942 -0.0222118 
0.02742 -0.08142 0.00782848 
8.90877e-18 1.01027e-18 1 

-0.149128 -0.248889 0.293568 
0.084334 -0.0595914 -0.0345406 
1.18609e-17 0 1 

-0.130959 0.121044 0.372026 
-0.212526 -0.0884454 0.663135 
-4.93268e-19 6.35854e-19 1 

-0.156542 -0.0595011 0.23795 
0.117888 0.0357336 0.0614256 
-5.06569e-18 1.74754e-18 1 

-0.848614 2.42017 -3.74395 
0.106545 1.06172 1.05933 
2.45758e-18 -1.25448e-17 1 

-0.716399 -0.0979158 1.55067 
0.108045 0.293993 1.32026 
-1.61069e-17 2.67349e-18 1 

0.117233 -0.782034 -6.63224 
0.569195 0.220787 1.25065 
2.36843e-18 -1.35953e-17 1 

-0.110896 -0.0450453 0.390925 
0.122434 -0.0620562 0.359084 
8.54574e-18 -4.82583e-18 1 

-0.150107 0.118756 -0.111075 
-0.0716213 0.0495819 0.0281274 
-2.17218e-17 1.01515e-18 1 

-0.274504 0.0678414 2.21383 
0.119452 0.145129 -1.56185 
1.93654e-18 2.33583e-18 1 

-0.194172 -0.0687694 0.237551 
-0.125704 0.0304917 -0.437872 
2.13977e-18 -2.38531e-18 1 

-0.079476 -0.0010109 -1.41862 
-0.0107645 -0.0441197 2.27923 
2.63162e-19 1.38452e-17 1 

-1.42994 2.34985 -0.788621 
-0.665226 0.662358 0.190743 
-2.09166e-18 -2.78888e-18 1 

-0.0709071 -0.166148 -0.417529 
-0.00829211 -0.256268 0.233956 
5.96173e-18 -1.19767e-18 1 

-0.0534689 -0.0149391 0.393042 
0.048253 -0.101509 -0.366341 
8.34733e-18 -2.90596e-18 1 

0.535114 -0.859472 -1.62511 
1.02787 0.572184 0.444836 
-2.5469e-18 -7.6169e-19 1 

-0.648906 -0.0310647 -2.20984 
0.177883 0.240661 -0.882188 
5.29875e-18 -7.98262e-19 1 

-0.074056 -0.115769 0.176649 
0.0654654 -0.106901 0.318106 
7.1716e-19 -6.9667e-18 1 

-0.251592 -0.0888964 -1.48642 
-0.431759 0.169656 -0.83205 
4.83885e-19 8.38734e-18 1 

-0.134004 0.138681 -0.613987 
-0.0191088 0.0243455 -3.44007 
1.21717e-18 -4.12317e-18 1 

-0.172112 0.168362 0.326849 
-0.0843202 0.126111 -0.357043 
-7.20596e-18 -1.10423e-17 1 

-0.112233 0.0616665 0.358433 
0.066335 -0.0914584 0.125692 
8.40841e-18 -9.93609e-18 1 

-0.169199 0.0694773 2.72635 
-0.106188 0.0520115 1.11859 
4.22993e-18 -2.74202e-18 1 

-0.253727 -0.110056 -0.197079 
-0.0284287 0.0395913 -0.613557 
4.74498e-18 -7.66865e-19 1 

-0.0495182 0.034433 -0.0752243 
-0.11545 -0.0209645 0.0324773 
8.31058e-19 8.16217e-18 1 

-0.604666 -0.323224 0.44957 
0.183343 0.21372 0.0982484 
1.34894e-17 -1.34273e-17 1 

-0.110629 0.0202705 -0.404401 
-0.0572553 -0.0242405 -0.91479 
-4.30275e-18 2.9249e-17 1 

-0.104287 0.0198587 -0.052535 
-0.0485999 -0.0701035 -0.0944615 
2.84672e-18 -4.48358e-18 1 

-0.100912 0.013018 -0.00673033 
-0.0448966 -0.0235807 0.0620423 
-1.27418e-18 5.06687e-18 1 

-0.809661 -0.235398 -2.34509 
0.437133 0.349995 1.69303 
1.53178e-17 7.72766e-18 1 

-0.0707484 0.0644222 -0.026216 
-0.100181 -0.11062 0.0116995 
1.31374e-17 7.90296e-18 1 

-0.0935705 -0.130905 0.00967564 
0.147714 0.044753 0.402478 
-9.57142e-19 -1.98265e-17 1 

-1.00227 -0.0162563 -1.42671 
0.6069 0.478164 0.349074 
-5.26135e-18 3.01215e-18 1 

-0.0659361 -0.0696966 0.26371 
-0.134478 -0.0337447 -0.076693 
-2.99221e-18 -5.40899e-18 1 

0.118905 0.778486 -0.407 
0.240211 -0.332109 -0.375518 
-1.44632e-18 -6.02632e-19 1 

-0.115626 -0.0268527 -0.0336339 
-0.0060296 -0.00538659 -0.00697263 
-7.72628e-18 5.132e-18 1 

-0.164974 0.0752513 0.133658 
-0.0325559 -0.0399857 -0.00512505 
8.55661e-19 1.29344e-17 1 

-0.142436 0.00487145 0.213501 
-0.0662521 -0.105537 -0.0843224 
3.43594e-18 2.24642e-17 1 

-0.0839804 -0.797318 -4.06483 
0.141697 -0.027167 1.79736 
-1.42622e-17 -4.81919e-18 1 

-0.201557 0.149018 1.66462 
-0.323646 -0.0205513 -0.313825 
-4.23134e-18 5.34485e-18 1 

-0.0833072 0.230299 -0.544907 
0.00576906 -0.0159231 0.18065 
-6.70852e-18 -1.51132e-17 1 

-0.0455889 0.0344822 -0.0655527 
-0.0152092 -0.136813 -0.0140109 
1.13887e-17 1.97359e-17 1 

-0.0767917 -0.0248452 -0.208314 
-0.0214949 -0.0486892 -0.0221019 
-6.49292e-18 -9.73939e-18 1 

-0.193979 0.0268546 -0.355842 
0.292395 0.193567 0.334084 
4.86857e-18 6.1599e-18 1 

-0.128144 -0.1058 0.137819 
-0.0136427 -0.0139525 -0.0386697 
-3.15029e-18 9.04431e-18 1 

-0.0996252 -0.0955791 -0.281339 
-0.00610514 -0.0467945 -0.131076 
-1.15669e-17 -1.07237e-17 1 

-1.99823 1.17322 -4.24312 
0.331881 0.269024 1.19642 
5.6546e-18 -3.375e-18 1 

-0.132052 0.0278507 -0.14191 
0.00254165 0.0515163 -0.128457 
4.54179e-18 -4.41794e-18 1 

-0.173706 0.0977416 0.418159 
-0.0501459 0.00846613 0.00199466 
5.87175e-18 -2.42969e-18 1 

-1.77705 1.4484 -4.3406 
-1.02712 1.11845 -2.25954 
-5.88329e-18 1.71751e-18 1 

-0.0551756 -0.420028 0.138855 
0.443648 0.19223 -0.787263 
1.31868e-17 -1.23415e-17 1 

-0.117196 -0.0263665 7.82173 
-0.012369 -0.00176642 -0.546459 
1.12597e-18 3.01767e-18 1 

-0.211805 0.0803179 -0.104413 
-0.142725 -0.0933002 -0.277346 
-1.20165e-17 9.11036e-18 1 

-0.952806 1.22598 -0.868114 
-0.18111 0.598859 0.267304 
-1.62915e-17 1.15517e-17 1 

-0.0940852 0.038833 0.0482839 
-0.0278209 -0.0366038 -0.00424331 
6.27264e-18 1.78942e-18 1 

-0.310051 0.322667 0.671159 
-0.101699 0.271228 0.890954 
4.50871e-18 1.39265e-18 1 

-0.200755 0.126927 -1.12381 
0.235804 0.212437 1.3429 
1.35636e-17 -1.42299e-18 1 

-0.10096 0.0214488 -0.616028 
0.0403509 -0.0181457 -0.201171 
-5.40111e-18 7.08782e-18 1 

-0.0758502 0.0815482 0.0344145 
-0.0923913 -0.0946893 0.0359696 
1.04904e-17 -4.78623e-18 1 

-1.68948 0.265599 -11.3459 
0.641197 0.680794 -5.03703 
2.81339e-18 -6.82398e-18 1 

-0.194268 0.0635503 0.137384 
0.0570051 0.0237549 -0.227333 
-2.0326e-18 7.94561e-18 1 

-0.83595 -0.465475 -0.25042 
0.0200024 0.287112 0.753416 
-1.23701e-17 2.7411e-17 1 

-0.18052 -0.65825 -0.788044 
0.460815 0.379966 0.181756 
1.04001e-17 -6.77264e-18 1 

-0.669731 -0.439453 -0.403242 
0.397105 0.293247 0.635587 
-1.14518e-18 -6.45463e-18 1 

-0.0308702 -0.146511 0.413432 
0.0921615 -0.00958023 0.00947314 
1.42439e-17 7.56068e-18 1 

-0.069931 -0.0368609 -0.0701961 
0.0513922 -0.0173963 0.00732936 
4.82332e-18 -6.48452e-18 1 

-0.006497 0.341416 1.91005 
0.444968 0.0445169 -0.511751 
-1.18157e-17 1.01703e-17 1 

-0.216365 -0.250185 0.124639 
0.274444 0.0425863 0.188283 
-1.84227e-17 1.27224e-17 1 

0.00958514 0.505517 -0.208912 
-0.46063 0.133159 0.145769 
1.36593e-18 5.73692e-18 1 

-0.648028 5.31683 7.54538 
0.0990998 0.279728 0.260377 
-1.93154e-18 -3.09599e-17 1 

-0.0806299 0.0606739 0.156717 
0.0388756 -0.0869318 -0.28166 
1.97937e-18 2.39754e-18 1 

-0.593834 -0.430977 0.811766 
0.329493 0.222027 -0.0268059 
1.53967e-17 -1.89082e-18 1 

-0.123868 0.0507101 0.0259963 
0.000872032 -0.0756975 0.976566 
-3.03281e-18 -2.25294e-18 1 

-0.164305 -0.132254 -0.0741775 
-0.0789422 -0.0585439 0.207225 
2.52782e-18 3.81752e-18 1 

-0.427726 -0.0454306 -0.414502 
-0.0352557 0.0947365 -0.0855977 
1.12655e-17 1.57533e-17 1 

-0.808512 -0.089402 -27.4902 
0.145962 0.359498 12.3281 
3.01995e-18 -9.01564e-19 1 

-0.150846 -0.0664979 0.0013218 
0.0229072 0.00796212 0.210085 
4.8137e-18 9.89116e-19 1 

-0.0964762 0.0760165 0.0187586 
-0.00535195 0.00669501 -0.0398544 
-6.20474e-19 8.73694e-18 1 

-0.67085 0.513063 -1.56721 
0.168096 0.310503 -0.188031 
-6.92952e-18 -5.67994e-18 1 

-0.146119 0.0583357 -0.0278202 
-0.00853299 -0.0300362 0.0440764 
-3.02736e-18 -6.37378e-18 1 

-0.823623 -0.549782 0.438292 
0.841673 0.54726 -0.128989 
-2.23604e-18 -8.85288e-18 1 

-1.06243 0.645462 -1.17468 
0.142499 0.364401 0.375072 
5.14034e-18 -2.15711e-18 1 

-0.0610619 -0.17768 -0.293399 
0.0465646 0.0319102 -0.0498011 
-1.02814e-17 4.13966e-18 1 

-0.139205 -0.0344834 2.2053 
0.00775827 0.0269554 0.767127 
4.9947e-18 4.6201e-18 1 

0.0338422 -0.841257 -2.05549 
0.66286 0.373588 1.51295 
-3.85161e-18 2.55474e-17 1 

-0.0979844 -0.0403918 -0.0754168 
0.0272019 -0.0662866 1.48119 
2.94493e-18 1.53858e-18 1 

-0.0608836 -0.23407 0.245763 
0.220785 0.0241145 0.00533384 
9.69953e-18 -1.86677e-18 1 

-0.0958417 -0.0268325 0.0566336 
-0.00959432 -0.103968 0.390242 
-2.15693e-17 3.85358e-19 1 

-0.187136 0.19165 0.0081096 
-0.263165 -0.055856 -0.125492 
-1.31117e-17 1.18714e-17 1 

-0.333772 0.546658 0.124828 
-0.444671 0.151903 0.15701 
6.94335e-18 -2.40595e-17 1 

-0.128629 -0.0799608 0.293452 
0.0416291 -0.0028183 -0.133458 
4.54232e-19 1.61e-17 1 

-0.135661 0.0346126 0.139105 
0.0619317 -0.116301 -0.0796752 
1.07175e-17 2.98991e-18 1 

-0.340743 -0.135285 23.1575 
-0.00494246 0.00487488 0.0982695 
6.73642e-18 -4.635e-18 1 

-0.188687 0.0635729 -2.07812 
-0.000113619 0.204404 5.93713 
1.72749e-18 -4.51068e-17 1 

-0.0434429 0.0328936 1.15037 
-0.0680133 -0.0561376 -0.508632 
-5.74103e-18 -5.74103e-18 1 

-0.0727433 0.0301896 0.0982861 
0.0378123 -0.142235 -0.0124494 
-5.7689e-19 -6.54848e-18 1 

-1.19738 0.438216 4.91748 
-0.466117 0.736486 -3.86136 
8.3682e-18 -4.58783e-19 1 

-0.419894 0.351652 0.110831 
-0.146534 0.332544 -0.808648 
-1.08957e-18 2.25177e-18 1 

-0.105567 -0.0114254 -0.826749 
0.0323126 -0.0250805 0.152112 
3.01746e-18 -1.12385e-18 1 

-0.275547 0.11464 0.251625 
0.00171128 0.109015 -0.195229 
7.38616e-19 9.50968e-18 1 

-0.306634 0.27852 0.992623 
-0.0136628 0.222838 0.431533 
4.5374e-18 -1.6205e-18 1 

-0.65959 -1.39774 -0.643532 
0.0113017 1.02334 1.38302 
4.46198e-18 4.27211e-19 1 

-0.143285 -0.229254 0.107168 
0.303998 0.0677485 -0.0784302 
5.31093e-18 -1.23537e-17 1 

-0.754913 0.102475 0.97246 
0.0290812 0.209572 0.0182006 
3.6539e-18 2.40728e-17 1 

-0.213897 0.682806 -1.01545 
-0.418233 0.310634 0.415376 
-8.67399e-18 3.67369e-18 1 

-0.0918826 0.0228546 0.0018231 
-0.0570683 0.00239722 -0.112335 
-6.12203e-18 -3.24291e-18 1 

-0.000772078 -0.117897 0.376482 
0.0584928 -0.101126 -0.243373 
-7.19555e-19 8.52806e-18 1 

-0.126117 0.00551217 -7.82467 
-0.00885618 -0.0200609 -14.1043 
2.75795e-18 5.76288e-18 1 

-0.106269 0.0318914 0.107022 
-0.0298082 -0.131589 0.239816 
5.07413e-18 -4.41586e-18 1 

-0.15692 0.130309 0.205365 
-0.0638469 0.103268 0.332052 
1.67642e-18 -4.62838e-18 1 

-0.277901 0.248495 -0.431375 
0.00584247 0.129495 -0.631302 
-7.72366e-18 -8.48668e-18 1 

0.180284 -0.786093 -0.397807 
0.695078 0.340849 0.419655 
-9.33372e-18 2.44247e-18 1 

-0.123957 0.0126638 -1.13812 
0.0805119 -0.0133755 -0.417497 
1.14462e-17 1.10129e-18 1 

-1.74555 0.42561 -1.57316 
-0.0478913 0.833149 0.410674 
7.47075e-19 -8.02055e-18 1 

-0.222794 -0.334149 0.0286214 
0.35797 0.171823 -0.32373 
2.99814e-18 5.18264e-18 1 

-0.0906214 -0.214522 -1.10387 
0.1446 0.048203 -0.815036 
1.18145e-17 -6.11672e-18 1 

-0.349281 0.304365 0.505962 
0.0316663 -0.0100846 -0.397022 
-9.09299e-18 -3.48512e-19 1 

-0.280787 -0.238954 -0.84834 
-0.445628 0.166638 -0.132563 
-2.86423e-18 -5.95759e-18 1 

-0.0982446 -0.0151513 0.0213097 
-0.0681481 0.0168132 0.164902 
2.06193e-19 3.40259e-18 1 

-1.17341 2.31907 -2.19274 
0.342356 0.0860394 -1.91096 
-1.45424e-18 -5.9112e-18 1 

-0.104152 -0.0189993 0.581008 
0.0905209 -0.0049004 -1.18646 
4.19846e-18 -1.08747e-17 1 

-0.20693 -0.0851151 -0.271272 
-0.0061698 -0.0223108 0.179224 
1.15681e-17 -6.72563e-18 1 

-0.0736409 0.00590502 0.263942 
-0.00535206 -0.0455755 -0.212449 
2.299e-17 -5.23556e-18 1 

-0.267729 0.0715427 -2.94177 
-0.0828971 -0.0223643 -20.4904 
8.55381e-19 6.64454e-18 1 

-0.0646948 -0.0050889 -0.119698 
0.0398885 -0.0334168 0.0140553 
1.01749e-17 -9.42125e-19 1 

-0.0814324 -0.194857 -0.174782 
0.15719 0.0254447 -0.42204 
-8.50436e-18 -3.67977e-19 1 

-0.105192 -0.0227882 0.0115537 
0.040808 0.00701764 0.0756151 
-3.56033e-18 -1.29626e-17 1 

-0.0610946 -0.0264698 0.306323 
8.51311e-05 0.0282149 0.273179 
-4.63509e-19 -1.18967e-17 1 

0.349297 -0.970236 -0.67007 
0.824342 0.533175 0.399051 
4.38127e-18 2.14085e-18 1 

-0.350884 -0.00261677 0.485379 
0.4607 -0.0276994 1.02053 
-8.95592e-18 -3.17528e-18 1 

-0.0996128 0.0574854 0.0599305 
-0.0683138 -0.0896654 -0.257474 
8.56821e-18 1.44494e-18 1 

-0.121386 -0.123468 0.761874 
0.120555 0.0191774 0.763741 
-7.32156e-18 2.43249e-18 1 

-0.102996 -0.0201028 -0.532151 
0.0243995 0.00280403 -0.2222 
2.0642e-18 -7.17916e-18 1 

-0.104576 -0.0471066 2.81241 
0.0301396 -0.00380429 2.21336 
1.34041e-18 -3.21774e-18 1 

-0.147199 0.0012035 0.0402294 
0.0613734 0.00606694 -0.414516 
-4.32126e-18 -2.74281e-18 1 

-0.147368 0.0123877 -0.0350503 
-0.0319787 -0.0291632 -0.20817 
6.10268e-18 -6.69564e-18 1 

-0.114428 -0.00699846 0.42777 
-0.0198639 -0.0283438 0.664275 
-1.19444e-18 6.33241e-18 1 

-0.0980925 0.0784459 -1.12887 
-0.0710485 -0.00362945 0.898755 
9.37903e-19 1.57685e-17 1 

-0.379981 -0.100397 0.586501 
0.350713 0.337676 1.16098 
-2.61005e-18 1.12822e-17 1 

-0.183733 0.0214726 0.869221 
-0.141179 0.0948455 0.440164 
-5.92157e-18 -5.18759e-18 1 

-0.126788 0.000154173 -5.44474 
0.0191295 0.036064 2.4237 
4.11399e-18 1.5734e-18 1 

-0.481925 0.325604 -1.48806 
-0.018674 1.27475 -10.6039 
1.88227e-18 -1.12109e-17 1 

-0.571296 -0.106172 2.00798 
0.112305 -0.0210435 3.17795 
2.03148e-17 -5.89919e-18 1 

-0.276898 -0.191783 1.06842 
0.069179 0.147192 -1.77079 
1.47954e-17 6.2042e-18 1 

-2.26535 -0.432868 -0.38575 
0.171906 0.789264 -0.780497 
-1.36738e-17 -1.44334e-17 1 

-0.719114 -0.0390423 -4.73593 
0.347189 0.470912 -0.233112 
5.17121e-19 4.3444e-18 1 

-1.05573 0.846127 -6.2134 
-0.203342 0.79868 8.63813 
2.83747e-18 -1.01338e-17 1 

-0.274235 0.121772 -0.964188 
-0.188153 0.127115 -0.00828322 
-6.64607e-19 -4.43071e-19 1 

-0.539863 0.34338 0.262944 
0.975467 0.348243 0.346801 
1.35186e-17 -1.09982e-18 1 

-0.0467925 0.00261544 -0.00701936 
-0.0165116 -0.0506159 0.0859456 
-1.19555e-17 -1.08881e-17 1 

-0.104536 0.0165141 0.179365 
-0.0418459 -0.0307206 -0.0137877 
-4.62979e-19 6.87854e-18 1 

-0.0845561 -0.0631331 -0.291528 
0.0142226 -0.0818763 0.193154 
6.06312e-19 8.8186e-18 1 

-0.204301 -0.023587 -0.227987 
0.0520092 0.00788815 0.282428 
-9.779e-18 -4.17969e-18 1 

-0.0963664 0.0107196 -0.0397274 
0.0462321 -0.0485568 -0.0633388 
-7.07412e-18 7.42203e-18 1 

-0.0923334 0.0326028 -0.151158 
0.0314203 -0.0131215 0.00350728 
-1.50391e-18 -6.32714e-18 1 

-0.146203 -0.0803686 -0.13523 
0.030985 -0.09351 -0.162064 
-1.74341e-18 8.39588e-18 1 

-0.478929 0.647859 2.20956 
-0.284817 0.289525 1.81888 
1.47708e-17 -1.50211e-18 1 

-0.0927855 -0.219972 -0.00814416 
0.272015 -0.0225959 -0.104129 
-4.4385e-18 -1.63746e-18 1 

-0.141551 -0.0442472 0.247683 
0.0982601 -0.00167528 0.0387571 
-5.61062e-18 1.79849e-18 1 

-0.559198 1.57423 6.48291 
-0.0942433 1.067 2.15068 
-4.71324e-18 1.14885e-17 1 

-0.120031 0.0128685 -0.00326712 
-0.0173468 -0.0416091 -0.133505 
5.18685e-19 -4.93985e-19 1 

-0.111643 0.111957 -0.605108 
-0.19076 -0.028019 0.284382 
4.03839e-18 2.25757e-18 1 

-0.236142 0.0126324 -0.239105 
-0.00765353 -0.0745118 -0.0950471 
-2.89832e-18 -1.5804e-17 1 

-0.301586 -0.0999458 0.912955 
0.0748531 0.121313 -0.242323 
-2.27663e-18 -3.94163e-18 1 

-0.32053 -0.0735919 0.413249 
-0.110711 -0.0194255 0.093473 
5.62885e-18 -1.60616e-17 1 

-0.102273 -0.0499597 -0.0292338 
-0.0168655 -0.0485839 0.0465309 
-1.50215e-17 -3.75068e-18 1 

-0.104767 -0.0118775 -0.774793 
0.0417269 -0.0642028 -2.55869 
-3.84807e-18 -8.80615e-18 1 

-0.129988 -0.144767 0.0353778 
0.201127 -0.00407881 -0.217371 
7.8282e-18 -7.50007e-18 1 

-0.164562 -0.0118473 -0.445285 
-0.02375 -0.0482579 0.284933 
3.04712e-18 -1.57253e-17 1 

-0.0916914 -0.0437183 0.359083 
-0.0502955 -0.0519417 0.397091 
-3.19582e-18 5.99487e-18 1 

-0.949615 0.450945 0.132546 
1.16801 0.0110229 0.386163 
2.87413e-18 -1.573e-18 1 

-0.102901 -0.053421 -0.135416 
0.0026639 -0.0556694 -0.840109 
3.21623e-18 1.02804e-17 1 

-0.427549 0.0124008 -0.266551 
0.060069 -0.00578648 0.390313 
-6.64647e-18 3.68587e-17 1 

-1.46819 1.21537 1.40938 
1.56009 0.187417 0.0770934 
4.91386e-18 1.0224e-17 1 

-0.0954887 -0.0962082 -0.168852 
0.0672608 -0.053908 0.0267399 
3.37617e-18 4.93005e-18 1 

-4.84737 -1.1746 -1.86338 
0.1829 0.833136 0.770311 
-1.39102e-18 -3.84575e-18 1 

-0.504096 -0.551244 1.29247 
0.16381 0.449628 0.375345 
4.61481e-18 2.95821e-18 1 

-1.08484 0.675996 -0.241151 
-0.0865921 0.345497 -0.569655 
4.25814e-18 -2.16547e-17 1 

-0.0982494 0.120859 0.112907 
-0.113455 0.0172282 -0.182557 
7.88994e-18 -1.53534e-17 1 

-0.0945979 0.179073 0.0420165 
-0.168378 -0.130625 -0.505099 
1.97593e-17 -2.83542e-18 1 

-0.156891 -0.250329 -0.0249565 
0.267837 0.0238393 0.124435 
-1.02184e-17 3.11419e-18 1 

-0.23073 0.0246947 0.143464 
-0.127514 -0.00100304 0.147921 
9.85115e-18 -2.1506e-18 1 

-0.156917 -0.284131 1.17709 
0.174191 0.0743933 0.683211 
-1.25776e-17 -9.77174e-18 1 

0.00466557 -0.375513 -0.0247528 
0.391539 -0.0237381 -0.136186 
4.22912e-18 1.24165e-17 1 

-0.0843764 -0.0221508 0.0441125 
0.0252169 -0.0457954 -0.00876013 
-1.53715e-17 -4.34255e-19 1 

-0.655584 -0.747638 0.368234 
0.346801 0.514743 -0.259587 
1.18038e-17 -2.24726e-17 1 

-1.95691 0.445941 -2.04459 
-0.226519 0.531434 -0.655897 
-2.33397e-18 7.50206e-18 1 

-0.159036 0.245754 -0.382072 
0.0476086 0.0715406 -0.195202 
6.90883e-19 2.51679e-18 1 

-0.0985068 0.0398804 -0.850436 
0.00991322 0.0114212 0.0142181 
-5.02616e-18 5.11929e-18 1 

-0.0769428 -0.0270287 0.151364 
-0.0033068 -0.0165159 0.517351 
5.90161e-18 6.47981e-18 1 

-0.0866139 -0.0619573 0.0990874 
0.0779453 0.0219942 -0.282396 
-1.17754e-17 -6.48785e-19 1 

-0.55975 0.439216 -1.15743 
0.118584 0.0119977 1.8393 
3.27012e-18 6.15298e-18 1 

-0.383573 0.149776 0.332455 
-0.279471 0.309397 -0.874358 
2.58527e-18 2.71822e-18 1 

-0.161451 -0.0775092 0.835027 
0.036535 0.105606 -1.18985 
-5.52058e-18 1.32029e-17 1 

-0.165556 0.0184385 -0.162482 
0.00684481 -0.0468784 -0.734734 
-9.16833e-18 -5.38301e-18 1 

-0.117086 -0.0073094 0.377398 
0.178289 -0.0187155 0.51104 
2.74385e-17 -3.53474e-18 1 

-0.103267 0.0167789 0.817907 
0.00993683 0.0572399 -0.434231 
2.67395e-18 4.16318e-18 1 

-0.756368 -0.55933 -4.64948 
0.134193 0.347576 -0.926777 
7.20304e-18 1.49557e-18 1 

-0.34188 0.0273103 -1.13071 
0.0495739 0.281545 -0.402211 
-1.01147e-17 6.71208e-19 1 

-0.117359 -0.017516 0.0807666 
-0.00103939 -0.118632 -0.0255678 
-8.43445e-18 -6.43697e-17 1 

0.106208 -0.513943 0.145717 
0.501831 0.10937 -0.0433043 
7.05536e-18 7.95693e-18 1 

-0.312682 -0.946439 0.62113 
0.61308 0.450885 2.13257 
-7.02805e-18 -2.79386e-18 1 

-0.12607 -0.0982676 0.0493746 
0.0586762 0.00912892 0.146286 
8.7289e-18 1.06073e-17 1 

-0.386603 -0.0980409 -1.5614 
-0.0526178 0.044504 0.206819 
-3.08329e-18 -2.05082e-17 1 

-0.314986 0.237614 -1.11545 
-0.056251 0.194277 -1.949 
4.77199e-18 6.89486e-18 1 

-0.112672 0.0284928 0.012425 
0.0743964 -0.0727218 -0.20169 
6.88789e-19 -7.45144e-18 1 
