# vtk DataFile Version 3.0
Output file generated by Yade's KinematicLocalisationAnalyser
ASCII
DATASET UNSTRUCTURED_GRID

POINTS 13483 float
543.457 44.5186 -0.416133
649.518 57.7697 -0.516873
116.094 6.12697 0.427825
676.896 14.2928 0.47955
464.312 21.1221 0.317988
305.604 39.5809 0.599362
151.373 7.06131 -0.461034
525.07 11.019 0.223917
465.932 43.1576 -0.158988
616.296 33.53 -0.536713
204.172 8.80954 -0.0925345
249.279 6.39018 -0.303478
575.309 55.3652 -0.13854
564.367 34.1318 -0.0764875
133.088 18.64 0.442718
215.221 35.7328 -0.288471
211.481 13.2542 0.257842
280.634 9.65552 0.43061
329.607 36.2423 0.493746
481.942 8.79135 0.395248
397.477 39.6404 -0.109044
523.208 56.1008 -0.253966
671.264 50.5212 0.481676
618.184 89.2266 0.430846
439.401 17.7116 0.296456
234.467 46.8225 0.130768
465.579 45.0278 -0.507735
537.204 21.8066 0.293721
42.9691 16.2803 -0.50453
624.171 70.3182 -0.376407
460.881 4.83654 0.447944
17.995 24.6469 0.316538
659.273 68.7602 -0.255309
461.827 14.4738 0.551504
75.2007 46.5378 -0.108853
482.501 37.579 0.350641
488.235 16.0249 -0.484129
332.434 22.506 0.212935
491.777 26.6932 -0.337088
338.46 36.4822 0.516799
234.516 14.7271 0.335711
418.468 39.2563 0.0684273
591.717 14.6481 0.120609
186.542 6.3226 -0.429996
53.9039 7.48966 0.0906397
65.8841 8.89841 0.251966
599.384 27.9168 0.522559
22.9438 11.7544 -0.253598
526.32 66.5565 -0.379423
588.184 45.7386 -0.382662
166.339 33.4558 -0.302563
648.543 44.7424 0.127353
32.9279 30.3327 0.113459
491.3 2.8844 0.399903
137.277 7.63266 0.509474
530.193 40.8673 -0.414368
470.407 45.0052 0.123095
169.937 0.973931 0.263179
32.0962 2.29167 -0.362672
338.422 18.6395 0.274359
537.795 73.9523 -0.131983
447.102 44.1363 -0.195858
385.789 1.03969 0.208412
607.48 27.2071 0.463392
25.1091 46.2888 -0.236432
249.747 32.533 -0.330037
613.834 23.97 -0.271519
588.68 78.0793 -0.305918
403.513 8.41156 -0.600583
525.49 3.69817 -0.513852
630.926 34.9593 0.399331
126.86 7.80532 -0.276303
469.927 47.2229 -0.117427
448.704 25.8422 -0.095835
286.651 17.2479 -0.340705
20.5537 13.9967 0.247931
669.311 69.9874 0.346801
322.928 42.7114 -0.334711
587.268 40.2685 0.351204
595.765 31.2973 -0.256915
666.892 16.7217 -0.282815
449.5 47.2124 -0.179546
89.8802 41.413 0.267027
609.644 75.8903 0.206844
567.871 67.004 -0.0925132
673.029 61.0551 -0.122634
667.781 0.768777 0.562974
283.689 29.0966 0.484244
563.341 19.4365 -0.12387
23.8658 5.23809 -0.5895
129.77 40.3876 0.17589
477.703 18.6871 0.27695
655.452 32.8144 0.604114
190.618 29.3865 0.259216
42.2312 35.8426 0.319471
471.123 1.1016 0.177556
229.783 8.75454 -0.443313
648.572 72.7604 -0.306298
645.945 34.1491 0.285193
350.083 21.2464 -0.267046
157.86 28.4783 0.472092
501.14 49.6624 -0.419104
368.956 16.5379 -0.497595
401.732 31.8974 -0.118361
366.505 5.77912 0.515004
506.802 10.3602 -0.110041
674.578 27.9001 0.250203
77.6419 41.6127 -0.41211
326.431 5.02207 -0.234007
519.015 10.8744 -0.544111
350.083 46.5642 0.518211
23.4789 27.653 0.453059
29.8309 5.56641 -0.377026
513.199 48.7985 0.453045
470.826 39.6375 0.159009
24.5849 40.0728 -0.413207
91.5338 33.6479 -0.221622
317.642 17.1068 -0.281806
545.373 31.2499 -0.151497
456.249 58.4454 0.175779
614.48 7.13994 -0.549355
610.041 9.90448 -0.316733
376.687 39.7397 0.11576
560.432 48.6524 0.10996
231.962 18.1439 0.475379
321.929 3.88767 0.467106
100.187 34.0112 0.320394
113.037 25.6613 0.264302
501.162 45.3971 -0.08117
299.684 18.8631 0.499419
623.996 73.6304 -0.107055
592.933 78.9904 0.116361
453.571 34.3464 -0.400331
650.761 12.3105 0.355647
414.967 26.9669 0.235066
271.42 24.1393 -0.315798
591.559 63.538 -0.276653
273.003 30.9315 0.371465
534.681 12.1117 -0.198957
323.822 39.3281 0.204447
472.022 20.4214 0.446467
357.022 33.2059 -0.0906374
418.112 18.8969 0.128781
310.113 45.736 -0.366244
186.801 30.6599 -0.128837
653.453 59.7912 -0.199597
671.597 29.1845 -0.345948
5.96644 12.6756 0.431169
420.183 25.4264 -0.382697
36.5047 23.6218 0.0736533
367.437 33.3186 -0.472027
386.297 26.0932 -0.266597
72.7401 11.8946 0.505766
49.9112 34.1149 0.477798
221.64 13.7113 0.473487
541.261 67.1589 0.377079
534.056 23.7357 -0.510759
73.6312 21.4377 0.486773
619.068 93.7109 -0.407188
640.377 4.09143 -0.555287
581.874 71.1673 -0.461967
599.503 10.2584 -0.596019
510.971 28.3164 -0.515266
524.468 54.7929 -0.433501
476.38 26.2847 -0.394299
676.488 9.76604 -0.282787
220.586 25.4235 -0.114771
125.537 37.6031 -0.208685
242.438 6.9086 -0.403601
92.4014 4.57019 -0.270955
62.4407 10.9536 0.232589
271.189 38.1711 -0.307688
16.8517 26.4798 -0.363034
517.177 20.2455 0.453033
529.399 62.2209 -0.23873
446.743 22.979 -0.376269
677.095 77.8884 0.351626
396.947 8.7855 -0.13087
424.098 41.1995 -0.364728
499.278 3.36445 -0.264517
21.2885 25.3554 -0.3758
537.042 4.4574 0.563939
508.718 4.17917 -0.31932
202.519 11.3177 0.509426
414.189 16.673 0.218913
306.388 6.56672 0.342738
379.562 21.3235 -0.42403
638.336 61.2809 0.105447
189.746 26.2805 0.459772
659.403 5.94566 0.383375
635.646 53.2736 0.403582
375.033 10.9703 0.204965
603.145 3.45889 0.693456
548.027 43.4096 -0.425234
623.052 20.0204 -0.386334
418.888 48.6178 0.298994
468.188 25.6109 0.380302
447.163 60.0512 0.233762
433.064 10.3015 -0.211406
585.717 71.9089 0.257935
584.917 68.0797 0.362593
189.01 39.9423 -0.342695
667.531 14.6306 0.0427345
523.58 48.8518 -0.301809
12.1048 17.3558 0.162352
399.274 27.1032 0.366037
184.446 23.9654 0.403642
91.4741 42.5066 0.215603
651.831 27.363 0.414896
579.449 77.5786 -0.245775
314.571 27.9798 0.349321
496.504 9.99423 0.338283
80.2534 47.068 -0.170929
243.695 26.0857 -0.460826
518.108 28.6861 0.35609
461.644 33.3529 0.444908
258.602 0.886629 -0.35168
502.548 59.8819 -0.385359
498.394 40.275 0.474464
466.602 57.6367 0.382844
468.555 5.31058 -0.554081
605.945 49.2486 0.351764
176.498 12.7617 0.194882
484.442 60.5969 -0.404687
513.991 66.2734 -0.120867
71.6647 0.953123 -0.271729
247.565 4.69506 0.162413
670.076 30.4003 0.197562
666.909 18.6351 -0.580484
676.356 33.511 -0.564961
298.998 8.67438 -0.258554
628.629 25.2381 -0.469678
396.902 47.5156 0.416487
436.37 0.823465 0.59143
573.227 65.7447 0.512482
25.1503 33.7416 -0.298968
324.712 45.5815 -0.582286
248.489 2.87494 0.374851
662.739 71.4207 0.184446
638.172 78.677 0.229353
283.038 11.0532 0.271364
586.545 61.2341 0.0866946
521.242 2.52895 0.23375
506.426 6.30002 0.449915
95.0439 18.7772 -0.479827
298.941 1.05377 -0.23392
337.352 2.22648 -0.383469
13.8095 7.66887 0.449937
4.62451 31.3855 -0.247515
158.921 19.0032 0.353489
66.5197 43.103 -0.22289
65.9244 30.0534 -0.331929
414.388 15.0028 -0.482762
360.104 36.7045 -0.499385
646.753 46.0822 -0.149513
19.2617 4.00214 0.276842
69.1043 7.00423 -0.167235
549.248 65.9024 -0.171445
290.449 0.943742 0.395508
357.81 17.3153 -0.0967893
232.168 4.72124 -0.356369
576.216 42.5185 0.190702
438.425 8.35614 0.534255
630.583 22.3454 0.557757
559.905 52.3313 0.335886
588.483 37.0422 -0.116625
409.877 28.2119 0.52209
101.231 47.4347 0.325451
497.274 50.3061 0.0909961
618.99 12.5762 0.276752
235.648 32.6026 -0.237231
31.0024 19.6436 0.183629
331.034 14.1901 0.498739
106.226 42.7354 -0.476237
265.289 43.8554 -0.222556
417.176 2.28787 -0.268648
657.109 43.3131 -0.452354
596.977 2.2671 -0.559799
326.892 3.51226 0.592979
296.832 28.3401 0.139518
448.389 56.9826 0.222864
80.2617 8.03206 -0.45699
195.219 46.0102 -0.386307
648.493 35.7293 -0.42998
481.9 63.5012 0.0626726
197.543 41.9579 0.288071
158.504 44.3433 -0.394306
676.42 55.1082 -0.408075
673.378 28.908 -0.639408
564.593 4.62252 -0.643215
188.081 25.6482 -0.0991497
510.587 32.3275 0.114306
513.565 29.5621 0.268575
401.321 5.64765 -0.157672
466.277 1.22802 0.390847
644.244 47.5393 0.495101
84.2971 33.7362 -0.220157
583.182 32.3509 0.510314
270.33 15.8225 -0.348705
9.23708 2.41634 -0.315389
124.123 39.1608 0.186723
66.5296 24.7154 0.485325
623.386 78.7054 0.315502
662.02 80.2996 -0.169802
183.049 29.0261 -0.183084
670.112 26.2142 0.44627
43.8295 37.8501 0.268872
90.5771 30.3257 0.156203
573.896 29.4424 0.399388
405.8 19.8555 -0.478068
486.636 17.0137 0.152331
236.247 30.7138 0.188992
566.093 18.4105 -0.695371
676.989 26.9162 0.448848
28.0082 34.5306 -0.275891
266.514 7.77346 0.20806
219.712 15.6771 0.27285
1.092 35.9929 -0.147336
222.787 14.9024 0.391751
208.922 11.1444 0.133559
212.39 26.4302 -0.308397
130.461 30.2319 0.115368
511.85 15.0022 -0.422715
164.344 14.3775 -0.33139
658.607 65.4176 -0.234235
171.801 3.98277 -0.488037
45.7765 38.6186 0.36871
641.051 72.0421 0.555916
277.936 33.7156 0.38224
591.519 53.5222 -0.456271
664.624 59.129 0.591406
297.143 9.35712 0.133719
626.378 50.638 0.370871
323.917 2.50131 -0.44104
409.113 23.5289 0.370107
589.264 34.0655 -0.511287
104.277 12.0434 -0.467908
468.276 3.72126 -0.62869
631.567 19.9086 0.230825
87.0036 7.96639 0.27582
278.189 14.8731 0.194627
415.182 12.4655 -0.227995
677.083 5.7185 0.704862
390.66 2.00977 -0.542618
174.301 39.6672 -0.33069
621.447 10.1379 -0.425176
127.462 38.5532 0.193863
260.761 32.422 -0.361901
393.979 22.5475 0.215807
536.462 14.7224 0.39342
379.984 9.53475 -0.573712
440.336 35.394 -0.442876
651.033 58.0593 -0.500737
46.8746 11.8543 0.12542
295.006 39.1431 -0.322234
373.902 27.7362 -0.370768
402.378 21.3793 0.244564
494.495 48.3436 -0.478586
656.378 73.411 0.251263
590.66 69.1757 -0.317827
223.149 37.131 0.434738
13.6282 34.2723 0.147737
583.085 67.6588 -0.153267
491.111 52.6377 -0.592415
226.863 42.0219 -0.107959
608.326 72.7464 -0.114661
148.61 9.42626 -0.236899
361.057 23.9389 0.291027
449.083 58.9392 0.143809
406.591 21.4278 0.199956
645.124 60.6208 -0.320703
417.642 4.2848 0.654798
48.2125 25.9132 0.307327
459.571 52.3242 0.326134
425.028 46.3511 -0.417772
664.738 62.5249 -0.252556
626.926 47.2093 0.250038
506.584 19.0435 -0.163528
658.186 56.5081 -0.523001
290.069 2.21894 -0.504182
374.16 31.2939 -0.448155
27.8582 41.7571 -0.301617
633.435 45.2806 0.178968
553.383 33.8464 -0.501334
449.747 0.756996 -0.484588
124.021 4.72267 0.357251
417.274 44.911 0.107424
11.6427 0.929524 0.358378
673.634 12.6796 -0.0902629
364.049 40.8076 -0.465631
[...]
POINT_DATA 13483
TENSORS Strain_matrix float
-0.848147 -0.907111 -0.94905 
0.483492 0.39657 0.32955 
-1.26353e-17 4.3697e-18 1 

-1.09115 1.3663 -44.9604 
0.246086 0.895814 -29.1091 
1.0587e-17 5.24628e-18 1 

-0.154523 -0.0720347 -0.0320931 
0.0565547 -0.00133104 -0.670057 
0 1.54833e-17 1 

-1.53499 -0.596331 0.171458 
0.738772 0.452808 0.160151 
1.0843e-17 -5.69954e-18 1 

-0.381275 0.088619 0.264062 
-0.305204 0.188222 -0.844349 
5.9173e-18 -3.76701e-18 1 

-0.171075 -0.0738037 -3.03555 
0.081352 0.0371323 -10.3508 
1.31197e-18 -3.34738e-18 1 

-0.138587 -0.0338893 0.435289 
-0.00636425 -0.0760302 0.46443 
3.06034e-18 -1.25001e-17 1 

-0.164869 0.0442474 -0.108454 
0.0785351 -0.121321 -0.125452 
-1.5177e-17 -2.3302e-17 1 

-1.24331 1.03047 -1.49188 
0.215211 0.131855 0.891068 
-2.59095e-18 6.11464e-18 1 

-0.879964 0.811375 -1.18202 
-1.23908 0.958296 -0.397382 
1.53036e-17 -4.61299e-18 1 

-0.105328 -0.0153732 -0.178163 
0.0169702 -0.0724503 0.072357 
4.7892e-18 -3.09889e-18 1 

-0.147024 -0.0619655 0.153598 
-0.0159224 -0.0753578 0.240298 
-1.08868e-17 -1.04509e-17 1 

-0.70254 -0.249521 0.946022 
-0.071657 0.347397 -0.125995 
7.97108e-18 4.04168e-18 1 

0.0622962 -0.555053 0.972742 
0.52352 -0.0614392 0.201918 
2.97402e-19 3.56882e-18 1 

-0.232236 0.00824629 -0.0857754 
0.0104685 0.098939 -0.729377 
6.56929e-18 3.43896e-18 1 

-0.0961873 -0.330728 -0.711297 
0.263167 0.119864 -0.319947 
-5.37336e-19 9.61944e-19 1 

-0.102736 -0.0222755 -0.0734575 
0.0208841 -0.0802333 -0.0123704 
-5.39169e-18 -2.16176e-18 1 

-0.209074 -0.0332909 0.0333539 
0.0156202 -0.0776415 0.0290641 
-3.46218e-18 -4.13663e-18 1 

-0.257824 -0.121714 1.35102 
-0.107594 -0.0491349 -0.74549 
7.93752e-18 1.96018e-18 1 

-0.0586715 0.382972 0.564436 
-0.527623 -0.0605779 0.63614 
-1.74367e-18 8.78292e-18 1 

-0.203149 -0.288658 0.214656 
0.223605 0.0825264 -0.392016 
7.40211e-18 9.59722e-18 1 

-4.30068 -2.29806 2.21372 
-0.0903723 0.906059 0.926622 
-1.21966e-17 -9.04086e-18 1 

-0.00149738 -0.194582 3.55033 
0.522277 0.174229 1.94528 
7.9233e-18 1.17957e-18 1 

-0.274274 1.21213 115.798 
0.184613 1.44646 88.0745 
9.65488e-18 1.75132e-17 1 

-0.130592 -0.0837464 0.572678 
0.141726 -0.0493003 0.340743 
-9.46825e-18 -1.23003e-17 1 

-0.205077 0.136087 0.0101124 
-0.0693591 0.060146 0.0197483 
-9.69254e-18 5.77518e-18 1 

-0.731021 0.749117 -2.39733 
-0.0315528 0.59674 63.1743 
-5.21458e-19 -9.63563e-20 1 

-0.79627 -0.522467 -0.174071 
-0.0129121 0.157897 -0.754377 
-9.32131e-18 -5.08435e-18 1 

-0.0698847 -0.0993272 -1.27283 
0.00837451 -0.0860998 -0.241516 
2.03597e-18 -6.64236e-18 1 

-0.739506 2.7216 0.0598714 
-0.908523 1.23622 0.437092 
7.15132e-18 -7.50889e-18 1 

-0.243276 -0.247118 -0.325441 
-0.0495002 -0.231498 0.468936 
2.35973e-18 -7.66611e-19 1 

-0.0700404 0.0602473 -0.514601 
0.0039023 0.0396365 -0.1575 
2.42888e-17 1.00267e-17 1 

-0.801424 -0.381447 0.238951 
0.721893 0.651819 -0.92992 
-1.87026e-18 4.58515e-18 1 

-0.819555 -2.17648 4.55675 
0.225514 2.06834 -7.15781 
6.65485e-18 -1.12895e-18 1 

-0.0808971 -0.118329 0.208038 
0.063602 -0.11124 0.334429 
-1.84534e-18 -2.87054e-18 1 

-0.638593 0.339949 1.07761 
-0.989271 0.478519 0.727672 
2.0287e-17 1.87077e-17 1 

-0.362822 0.543017 -0.794941 
-0.11367 0.177215 0.856771 
4.17779e-18 1.36475e-18 1 

-0.35045 0.2495 0.201586 
-0.182229 0.249482 -0.259738 
3.46763e-18 3.10723e-18 1 

0.040221 0.106657 0.176208 
0.232129 -0.220668 -0.114342 
-1.89072e-18 6.11248e-18 1 

-0.263908 -0.0352129 6.72577 
-0.0684444 0.0663988 0.287448 
4.9199e-19 3.71172e-18 1 

-0.291465 -0.202971 -0.399745 
0.0196838 0.0584675 -0.634084 
-5.96869e-18 3.62385e-18 1 

-0.178661 -0.113691 -0.0519354 
-0.0710929 0.0684755 -0.293192 
1.61761e-18 3.07071e-18 1 

-0.706351 -0.742666 -0.61104 
0.28437 0.441748 0.80394 
-8.92521e-18 -8.31684e-18 1 

-0.157486 0.0597914 -0.844555 
-0.0588323 -0.0139828 -1.48768 
-1.57557e-18 1.20889e-17 1 

-0.126958 0.0315854 -0.0260301 
-0.0214121 -0.0497533 -0.0997996 
-3.63965e-18 -3.10062e-18 1 

-0.132184 -0.0134677 0.0544582 
-0.0640424 0.00155552 -0.0107831 
4.47058e-18 -1.43059e-19 1 

-0.647887 -0.671442 -1.24253 
0.588237 0.413598 1.41482 
3.78944e-19 -8.0573e-18 1 

-0.0901696 0.0547245 0.00881207 
-0.0879304 -0.0763948 0.0377025 
0 -5.96099e-18 1 

-4.64845 -0.107142 -6.79949 
0.434382 0.497577 -1.1557 
-9.57192e-19 8.9976e-18 1 

-1.20779 0.141473 0.946534 
0.309675 0.523446 -1.04962 
9.0193e-19 -2.76058e-19 1 

-0.061518 -0.0650392 0.0422566 
-0.147859 -0.0453486 -0.0914965 
1.41186e-18 -2.42034e-18 1 

0.11692 0.778224 -0.38553 
0.229561 -0.332461 -0.368333 
-1.96196e-18 5.9156e-18 1 

-0.135792 -0.0639764 0.116772 
-0.0486916 0.0252187 -0.00119397 
-1.76639e-17 -1.36401e-19 1 

-0.178369 0.157728 0.0093993 
-0.0789557 -0.100248 -0.0840403 
2.16753e-18 -4.13122e-18 1 

-0.185534 -0.0380527 2.7718 
-0.000835966 -0.0320135 2.69573 
1.20576e-17 1.1503e-17 1 

0.423003 -1.38926 -4.46955 
0.803492 0.0212873 -1.83382 
6.77248e-18 4.3739e-18 1 

-1.05261 1.1322 -1.8735 
-0.686027 0.843759 1.45622 
1.06207e-17 4.57094e-18 1 

-0.111508 0.368337 -0.776764 
0.0138954 0.000712906 0.236322 
3.16244e-18 3.2347e-17 1 

-0.0552925 0.00314572 -0.101211 
-0.0285199 -0.162029 -0.0497198 
1.59593e-18 -1.05023e-17 1 

-0.0756565 -0.0524376 -0.329472 
-0.0860952 -0.0538646 0.0362473 
-2.13529e-17 -4.29205e-18 1 

-1.57083 3.12933 -17.3525 
0.119669 0.584085 -0.229807 
-1.02919e-18 -1.9375e-18 1 

-0.241055 -0.163121 1.66727 
0.526362 0.10447 -0.825124 
-4.40203e-18 2.24861e-17 1 

-0.13942 -0.0432692 -0.442503 
-0.0181195 -0.0476577 -0.0586521 
7.39353e-18 -1.73811e-17 1 

-2.13718 0.284326 -11.5092 
0.0918278 0.390103 -1.20896 
-1.36725e-17 6.21684e-18 1 

-0.129493 0.098625 -0.139228 
-0.0560496 0.0504088 -0.111096 
3.87101e-18 -7.01083e-18 1 

-0.241808 0.0821787 0.392186 
-0.0433309 0.0239987 -0.134868 
-1.9618e-17 -6.09886e-19 1 

-1.38082 -0.214779 -2.71679 
-0.60902 0.356831 -0.057161 
-2.36362e-18 -1.44343e-19 1 

-0.0361086 -0.445593 0.202526 
0.446257 0.15261 -0.604622 
1.25934e-17 8.72764e-18 1 

-0.224403 0.0274823 3.84766 
-0.0231046 -0.0169958 -5.28633 
6.39522e-18 -8.08807e-18 1 

-0.387263 0.0592308 0.589861 
-0.301701 -0.254295 -0.00736845 
-1.58635e-18 1.29792e-17 1 

-1.49982 0.49911 -0.762267 
-0.384208 0.779413 0.911313 
-2.29192e-17 8.20565e-18 1 

-0.131468 0.0665703 0.0918122 
-0.0631476 -0.0344962 -0.0422601 
7.45493e-19 1.20573e-17 1 

-0.752127 1.24596 -2.17384 
-0.186575 0.741151 1.63093 
-2.29422e-18 -4.10905e-18 1 

-1.78505 -1.46748 -4.35415 
1.24695 1.36639 3.40138 
6.76479e-18 -4.2482e-18 1 

-0.124867 0.0362167 -0.869815 
0.0472903 0.00842499 -0.218822 
2.68123e-18 -1.53997e-17 1 

-0.108191 0.0987812 0.208412 
-0.0575786 -0.0428534 -0.0339004 
-1.09532e-17 -6.08782e-18 1 

-2.99976 1.51539 -10.5745 
0.0432656 0.968664 -8.52739 
-4.65849e-18 -9.06516e-18 1 

-0.210414 0.0234303 0.0523649 
0.107935 0.0217935 -0.227524 
-8.67466e-18 -3.17116e-18 1 

-1.51115 -0.167047 -0.443389 
-0.0496018 0.394336 1.39729 
8.41496e-18 2.45692e-19 1 

-0.0813689 -0.86625 -1.13229 
0.489776 0.397292 0.180737 
-6.15055e-18 -1.64015e-17 1 

-0.560836 -1.0035 0.499315 
0.710596 0.578143 0.859875 
7.48686e-18 -4.87516e-18 1 

-0.038596 -0.405696 1.16975 
0.54518 0.0901354 -0.783731 
1.98166e-18 2.39566e-17 1 

-0.0884289 -0.018429 -0.131882 
0.0415878 -0.0121765 -0.057772 
-1.80079e-17 -2.17897e-18 1 

-0.0280809 0.485805 1.78021 
0.354732 -0.000833487 -0.208365 
5.99005e-18 3.7937e-18 1 

-0.184379 -0.317205 0.124313 
0.335605 0.0656616 0.204701 
-7.46414e-18 -2.48433e-17 1 

-0.360743 0.340415 -0.704705 
-0.318616 0.128289 -0.37192 
5.01864e-19 3.68034e-18 1 

-0.962992 -9.06249 -17.8886 
0.0318329 -0.368465 -0.259879 
-4.38084e-18 9.06525e-17 1 

-0.122859 0.199664 -0.1978 
-0.112512 0.00710586 1.12828 
-4.46844e-18 -1.51138e-18 1 

-2.00826 -2.08632 1.60111 
0.555672 0.941776 0.0302244 
-3.83517e-18 -2.2869e-17 1 

-0.167144 0.0512595 2.24774 
-0.00196507 -0.104074 -0.540294 
-5.49493e-18 -2.34916e-18 1 

-0.186801 -0.172129 -0.0579526 
-0.0609407 -0.0621672 0.234202 
6.50296e-18 -1.05222e-17 1 

-0.367625 0.650919 -0.0883429 
-0.564204 0.181187 0.52406 
1.94003e-18 0 1 

-1.20682 0.107013 -12.088 
0.306724 0.368296 9.54161 
8.15963e-19 2.76238e-18 1 

-0.142149 -0.084275 0.421031 
-0.0491775 0.000642862 0.0601163 
-7.01277e-18 -1.28651e-18 1 

-0.105052 0.147334 -0.150197 
-0.0995616 0.0175239 -0.131293 
-3.09264e-18 2.12541e-18 1 

-3.87981 -4.10689 1.58955 
0.0985787 0.418217 -0.268408 
1.35337e-17 -8.90855e-18 1 

-0.22103 0.0250126 -0.286199 
0.0428013 -0.00363712 -0.572532 
2.21215e-18 -1.29875e-17 1 

-0.813305 -0.874367 0.411517 
0.945744 0.656256 -0.150646 
1.208e-18 -8.66507e-18 1 

-1.01807 0.67693 -1.10924 
0.145699 0.264664 0.325694 
-1.97205e-17 -1.47264e-17 1 

-0.339308 -0.0208225 -0.85366 
-0.277878 0.159212 -0.605642 
6.01453e-19 -5.67621e-18 1 

-0.17574 -0.0561658 2.08096 
-0.0347484 0.0696869 1.08866 
2.949e-18 6.42861e-18 1 

-0.233863 -1.02878 -12.8693 
0.899917 0.844689 -1.63215 
-1.18831e-17 8.77524e-19 1 

-0.142854 0.0054994 0.661698 
-0.0635195 -0.039068 2.39867 
6.66435e-18 1.76298e-17 1 

-0.228641 0.233389 0.166706 
-0.125138 0.191212 -0.220285 
3.72296e-18 4.29948e-19 1 

-0.389184 -0.0181354 1.10505 
0.142596 0.0360402 -0.112734 
1.29079e-17 -1.50923e-17 1 

-0.225555 0.3018 0.0605306 
-0.37903 -0.0419745 -0.118392 
4.00475e-18 2.885e-18 1 

-0.398213 0.487356 0.0734856 
-0.418736 0.128504 0.130511 
-1.39e-17 -3.7563e-17 1 

-0.155155 -0.0694848 0.211879 
0.0207771 0.00294186 -0.0083649 
1.08269e-17 1.60148e-17 1 

-0.189916 0.0747832 0.0923703 
0.110054 -0.116243 -0.0601284 
-4.12808e-18 2.24149e-18 1 

-0.481462 -0.00453199 -0.197469 
0.136414 0.0735827 4.01394 
1.67275e-17 -7.40637e-19 1 

-0.232124 -0.13223 -9.10986 
0.00547828 0.620989 21.129 
5.61021e-19 -1.391e-17 1 

-0.089385 0.0729882 3.18381 
-0.103442 0.028329 -2.67855 
-8.56726e-18 5.60339e-18 1 

-0.0783161 0.0555482 -0.00106228 
-0.0268073 -0.15356 -0.00257562 
6.10128e-18 2.57694e-18 1 

-3.58834 0.41039 5.06949 
-0.612992 0.730571 -0.740005 
1.9307e-17 6.46647e-19 1 

-0.394483 0.758981 2.1499 
-0.217498 0.409246 -0.295819 
-1.19009e-17 7.74846e-18 1 

-0.117727 0.0372883 -0.810932 
-0.0311371 -0.0238147 -0.183503 
-4.98874e-18 1.44834e-18 1 

-0.528305 -0.354338 0.076239 
0.0874903 0.183778 -0.302518 
-1.31127e-18 6.55633e-19 1 

-0.354356 0.394157 0.636367 
-0.0971635 0.258037 0.251489 
-2.8147e-17 -6.15123e-18 1 

-1.50213 -0.806024 -0.97505 
-0.0401369 0.828651 -0.386012 
5.05341e-18 -1.31097e-17 1 

0.11101 -0.604532 0.373205 
0.6769 0.260491 -0.127769 
-4.15047e-18 1.94499e-18 1 

-0.878481 0.412555 1.05003 
-0.132137 0.221266 -0.00874946 
-4.38396e-18 -1.71081e-17 1 

-0.164463 0.814966 -0.878304 
-0.444666 0.276975 0.551834 
9.95013e-18 -1.25507e-17 1 

-0.117418 -0.0274975 -0.100334 
0.0103296 -0.00220169 -0.0261378 
9.69423e-18 1.48428e-17 1 

-0.471893 -0.771449 2.19339 
0.320724 0.235773 0.325861 
-1.34095e-17 4.95616e-18 1 

-0.46443 0.0772494 2.15358 
-0.0769507 0.240701 -1.65008 
9.4157e-18 -1.55489e-18 1 

-0.14179 -0.00407849 0.0839457 
-0.0632848 -0.120117 0.517664 
-5.7416e-18 2.3537e-18 1 

-0.220334 0.0647841 0.139807 
-0.143105 0.131076 -0.234655 
6.90188e-18 8.18814e-18 1 

-0.348878 0.0751736 -0.468723 
0.0861696 0.134126 -0.68022 
-9.80156e-18 -3.55307e-18 1 

0.647819 -1.08712 -0.579002 
1.12182 0.928012 -0.213275 
-9.52045e-20 5.26798e-18 1 

-0.195327 0.113973 -0.59556 
0.0871805 0.0408211 0.637677 
4.2335e-19 4.68942e-18 1 

-1.28045 0.631108 -6.78276 
-0.0605799 0.781489 1.74076 
1.49748e-17 -6.62946e-18 1 

-0.181837 -0.314064 0.0846142 
0.338308 0.166163 -0.396263 
1.82586e-17 3.41357e-18 1 

-0.46033 0.398995 2.91081 
0.247081 0.0632909 1.36136 
-3.02437e-18 -1.07013e-18 1 

-0.28328 0.174147 0.274686 
-0.136387 -0.126165 -0.203886 
2.09125e-17 -3.1644e-18 1 

-0.163409 -0.108811 0.330017 
-0.109139 0.112211 -1.26864 
1.46026e-17 7.18497e-18 1 

-0.182728 0.242053 0.353415 
-0.201694 0.0464655 -0.489155 
-2.5657e-18 1.45475e-17 1 

-1.35555 2.45303 -3.87261 
0.389333 0.24 -1.09276 
-6.97737e-19 -6.25426e-18 1 

-0.281387 0.0274072 -2.83336 
0.218323 0.15445 -3.21986 
-3.4419e-18 5.3376e-18 1 

-0.392958 -0.0435451 -0.0222511 
0.0331473 0.00440124 0.308969 
1.56121e-17 7.83766e-18 1 

-0.0859838 -0.0254213 0.235222 
0.0424783 -0.0522415 -0.206416 
7.57661e-18 3.65839e-18 1 

-0.0774945 0.715266 -1.20827 
-0.746368 0.316044 -1.06679 
7.93039e-19 6.88244e-18 1 

-0.0611127 -0.029032 -0.0557297 
0.0111655 -0.0388713 0.0541854 
3.10821e-18 7.28669e-18 1 

-0.223109 -0.275421 -0.481515 
0.510017 0.299115 -0.513067 
-6.67372e-18 -1.91079e-17 1 

-0.112953 -0.0828135 -0.091532 
0.101362 -0.000391965 0.387475 
-1.90438e-18 9.52188e-19 1 

-0.0742065 -0.00641798 0.400351 
-0.00839038 0.0088674 0.435849 
1.16063e-18 1.32241e-17 1 

0.252728 -0.956308 -0.936832 
1.02492 0.524284 0.281534 
-3.90625e-18 3.87397e-19 1 

-0.320979 0.0012144 0.818887 
0.512295 0.0296977 0.510869 
-9.94883e-18 1.38178e-17 1 

-0.11747 0.0674126 -0.035674 
-0.0900716 -0.0949742 -0.597999 
2.5488e-17 8.92653e-18 1 

-0.162062 0.168933 0.726695 
0.0580247 0.0673516 0.884498 
7.40717e-18 2.16905e-18 1 

-0.126804 0.0223576 -0.630156 
-0.177489 0.0537119 -0.147829 
8.84633e-19 -7.92781e-18 1 

-0.0994349 -0.0672287 3.63754 
0.0712506 0.00665015 1.51168 
-1.31628e-18 5.5346e-18 1 

-0.259576 -0.0604971 0.0666899 
0.114121 0.0505813 0.346783 
-6.8029e-19 6.64884e-18 1 

-0.176347 0.00130471 -0.229829 
-0.0217522 -0.0102614 -0.185278 
-4.24914e-18 -6.02431e-20 1 

-0.131405 -0.00046926 0.938173 
-0.0591158 -0.022374 1.63797 
7.70545e-19 -8.73284e-18 1 

-0.117994 0.107185 -0.269015 
-0.0511481 -0.00823453 1.07477 
-5.17374e-18 1.33236e-18 1 

-0.240553 -0.184915 -0.133469 
0.160096 0.135723 1.26481 
-6.8154e-18 6.91351e-18 1 

-0.407185 -0.578388 2.5022 
0.0689883 0.201804 0.390353 
8.41163e-18 4.0732e-18 1 

-0.194959 0.0698521 -0.93501 
-0.0372228 0.0972629 2.98609 
1.05597e-18 -3.6093e-18 1 

0.00262198 -4.61652 61.5102 
-0.00333749 1.12207 -2.0846 
7.15596e-19 -7.2222e-18 1 

-0.646479 -0.0943305 0.355142 
0.0252705 0.108174 1.12155 
-1.01962e-17 -5.25743e-18 1 

-0.279501 -0.222667 0.859476 
0.0865951 0.17301 -1.85012 
-2.10677e-18 -6.76096e-18 1 

-6.16218 2.68157 -13.4863 
-0.106069 0.629533 -0.584471 
1.75962e-17 1.76471e-17 1 

-0.92397 -0.601789 7.6994 
0.285247 0.534832 -0.378214 
-7.36975e-18 4.57316e-18 1 

-2.71296 -0.833854 -5.80011 
-0.155136 1.10789 -15.4059 
-8.86002e-18 3.6431e-20 1 

-1.19571 -0.691747 5.12191 
-0.44073 0.379597 2.4385 
-1.45587e-18 5.1908e-18 1 

-2.53194 -0.393527 0.596413 
1.18968 0.927444 -0.243918 
1.33888e-17 -1.26841e-17 1 

-0.0266797 0.125585 -0.00292427 
-0.117615 -0.0522646 0.0767704 
0 -5.11803e-18 1 

-0.16017 -0.0174636 0.231572 
0.117765 0.0467221 0.391216 
-2.85777e-18 -2.27052e-18 1 

-0.15079 -0.0142833 -0.0920491 
0.0235291 -0.0610623 0.163434 
-6.78588e-18 2.41461e-18 1 

-0.220357 -0.0197868 -0.279127 
0.0384895 0.0164069 0.264803 
2.82759e-18 3.40005e-19 1 

-0.228044 0.0304893 0.758299 
0.0209177 0.0505849 -0.132065 
1.11578e-17 -2.97624e-18 1 

-0.144292 -0.0788098 -0.903021 
0.110247 0.0424989 0.250537 
-8.02697e-18 2.43824e-18 1 

-0.162719 -0.461618 -0.208735 
0.354003 0.108896 0.687454 
2.87516e-18 -1.01041e-17 1 

-0.649543 0.52993 0.89294 
-0.00253451 0.250795 -0.0369383 
-1.41663e-17 -9.83234e-18 1 

-0.404224 -1.00264 -0.191839 
0.739308 0.487242 0.496502 
5.50239e-18 3.97808e-18 1 

-0.836688 -1.32199 -0.817075 
0.222947 0.604066 -0.711457 
-1.13341e-17 -4.5124e-19 1 

-1.72337 1.30371 -15.592 
-0.397256 1.55238 -10.4526 
5.72643e-18 1.38264e-19 1 

-0.166927 0.00831749 -0.00822447 
-0.0330099 -0.0565516 -0.162009 
3.54061e-17 7.94018e-18 1 

-0.130222 -0.147916 1.09539 
0.0728655 0.0246871 2.40973 
5.01601e-18 -8.28805e-18 1 

-0.224515 -0.0735881 -0.639061 
0.0653356 -0.0632911 0.42791 
2.04391e-17 -2.15263e-18 1 

-1.00061 -0.452824 -0.37955 
0.455547 0.331653 0.809194 
-4.3131e-18 -8.5408e-20 1 

-0.40404 -0.0442105 -0.22542 
-0.0668671 -0.0126367 -0.349938 
-2.78488e-19 4.23302e-18 1 

-0.100306 -0.0509205 -0.0603009 
-0.0348623 -0.0789789 0.100899 
-2.21274e-18 8.44557e-20 1 

-0.128674 0.0156961 -0.483909 
0.0488506 -0.0495209 -1.83846 
5.91985e-18 -4.49192e-18 1 

-0.273106 0.012325 -0.290607 
-0.00168733 0.0293319 -0.00655055 
-4.48109e-18 1.77207e-17 1 

-0.198805 -0.0338107 -0.55198 
0.0181771 -0.0313288 0.213034 
-1.30706e-18 9.04488e-18 1 

-0.200973 0.027404 0.88046 
0.199832 0.0105171 -0.146963 
-7.18126e-18 -1.93521e-18 1 

-1.81265 1.81621 5.83099 
1.05382 -0.415394 2.43751 
4.52699e-18 1.15954e-17 1 

-0.150554 -0.0398844 0.221031 
-0.0639494 -0.00201352 1.15741 
4.32454e-18 4.75928e-18 1 

-0.355859 -0.149633 0.409487 
0.0880668 -0.0326734 0.368078 
1.34141e-17 2.3097e-18 1 

-1.24337 1.63303 -8.5511 
0.941045 -0.0102072 5.9445 
7.96319e-18 1.34452e-17 1 

-0.188424 0.0729863 -0.705765 
-0.0429322 -0.023964 -0.318094 
-1.25552e-17 -1.62171e-17 1 

-4.31652 -3.69835 16.2994 
0.0165541 0.920377 -0.404307 
-5.32627e-18 -6.67772e-18 1 

-1.1699 -1.34423 1.01341 
0.488057 0.781416 0.277667 
-2.43005e-18 -5.90259e-18 1 

-0.945092 0.658116 -1.05854 
-0.116574 0.328762 -1.50856 
-1.86899e-17 -9.39168e-18 1 

-0.389672 0.135155 -1.85708 
-0.139102 0.214577 -0.0193191 
-4.06873e-18 6.66355e-18 1 

0.04763 0.312243 0.177369 
-0.452067 -0.148472 -0.518553 
-7.125e-18 -4.94628e-18 1 

0.0540616 -0.734212 1.43501 
0.613673 0.278562 -1.29777 
-4.75589e-18 -6.68232e-18 1 

-0.255084 0.14533 0.0200892 
-0.262105 0.0204743 0.318165 
3.07836e-19 -4.15578e-18 1 

-0.142994 -0.324231 1.23841 
0.185977 0.0697346 0.631959 
-1.11564e-17 1.70068e-17 1 

-0.0268416 -0.350831 0.253143 
0.407028 0.10229 -0.00907389 
-1.84917e-20 1.30644e-17 1 

-0.0977137 -0.0229973 0.0387871 
0.0241737 -0.0439611 -0.00114096 
-1.11475e-17 2.04289e-18 1 

-0.558393 -1.28476 -0.275191 
0.637682 0.709074 1.02641 
-5.61864e-18 -4.48296e-18 1 

-2.42147 0.254081 -0.908049 
-0.471487 0.650074 -3.44903 
1.13649e-18 -7.57663e-19 1 

-0.154774 0.21865 -0.501317 
0.0210644 0.0214306 -0.0697589 
-1.45667e-17 -2.07438e-19 1 

-0.424628 0.0647305 -1.52413 
0.101334 0.264749 0.721814 
-1.00509e-17 6.67039e-18 1 

-0.0797357 -0.0697053 0.0741868 
0.0468739 -0.015204 0.697375 
-2.15867e-18 -3.7286e-18 1 

-0.121223 -0.0520641 0.118642 
0.0834215 0.04595 -0.369498 
1.4718e-17 3.02231e-18 1 

-1.3267 -0.299327 1.41664 
0.230086 0.212783 0.074968 
-2.10692e-18 -1.50494e-19 1 

-0.316354 0.009389 0.439682 
-0.196133 0.201199 -0.20527 
3.42075e-18 -9.38263e-18 1 

-0.253364 -0.258928 0.202119 
0.158853 0.220514 -1.32482 
-4.07817e-19 -1.72189e-18 1 

-0.232733 -0.0653018 -0.228684 
0.0923941 -0.0505295 0.188029 
-3.64059e-18 -1.20816e-17 1 

-0.112896 -0.00473794 0.476581 
0.145224 -0.0404953 0.563505 
2.47705e-18 -1.45709e-18 1 

-0.172006 0.0831087 0.479143 
0.125165 0.098533 0.644965 
8.07194e-18 -7.32568e-18 1 

-0.528336 -1.06757 -3.27477 
0.276237 0.432622 1.43828 
4.30714e-18 2.29105e-18 1 

-0.574136 0.0575253 -1.95836 
-0.00474444 0.317892 -1.07593 
4.47587e-18 3.75929e-18 1 

-0.169182 0.0413082 0.0329945 
0.00757977 -0.0751931 -0.296512 
1.09296e-17 -6.684e-17 1 

0.501634 -0.853034 0.247304 
0.912695 0.585849 0.560736 
5.72217e-18 6.31362e-19 1 

0.0340034 -1.03254 27.1296 
1.03903 0.75026 9.58134 
-3.07167e-18 -1.71544e-17 1 

-0.123509 -0.5014 -0.197523 
0.22261 0.150659 -0.43295 
1.44125e-18 2.25125e-18 1 

-3.58221 -2.24046 -4.81574 
0.258772 1.05529 1.10405 
-6.71578e-18 2.04113e-17 1 

-0.607367 -0.0617715 -1.81195 
-0.0450016 0.203393 -1.66487 
1.03095e-17 -4.14262e-18 1 

-0.135823 0.0207183 0.0411387 
0.0505507 -0.0646937 -0.175836 
-4.10463e-18 -5.58452e-18 1 

-0.190533 0.565966 2.08337 
-0.0518115 0.132772 0.972887 
-2.78402e-18 1.7951e-18 1 

-0.295689 -0.0752724 0.529542 
-0.362184 0.173782 1.12459 
-7.21496e-18 -9.00543e-18 1 

-0.0896653 -0.0548164 -0.350325 
0.0264921 -0.087203 0.0180391 
1.10439e-17 -2.11967e-17 1 
