# vtk DataFile Version 3.0
Output file generated by Yade's KinematicLocalisationAnalyser
ASCII
DATASET UNSTRUCTURED_GRID

POINTS 13483 float
631.626 30.0666 0.40088
807.989 57.9659 -0.44926
123.402 6.02944 -0.478354
835.064 6.06199 0.52698
515.566 7.70448 -0.262684
324.265 35.1261 -0.450941
160.787 6.91625 0.448319
590.676 10.2218 0.163523
511.995 23.8357 0.142228
755.578 14.1468 -0.38067
216.367 8.82672 -0.11245
264.276 6.31595 -0.261642
680.17 30.1303 -0.143264
658.816 14.2405 0.0705566
140.805 17.176 0.447857
227.631 34.5148 -0.393045
223.778 12.8892 -0.29211
297.329 9.5416 0.386663
351.016 33.3875 0.475212
541.946 8.62002 0.345687
424.144 37.1252 0.0951893
613.472 45.1131 0.296049
833.108 35.9069 -0.495824
730.642 43.6547 -0.509834
473.278 16.2061 0.313536
248.028 44.2152 -0.125338
507.441 28.177 -0.45666
608.628 20.0673 -0.247967
46.4777 15.2259 -0.456256
752.076 38.2172 -0.317511
497.838 4.92819 0.325175
17.1411 23.132 0.304097
821.347 58.7065 0.262134
511.294 2.4805 0.486443
80.4892 44.7326 -0.10003
539.173 30.5777 -0.341082
548.621 16.6195 -0.420066
354.033 22.1234 -0.187376
552.245 25.4973 -0.318865
361.566 33.3072 0.440234
247.926 14.4894 0.362883
448.064 36.4685 0.0737757
706.823 7.12763 0.238602
198.224 6.2035 0.376548
57.3375 6.95315 -0.0640659
70.8454 8.92659 -0.293635
724.139 8.441 0.539591
24.307 11.7563 -0.290389
634.056 46.2183 0.370334
711.025 24.5846 0.310534
177.275 32.5421 0.316391
807.513 43.5922 -0.135194
36.2665 28.1248 0.110782
552.536 2.99381 0.318745
146.137 7.53258 -0.476282
616.286 34.553 0.429818
521.031 26.9322 0.112504
179.752 0.9426 -0.269699
33.7 2.36603 -0.326581
359.645 17.7161 0.254681
645.967 48.1272 -0.141797
477.146 32.5849 -0.209025
412.345 1.03759 0.19504
736.817 9.03073 -0.308364
27.6619 42.9905 0.235719
264 30.481 -0.318714
754.913 9.72639 -0.348246
699.68 47.4413 0.367965
431.444 8.67326 -0.47321
591.419 3.65473 -0.346167
783.099 37.1906 0.406533
134.531 7.61881 0.287217
514.886 25.9564 -0.143751
493.193 15.0379 -0.13782
303.609 16.5761 -0.353686
21.4628 13.61 0.274012
832.438 50.9472 0.330258
343.532 38.9825 -0.292656
707.226 20.8497 0.359438
723.949 12.4654 0.280697
823.885 15.691 -0.363627
480.49 34.6128 0.178049
95.3288 39.0982 -0.281481
717.826 36.952 -0.262084
676.449 40.5136 -0.12446
836.731 45.4443 -0.122306
818.574 1.04736 -0.579357
300.504 29.7844 0.42844
647.398 6.43563 -0.118888
25.2381 5.37027 -0.516832
137.162 38.3597 0.160759
530.641 14.5734 0.227813
814.603 36.1494 0.524632
201.45 28.7923 -0.237884
45.9257 34.5311 0.303769
510.188 1.15794 0.135433
243.095 8.88215 -0.385494
786.142 47.1631 -0.328458
805.094 33.0179 0.222735
373.659 20.6801 -0.253978
168.412 27.1387 0.428494
571.239 39.1193 -0.446585
393.416 15.2326 -0.441257
428.038 30.1108 0.10891
391.399 4.47259 0.416369
569.279 10.6911 -0.104638
839.906 13.5677 0.208209
82.9044 39.6039 -0.393421
346.919 4.79646 -0.185974
583.97 9.66911 -0.354735
373.12 43.46 0.448337
26.6651 24.5431 0.464081
31.5699 5.7234 0.325475
591.903 33.7114 0.493419
524.082 24.2393 0.149363
27.3933 36.7734 0.283604
96.5174 31.4218 0.223439
336.476 15.9002 -0.298662
626.005 18.8301 -0.136937
493.011 38.2074 0.301235
770.543 8.55262 -0.627232
764.296 6.03302 0.233612
401.503 37.1468 -0.100278
664.574 26.7686 -0.117174
246.402 17.2461 0.530458
341.959 3.69164 0.467231
107.106 32.0224 -0.372936
119.801 24.2004 0.243926
566.272 38.9354 0.0652647
317.101 18.7189 0.483784
747.131 40.0877 -0.142773
703.275 46.9911 -0.134935
499.15 20.8609 -0.380629
803.994 10.1516 0.346426
445.396 24.1578 -0.232297
287.728 23.9657 -0.292472
707.34 33.3402 -0.31181
289.234 28.9227 0.412243
602.408 12.4259 -0.205519
344.614 35.7361 0.208082
525.02 11.4099 0.477119
381.198 31.3346 0.0923614
447.512 17.1127 -0.10897
330.511 41.9621 0.39088
197.592 30.0508 -0.128558
812.508 57.6868 0.164728
836.936 15.135 -0.303678
6.14402 12.2367 0.445117
451.895 22.5422 -0.424134
40.0803 22.5667 -0.092111
391.662 31.2718 0.482677
411.282 25.0863 -0.261022
77.6072 11.7891 -0.491198
53.9609 33.3147 0.352677
234.484 13.6262 0.43818
647.935 41.4912 0.441781
604.595 21.118 -0.430412
78.0695 21.0295 -0.497346
732.723 46.5106 0.540186
790.617 3.70826 -0.559169
693.875 40.5253 -0.518931
732.247 2.79523 0.396635
575.436 26.6274 0.398171
614.89 45.8724 -0.456553
534.559 18.0953 -0.401779
832.346 2.52237 0.41108
232.093 24.809 -0.124871
132.795 35.5865 -0.202895
257.021 6.61282 -0.391275
98.0699 4.4425 0.273917
67.0919 10.0822 -0.194233
287.066 35.8975 -0.325585
17.5949 24.8079 -0.373009
581.648 19.1625 0.409796
634.292 41.1929 0.192814
483.068 21.1644 -0.371342
838.399 67.7402 -0.346568
424.449 8.58947 -0.111916
454.612 37.0111 0.362413
561.232 3.43526 -0.187996
23.7239 23.8472 -0.385917
604.765 4.57795 0.472365
571.412 4.26694 -0.295093
214.536 11.2615 0.479683
443.513 16.3786 -0.19849
324.405 6.3357 0.344968
404.841 18.8869 -0.334835
776.055 53.2072 0.110292
200.527 25.3095 0.444949
813.425 8.48265 -0.453921
775.676 49.1691 0.384206
400.059 10.2773 -0.158641
753.115 2.9064 0.501911
633.881 26.0501 -0.422307
774.409 23.3763 -0.366191
449.895 43.5567 -0.298351
519.142 12.5794 0.359249
485.959 44.3865 -0.226539
465.317 8.59005 0.124352
697.647 40.8218 0.284055
695.016 36.3695 0.323981
199.862 39.1596 0.277916
821.631 15.4447 -0.18902
616.538 45.9844 0.2522
11.748 16.779 -0.219228
425.778 25.0675 0.3367
195.061 23.5078 0.394591
96.944 40.0286 0.201172
808.868 27.7416 0.450908
690.784 44.4108 -0.252113
333.202 25.5753 0.347804
558.091 10.2209 0.321613
85.6548 44.6893 -0.171949
258.203 25.7984 -0.471508
584.414 24.7905 0.36302
509.169 18.7855 0.385425
273.931 0.889106 -0.343475
580.682 41.2423 -0.391236
559.614 40.7549 -0.477271
504.387 33.9039 0.415931
522.446 0.829806 -0.54067
739.941 21.4946 -0.37496
187.055 12.1119 0.165528
523.932 36.9248 -0.459473
593.07 40.8835 0.138474
76.2139 0.954129 0.269994
262.438 4.73644 0.173349
836.329 17.1302 0.218313
823.703 17.692 -0.430372
842.115 18.3947 -0.460312
316.767 8.61458 -0.233715
782.393 29.1149 0.40129
425.622 42.2512 -0.333883
469.628 0.811403 -0.399166
682.048 37.7526 -0.553954
28.3924 30.5859 -0.304971
345.621 41.6313 0.561286
263.306 2.8668 0.323671
826.972 57.7273 -0.221172
747.971 52.9876 -0.250123
299.941 10.9059 0.225428
702.053 29.9018 -0.0831541
585.837 2.57828 0.267652
569.112 6.33694 0.426402
100.939 18.4213 -0.50123
316.679 1.03946 -0.225911
358.797 2.27344 -0.359158
14.683 7.59392 -0.408368
4.57603 31.1183 0.259928
169.072 18.463 -0.344836
71.2794 41.7898 0.216943
69.8901 28.9798 -0.334052
443.368 14.533 -0.42723
384.222 35.0067 0.471072
805.338 44.5531 0.121868
20.5415 4.11286 0.269044
73.9036 6.92346 0.135591
656.39 38.3344 0.14791
307.871 0.913918 0.362639
382.088 15.9484 -0.0926357
245.96 4.59101 0.398887
687.141 21.9149 -0.163333
472.85 8.34972 0.416287
784.461 28.1151 -0.42381
663.832 29.7977 -0.321208
705.919 19.2535 0.0652781
440.277 27.299 0.479364
106.618 45.2191 -0.318293
569.773 42.804 0.0753264
772.869 17.7194 0.262029
248.318 30.4045 -0.250296
33.6383 16.8384 0.197058
351.842 13.6908 0.496009
112.395 40.8259 0.478005
279.821 42.2577 -0.194838
445.672 1.60337 -0.303359
819.128 39.2941 0.408907
724.724 0.808996 0.513839
347.486 3.18242 0.526028
313.704 26.7236 0.136405
485.033 41.1795 0.21759
85.4063 8.11882 0.456792
206.499 44.9731 0.377747
808.336 37.1388 -0.384275
519.213 39.5155 -0.0807466
208.906 41.2338 -0.265206
168.099 42.4896 -0.0731891
839.371 41.3674 0.447824
838.318 13.9224 -0.584285
638.406 3.21515 -0.613922
198.784 25.0037 -0.111056
577.505 29.0298 -0.0995132
579.512 28.555 0.272224
429.05 5.67428 -0.136342
505.063 0.926141 -0.292653
802.743 46.9607 0.476465
89.0053 31.3149 0.222225
693.524 18.9373 -0.435527
286.904 15.4703 -0.349592
10.26 2.3305 0.347441
131.265 37.3061 -0.199941
70.3294 23.1086 0.464754
741.547 38.7184 0.353196
825.37 66.3725 0.170301
193.836 28.5262 -0.176432
831.895 15.1578 0.379505
47.3957 36.6279 -0.254911
95.3531 29.7921 0.151352
668.435 12.7671 -0.477054
433.896 17.4542 -0.597872
545.291 16.5714 0.10539
248.877 28.4892 0.185374
654.814 4.44053 -0.402694
841.058 11.891 0.363944
31.3576 31.6236 -0.281811
282.582 7.64118 0.179712
232.076 15.3722 -0.277431
1.08871 35.7034 0.145589
235.52 14.5733 -0.381908
221.299 10.9203 0.125332
223.694 26.1532 0.267673
139.409 28.0194 -0.119568
575.594 15.2459 -0.323293
174.619 14.0846 0.369264
820.747 56.863 0.226278
181.848 3.80669 0.509545
49.7481 37.7342 -0.408457
783.172 59.8388 -0.426115
294.308 31.9671 -0.385251
714.728 24.8638 0.450867
827.29 39.6774 -0.542634
314.792 9.245 -0.10422
772.292 37.7241 -0.325842
344.294 2.58808 -0.378791
436.471 24.4521 0.364322
711.469 15.414 0.455104
110.407 11.7605 -0.425593
506.724 3.94924 -0.47332
786.288 24.2419 0.161037
92.57 7.72659 -0.238218
294.843 14.6528 0.19259
444.324 11.8755 -0.222874
831.969 4.31309 0.538805
417.379 1.9629 -0.521669
184.798 38.9569 -0.306076
775.867 15.2029 -0.379281
134.619 36.6003 0.191864
275.691 31.3415 -0.412171
420.152 21.5721 0.21715
604.903 14.1936 -0.332246
406.044 9.8757 -0.473551
478.981 27.3235 -0.424281
808.031 59.3223 0.370609
50.0066 10.8476 0.113514
313.622 38.2779 -0.276318
398.182 26.3364 -0.379127
430.116 21.1968 0.238643
547.748 44.4806 0.356422
795.569 44.1542 0.258019
700.711 35.7209 0.367001
236.107 34.3613 0.376468
14.6389 31.4598 0.162566
693.326 37.1943 -0.158436
535.04 41.1703 0.417131
240.162 39.494 -0.108101
720.586 32.8318 0.108865
158.021 9.39064 -0.199943
384.395 21.3028 0.280609
486.748 42.3629 0.108122
434.331 19.0609 0.209601
804.532 58.3491 -0.36148
447.201 3.85319 0.505028
52.2669 25.3453 -0.294036
493.404 31.8346 0.322745
456.287 42.1961 0.394448
825.964 52.8973 -0.219241
768.934 38.3507 0.221005
570.204 18.3101 -0.130862
816.236 51.2999 -0.479298
307.417 2.18013 -0.473232
397.255 29.8126 0.532382
30.5791 38.6924 -0.300956
773.873 39.0932 -0.13862
643.286 20.0922 -0.522581
485.963 0.77228 -0.482417
131.906 4.55332 0.273442
447.728 40.9088 0.11749
12.7689 0.908401 -0.313812
832.055 7.5965 0.20764
388.593 39.2174 -0.415616
[...]
POINT_DATA 13483
TENSORS Strain_matrix float
-0.0823953 -0.0157572 -0.138015 
0.0350485 0.0302823 0.517616 
0.00482109 0.00274205 -0.0787396 

-0.0133663 -0.230554 -0.177097 
0.289971 0.0920395 1.4437 
-0.012594 0.00853833 0.0551658 

-0.0208305 -0.0051291 -0.185994 
0.00685621 -0.00384801 0.58448 
0.00716492 0.016333 1.58843 

-0.211173 0.210185 -0.364344 
-0.217057 0.238471 0.171603 
-0.000458791 0.031731 -0.0881128 

-0.113305 -0.0499284 0.00253099 
0.0395209 0.0955961 -0.312394 
-0.0254047 0.0471125 0.327751 

-0.00810698 0.0096881 -0.0583377 
-0.00800293 0.00215205 0.145032 
4.38107e-05 0.000400788 -0.000915577 

-0.0199815 0.000325297 0.193723 
0.00126981 0.00836412 -0.327871 
0.000470874 1.52397e-05 0.140375 

-0.0102282 0.0122033 -0.00630936 
-0.0145774 0.00169956 0.00262077 
-0.00268416 -0.000697889 0.0109524 

-0.0293312 0.0588107 0.0255297 
-0.0841149 -0.0144413 -0.0229052 
0.0197649 -0.0235005 0.217048 

-0.0682509 0.0956048 0.126763 
-0.113309 -0.0202016 0.169925 
0.0514736 -0.00188595 0.180865 

-0.0083466 -0.00092168 0.00961119 
0.00156162 0.00119445 -0.0093149 
8.38198e-05 -0.000544495 0.0106113 

-0.0122311 -0.00530808 0.0114939 
0.000350148 0.00503178 0.00486811 
0.000720059 0.000364345 0.00014231 

-0.113984 -0.0084919 -0.131691 
0.0436924 0.109321 0.111581 
0.0028398 0.00265447 -0.0119674 

-0.0112439 -0.101143 -0.0207018 
0.0990627 -0.00503147 -0.00949329 
-0.00521492 -0.00384539 0.081954 

-0.0264551 -0.0356631 0.212707 
-0.0130963 0.00966798 0.0885924 
-0.000360194 0.00127658 0.0384296 

-0.0163785 0.00324056 0.0045579 
0.00882593 0.00473987 -0.118979 
0.0051059 -0.00401009 0.0786262 

-0.0104551 -0.00489543 -0.00255634 
0.00215748 0.00183394 -0.00959574 
0.000501837 0.00017375 0.0115253 

-0.0211752 -0.0111466 0.00688614 
0.00285605 0.00450582 -0.0120814 
-0.000245732 0.000729359 0.0257579 

-0.0144249 0.00304855 -0.0607749 
0.00996669 0.00348891 -0.0494657 
0.017422 -0.000476023 -0.0932406 

-0.00544248 0.00728524 0.050637 
-0.0121313 0.00737102 0.0926251 
-0.00118966 -0.00398344 0.0598184 

-0.0783112 -0.0331742 -0.248711 
0.0380512 0.027284 0.0763686 
-0.00202115 -0.0593696 0.218477 

-0.0565117 0.0761853 -0.0189159 
-0.0379081 0.0390935 -0.0620791 
0.00539285 0.00240472 0.0297148 

-0.0520464 -0.0295425 0.13399 
0.0982539 0.097673 -2.02227 
0.00373892 -0.00044687 0.173732 

-0.0672656 -0.065694 1.0566 
-0.0319174 0.0129719 -2.32323 
-0.0105679 -0.00516608 -0.418992 

-0.0209925 -0.0272985 0.00663093 
0.0275411 0.00160916 0.0790562 
-0.00147487 -0.00156719 0.00550589 

-0.00740552 0.00278111 0.0362616 
-0.00483492 0.00660735 -0.0110795 
-0.00372121 -0.0103144 0.014804 

-0.0344392 -0.0205435 -0.485873 
0.0105657 -0.00210864 0.331764 
0.00222238 -0.00944462 0.0775677 

0.00778085 0.00672845 0.0936197 
-0.0794874 -0.0193898 0.342873 
0.00279071 0.000114004 0.03575 

-0.0169984 -0.0095438 -0.0235516 
0.0141176 0.0121529 0.176988 
-0.0292101 -0.00779748 -0.233998 

-0.0345667 -0.528086 0.10023 
0.335546 0.256993 0.846245 
4.69819e-05 -0.00471315 0.0536595 

-0.0149281 -0.00218208 0.0168966 
-0.00152126 -0.000848109 0.023371 
0.000643031 0.0016874 0.00150894 

-0.0159733 0.0449861 0.114951 
-0.0553838 0.0131652 0.0603636 
-0.00163373 0.00281518 0.00933333 

0.0718536 -0.198434 -0.524342 
0.0885748 -0.128254 0.179052 
-0.0855488 -0.025684 0.715055 

-0.0232129 0.0316281 -1.0791 
0.00990448 0.00996939 0.164128 
0.00258515 -0.00478306 0.053739 

-0.016237 0.000773215 -0.0308706 
0.00290464 0.00576692 0.0343419 
0.000218156 -0.000121126 0.0117521 

-0.00632658 0.0135877 0.0306372 
-0.0143539 0.00114559 -0.00660894 
7.16283e-05 -0.000131037 0.0146141 

-0.0102912 0.0249629 -0.423448 
0.00978949 -0.00138615 0.331445 
0.000766233 0.000360226 0.114834 

-0.0119719 0.00302428 -0.00633726 
0.00385357 0.00905613 0.00216586 
-0.000663863 0.00108264 0.00433142 

0.0211559 0.0139628 0.151528 
-0.0321129 -0.040449 -0.0236301 
-0.000654774 -0.000789648 -0.0176908 

-0.00919329 -0.0118356 0.0593222 
0.00608741 0.00437662 0.199268 
0.000231843 0.000156017 0.0368965 

-0.049415 -0.0294004 0.143067 
-0.028552 -0.00506047 0.100973 
-0.0591067 0.0747102 0.815823 

-0.0107191 -0.0434935 -0.0315585 
0.0302582 -0.00271282 -0.01988 
0.067062 0.0105153 0.554944 

-0.121003 0.0874274 0.0472569 
-0.0510988 0.0332202 0.0382659 
-0.0354605 0.0576294 0.267801 

-0.00844868 0.00153962 0.0131761 
0.00113227 -0.00101868 -0.00163064 
-0.000462177 -0.000482128 0.00354524 

-0.0181303 0.00306046 0.0187627 
-0.00344266 0.00727738 0.0397484 
0.00126035 0.000528832 0.0208008 

-0.0127751 0.00669393 0.041713 
-0.0018364 0.0048952 0.0149494 
0.000274497 8.62227e-05 0.00538147 

-0.046102 -0.0517711 -0.0375109 
0.00755905 0.00468523 0.137471 
-0.000524461 0.00308105 0.089862 

-0.0089836 -0.00276906 0.00253992 
-0.000229093 -0.00488676 -0.00255779 
0.00210658 0.000429597 0.0209168 

0.00226163 -0.0855512 0.0176356 
0.0937902 -0.00240931 -0.024618 
-0.00869513 0.000550027 0.0277769 

-0.336873 -0.17884 -0.642841 
0.0570285 0.235915 -1.64768 
0.0106765 0.033238 0.0452046 

-0.0153039 -0.0219507 -0.185417 
0.0150098 -0.00916475 -0.00352532 
0.00241756 -0.000185056 0.0503505 

-0.00323656 -0.0818833 0.0816411 
0.102633 0.0136063 0.00969975 
-0.00330715 -0.00446858 -0.00244836 

-0.00947059 0.0172929 -0.022197 
-0.0179051 0.00921194 -0.0277588 
-0.00114712 -0.00127231 0.0102488 

-0.0192907 0.00886392 0.0229328 
-0.00158985 0.0109299 -0.0200112 
-0.000303825 -0.00147165 -0.00246605 

-0.0189756 -0.0103751 -0.319028 
0.000934282 0.00913217 -0.0809665 
-0.000441996 -0.000443381 -0.0654491 

-0.0227035 -0.0367053 0.203906 
0.0236769 0.0187709 -0.890434 
0.000952186 -0.000187533 0.137792 

-0.0157893 0.0262894 0.0452828 
-0.0760083 0.01133 0.145532 
-0.00215756 -0.00084143 0.00202519 

-0.0112587 0.0155744 0.00978091 
0.00071493 0.00852566 0.00221673 
0.00010311 0.00619818 0.0120781 

-0.00262656 0.00795922 -0.00979665 
-0.0030346 -0.00223253 -0.0149843 
0.000387226 0.000219949 0.00541847 

-0.00527565 0.00767188 -0.0101788 
0.000905636 0.00601849 -0.0134906 
0.000328396 -0.000278176 0.00204967 

0.0115292 0.0967186 -0.134477 
0.114348 0.178796 -0.146343 
-0.00952668 -0.0447887 -0.035223 

-0.0359164 -0.00536554 0.0308052 
0.0720584 0.00143531 -0.0167884 
0.00310844 -0.00689707 0.18405 

-0.0117476 -0.00548053 0.00062055 
-0.00179662 0.0035943 -0.00980738 
3.07763e-05 -0.000620288 0.015841 

-0.0489627 -0.0902999 1.09187 
0.0939274 0.0559465 0.839482 
-0.000302337 0.00221298 0.203992 

-0.0316791 -0.00143643 -0.0236199 
-0.0106023 0.0198204 0.0324506 
0.00289188 -0.00965285 0.0244553 

-0.00959846 0.0205548 0.0273039 
-0.0240375 -0.00377123 0.175581 
-0.00129537 -0.00194155 0.0377907 

-0.146289 0.0966093 -0.214046 
-0.0189416 0.108601 -0.00608048 
0.00571926 0.0585473 0.423578 

-0.00916613 -0.387136 -0.162604 
0.464234 0.129119 0.149996 
-0.038701 0.128532 0.412583 

-0.0179573 0.00882617 -0.121564 
-0.0106417 0.00769853 0.307129 
0.000810606 0.000739945 0.0503427 

-0.0390909 0.054658 -0.0541443 
-0.0737833 0.0172681 -0.202501 
0.00630865 0.0019416 0.046615 

-0.192593 -0.0769286 -0.462577 
0.023234 0.138065 -0.076361 
0.021637 0.0866397 -0.34057 

-0.0158388 -0.00435619 0.045766 
-0.00640306 0.00243822 -0.00272173 
0.00876881 0.00573159 0.125654 

-0.0261317 -0.0673306 0.169938 
0.103951 0.0270587 0.0599551 
0.00102993 -0.00114769 0.0405277 

-0.016153 0.00785557 -0.145386 
-0.0251487 0.00481261 0.0792886 
-0.00179254 -0.00023378 0.0265599 

-0.0101796 -0.0084945 -0.0704661 
0.0129243 -0.00230106 0.0072275 
0.000962516 -0.000885632 0.0406187 

-0.0194295 0.00606946 -0.00868564 
-0.0113799 0.000474074 0.0148947 
-0.00118784 0.000985668 0.0088398 

-1.18771 1.93745 4.80472 
-0.696162 1.51898 1.60387 
0.0505036 0.00281792 0.284786 

-0.0141995 0.0150824 -0.0565939 
-0.00920391 -0.00105762 0.0294393 
0.0024573 -0.00161086 0.0458931 

-0.0155786 0.0476635 0.564896 
-0.147072 -0.0424771 -1.34089 
0.00525393 0.000622923 -0.0608411 

-0.0512055 -0.0321557 0.0463834 
0.0393342 0.0130407 -0.0998479 
-0.000990622 0.014431 0.0501961 

0.0206016 0.00150195 0.0193896 
0.0543947 0.00584047 -0.0798207 
-0.00589111 -0.00760878 -0.0178943 

-0.0185344 -0.0143498 0.240776 
0.0149162 0.00228435 0.154658 
0.00112408 -0.00801534 0.0491635 

-0.00802012 -0.0144343 -0.0243458 
0.0201473 -0.00104822 0.0209674 
0.000702447 0.00124724 0.0239949 

0.0267119 -0.0359815 0.0161602 
-0.0307642 -0.0285977 0.213071 
-0.0449931 0.0298479 0.701571 

-0.0256883 -0.0438571 0.060068 
0.0658793 0.0148352 -0.129424 
0.0402119 -0.0359638 0.411251 

-0.00272126 -0.0561549 -0.0379711 
0.0517408 0.0306299 0.0789554 
-0.032636 -0.00672764 -0.0218941 

-0.0501356 -0.0257764 0.542899 
0.00150825 0.0379085 -0.074323 
-0.000709532 -0.00819236 -0.0821878 

-0.0112434 0.00832911 -0.0124748 
-0.00720799 0.00425782 -0.0262271 
-5.88636e-05 -0.00125346 0.0155526 

-0.0331645 0.00817071 0.000320144 
-0.0304708 0.00747682 0.012451 
0.00238812 0.00108516 0.0280365 

-0.0179921 0.00765199 1.73522 
0.000292002 0.00342775 0.486594 
0.00389872 0.0273874 1.97341 

-0.02257 -0.0773575 0.00163301 
0.00171305 0.00106742 0.0507038 
0.00288023 -0.00508862 0.00213066 

-0.0177643 -0.00832919 -0.0126893 
0.0125871 0.00337749 0.00910169 
0.000442807 -0.000483368 0.0205846 

-0.518788 0.792327 -0.157033 
-0.354132 0.447866 2.79457 
-0.00357662 0.00725679 0.135108 

0.00419259 0.00941166 -0.122043 
-0.0465201 0.0067049 -0.0692694 
-0.0158559 -0.00490406 0.0982824 

-0.0138043 2.32131e-05 -0.0196796 
0.0153097 0.00454618 0.016644 
-0.000392029 0.000585372 0.0404471 

-0.00831787 0.115235 -0.275329 
0.00429652 -0.0125012 0.0367863 
0.00747749 -0.154977 -0.000426419 

-0.0229878 0.00182358 0.0158538 
0.00557875 0.00464785 -0.0503543 
-0.00146514 0.000193119 0.0259932 

0.0283649 0.0297081 -0.190913 
-0.0845259 -0.0312341 -0.071405 
0.0281637 -0.0433042 0.413002 

-0.447872 0.017816 -0.648622 
0.150035 0.29183 0.503621 
0.00587463 0.00105856 0.00458084 

3.26344e-05 0.00458182 -0.0443281 
0.00716026 0.00206816 0.109466 
0.00100318 -0.00119774 0.00601812 

-0.00236473 -0.00113659 0.530176 
-0.0126011 0.00941564 -0.0532235 
-0.00540316 0.00298696 0.00344459 

-0.016758 -0.0212166 0.655724 
0.0319676 0.00582802 0.600725 
0.000760038 0.00106173 -0.198769 

-0.00932207 -0.0380468 -0.106989 
0.0216061 0.0122481 0.0382298 
0.00604153 0.0328443 0.056902 

-0.0155418 -0.0264596 -0.00812765 
0.0290789 0.000936172 -0.00773595 
0.00149609 0.000328087 0.00982052 

-0.015931 -0.00516443 0.0511799 
0.0112269 -0.00482793 0.0841646 
0.00894628 -0.00967353 -0.0152077 

-0.0202916 0.0466809 -0.0485987 
-0.051991 -0.0117856 -0.025367 
-0.00201384 -0.00157132 0.0708524 

-0.354974 -0.033886 0.036495 
0.0755785 0.189966 -0.247561 
-0.02826 -0.0275372 0.0561708 

-0.0143044 -0.00981096 -0.0113875 
0.00387031 0.00128405 -0.110226 
0.0255302 -0.0136181 -0.282424 

-0.0145334 0.00522372 0.0108579 
0.000261082 0.00441336 -0.00518142 
0.000622043 0.000666873 0.0186201 

-0.0282827 -0.0221122 -0.126052 
0.0229614 0.00770778 -0.0720633 
-0.000635967 0.00176851 0.0466157 

-0.0132002 -0.00210252 0.0730931 
0.0175354 -0.00155474 0.358789 
0.000131888 -0.000979824 0.207242 

-0.016234 0.00195092 -0.00152993 
-0.00925962 -0.00286288 -0.202047 
0.000731917 -0.000951831 -0.0236856 

-0.00849895 0.0151048 -0.00782903 
-0.00563474 0.00319872 0.00367485 
0.000841099 2.79257e-05 0.0112357 

-0.138269 0.0459251 -2.10996 
0.0269361 0.0440438 -0.531674 
-0.00710695 -0.0988549 0.251237 

0.00495219 -0.0216011 0.0897921 
-0.0485145 -0.0407435 0.147521 
1.10816e-05 -0.000476253 0.0332196 

-0.00921436 0.00165073 0.0101242 
0.00107664 -0.00210168 0.0485545 
0.000673251 -0.000296877 0.0221137 

-0.024821 -0.0677738 -0.0620613 
0.043461 0.00434477 0.014554 
0.0126363 -0.00659711 -0.00257094 

-0.00834008 -0.000475748 -0.00986591 
0.00508323 0.0104534 7.5407e-05 
-8.96669e-05 -0.000507479 0.00572935 

-0.0395043 0.0636927 -0.108028 
-0.0506209 0.0560556 0.0683009 
-0.00178756 0.00535369 -0.0231073 

-0.0066275 -0.00671872 -0.0264666 
-0.00115377 0.00345897 0.0171399 
0.00105237 -0.000466165 -0.00596711 

-0.379011 -0.543981 1.42541 
0.513325 0.461045 -2.52714 
-0.0564253 -0.0171295 0.411481 

0.00463045 0.0516646 -0.124304 
-0.0544335 -0.119553 -0.130218 
0.0223217 -0.0069807 0.154944 

-0.0064682 0.0163509 0.00478615 
-0.0224454 -0.00110469 -0.0108401 
0.000116124 -0.000321624 0.0181081 

-0.0252753 0.10802 0.143172 
0.126039 0.0418376 0.329559 
0.00181162 -0.000141973 0.0370248 

-0.0147223 0.00470415 0.444532 
-0.00244245 0.0110811 -1.57966 
-3.99438e-05 -0.00535844 0.218105 

-0.00606302 0.00327024 -0.068958 
0.000159947 0.00385236 0.0232374 
-0.000494502 -0.000659232 0.0049305 

-0.0191412 0.0290152 -0.0279572 
-0.0416345 0.00726637 0.0694684 
-0.021877 -0.0279995 0.282087 

-0.0820027 0.159943 0.137835 
0.0742723 0.120825 0.173863 
0.00170123 -0.00732257 -0.01426 

-0.0129741 -0.01974 0.0335888 
0.0302944 -0.00476368 0.00385425 
0.00350281 0.00230257 0.0518283 

-0.0135105 0.00061053 0.886397 
-0.00163696 0.00627275 -0.0733936 
-8.41192e-05 0.000230456 0.057752 

-0.334878 -0.47028 -0.844293 
0.300644 0.366324 0.214147 
0.00169744 0.104536 0.783378 

-0.189175 0.0823528 0.148772 
-0.378581 0.16753 0.269058 
-0.0455551 -0.108382 0.419896 

-0.0214777 0.057732 -0.465471 
-0.0467436 0.0416281 0.154906 
-0.0161151 0.0247913 0.576745 

-0.056246 0.110559 -0.016676 
-0.121285 0.0139001 -0.090515 
-0.0115372 0.0107744 0.0791326 

-0.0395713 0.0203616 0.156494 
0.0166452 0.0367359 0.00597249 
-0.00168959 0.000582623 -0.00209241 

-0.0284172 -0.00214802 0.305208 
0.0238162 0.0237373 0.204521 
0.0013483 0.00139581 0.0220398 

-0.128734 -0.249095 -0.52028 
0.17966 0.152057 0.417318 
0.00590849 -0.000839616 0.0478053 

-0.02637 -0.0298156 0.243562 
0.0379211 0.0107935 -0.12137 
-0.000627179 0.000234612 0.0511751 

-0.0201534 0.0509117 0.0754256 
-0.00298448 0.0157956 -0.0523148 
0.00241692 -0.00198744 -0.0260212 

-0.00954526 0.00607097 0.00301041 
-0.00398854 -0.0022419 0.0107653 
0.000159025 0.00482538 0.0307075 

-0.00909587 0.00400603 0.00456006 
-0.00751395 0.00477828 0.00646947 
6.27202e-05 -0.00101685 0.0178406 

-0.0175576 0.0122197 -0.0606704 
0.00541 -0.00241072 0.0192151 
0.0378433 0.0683803 0.421858 

-0.00367631 0.0328814 -0.0147668 
0.0189503 0.0313145 -0.067572 
0.000968041 -0.0020522 0.0315492 

-0.00875413 0.00622373 -0.138472 
-0.0084337 -1.22787e-05 -0.0751485 
-0.000223629 0.000223402 0.0649727 

-0.0127723 0.0233758 0.10741 
-0.00896669 -0.0146542 -0.123191 
0.0055575 -0.020649 0.130209 

-0.00958745 -0.254257 -0.091937 
0.160837 0.00262068 -0.31166 
0.00373752 0.00167996 0.0860729 

-0.207983 0.111138 0.0828838 
-0.094197 0.0911366 0.00198566 
0.0382274 0.0229025 0.167164 

-0.0169428 -0.00906751 -0.124115 
0.0053841 0.00489701 -0.0115078 
-0.0014522 -6.85911e-05 0.00545208 

-0.000757886 -0.064313 -0.118496 
0.0316457 0.0232798 -0.171031 
0.00038638 -0.000194255 0.086396 

-0.00477249 0.0019277 -0.08884 
0.0346144 0.0232877 -0.101862 
0.000983377 0.000226826 0.0031981 

-0.0268356 -0.0156133 -0.333398 
0.000983061 0.00546245 0.432593 
0.00143231 0.00159648 0.0165684 

-0.00768382 -0.00429237 -0.0192501 
-0.00462804 0.00620953 0.000193818 
0.000684896 -0.000898722 -0.000835979 

-0.0506787 0.00263046 -0.0836042 
-0.0108679 0.0120062 0.386433 
-0.00117719 0.00426889 0.191763 

-0.0117214 -0.0118805 -0.141699 
0.0046211 0.00386566 -0.379301 
0.00790909 -0.0116975 -0.119913 

-0.0156231 0.00453551 -0.501304 
-0.000324794 0.00968728 0.357525 
0.00559243 0.00344742 0.00785809 

-0.0749714 -0.146416 -0.0516233 
0.169002 0.0619355 0.00791755 
-0.00773383 0.000485563 0.0688566 

-0.008289 -0.0322404 0.269429 
0.0336847 0.0273244 -0.0255182 
-0.00148853 -0.00353014 0.108826 

-0.021283 -0.00110812 0.427857 
0.00605056 0.0149563 0.1434 
-0.000384059 0.00054752 -0.0155503 

-0.162727 -0.222768 -2.71944 
0.0156614 0.348638 8.42126 
0.0069266 0.00275106 0.834515 

-0.0869919 0.113796 -0.0805099 
-0.352833 0.104635 -0.943341 
0.0421301 0.0298317 0.107752 

-0.0951833 0.00100902 2.98433 
0.0145169 0.0394044 -4.35664 
-0.00618941 -0.00979608 -0.0860979 

-0.0399033 -0.0992419 -0.0844063 
0.0919197 0.016233 0.534615 
-0.00608405 -0.0431953 0.136569 

0.0110201 -0.0983824 -0.192698 
0.0400561 0.00765033 -0.128316 
-0.00248419 -0.000329278 -0.0221055 

-0.0404191 -0.0625819 0.556269 
-0.0111295 0.0772776 0.201056 
0.00427474 -0.0327113 1.25786 

-0.00295643 0.00818617 -0.0602033 
0.00973045 0.0130041 0.0805552 
0.000469238 -8.91068e-05 0.00776198 

-0.424098 0.28879 -0.174819 
-0.169371 0.320589 -0.415212 
0.0823551 -0.00891233 0.169314 

-0.00673147 -0.028096 -0.00773408 
0.021814 0.0102832 0.00145292 
0.00136235 -0.000420589 -0.00307719 

0.0023368 -0.00716079 0.0618448 
-0.0268758 0.00344085 -0.0296045 
1.89696e-05 0.0047488 0.0115753 

-0.0183321 0.000521971 0.0102355 
0.007177 0.00859032 -0.0238332 
0.00614665 0.00116133 0.0720164 

-0.0856202 -0.0214949 0.187729 
0.0184398 0.0747767 -0.422839 
0.00061941 -0.00565341 0.0814751 

-0.00931723 0.00235194 -0.00739958 
0.00158392 0.003097 0.0182965 
0.000146003 0.000373373 0.00165939 

-0.0329433 0.0209266 -0.0743474 
0.02188 0.0220979 0.0342241 
0.00504884 0.0185007 0.0197171 

-0.0335566 -7.98743e-06 -0.0590232 
-0.0400689 0.0449596 -0.0394343 
-0.00162384 -0.00172549 0.0295592 

-0.104025 0.124657 -1.53817 
-0.0449722 0.0841051 -0.722951 
-0.00312686 0.00777353 -0.0222687 

0.00588148 -0.0828403 0.0153616 
0.088848 -0.00602674 0.0103101 
0.014421 -0.0121503 0.0813149 

-0.0172236 0.00723854 0.00667802 
0.00137544 0.0104824 0.0262822 
-0.000896873 -0.000779367 0.0482034 

0.16127 -0.54336 -0.0148659 
0.490713 0.171969 0.0984296 
0.0856834 -0.0142736 0.77043 

-0.019157 -0.00156936 -0.0315893 
0.0240218 0.00962622 0.016529 
-0.00629325 -0.0420599 0.112187 

-0.0392776 0.0125415 0.150473 
-0.00623593 0.00863565 -0.0695211 
0.0124824 -0.00625286 0.992863 

-0.0375934 7.55047e-05 -0.00379363 
0.00478454 0.00341464 0.000589446 
0.00403157 0.00093233 0.0430069 

-0.00699257 -0.0308128 -0.221204 
0.0254561 -0.00893771 -0.111202 
-0.00069428 0.00107428 0.0158529 

-0.0974308 0.0238284 -0.0155679 
-0.057222 0.0248564 0.00387896 
0.00879042 -0.0330103 0.102587 

-0.00591196 -0.0161354 0.0197214 
-0.00317853 -0.0193703 0.0018257 
-0.00142044 -0.00166714 0.0553776 

-0.0106083 -0.00204783 0.0061133 
-0.000559635 0.00398413 0.0204781 
7.95486e-05 -0.000100535 0.0358478 

-0.0076244 -0.0181256 -0.0449727 
0.02656 0.0310519 0.0929585 
0.00083173 0.00126905 0.00890017 

-0.0128148 -0.00273452 0.00677099 
-0.00294952 -0.000179981 0.0141431 
-0.000666989 0.00137822 0.0238533 

-0.0130613 0.000894074 0.151364 
0.00695218 0.0109975 -0.0317788 
-0.0125218 -0.0233201 -0.075254 

-0.0831522 -0.226967 -0.150465 
0.27859 0.122752 -0.0779596 
0.00431751 -0.00554243 0.048088 

-0.0574504 0.0106737 0.383268 
-0.117282 0.0240864 0.702468 
-0.00393341 -0.00299476 0.0629931 

-0.170891 0.0633459 0.343678 
-0.00744163 0.0350561 -0.00493809 
-0.0454197 0.0676747 0.0482007 

-0.0407543 -0.137213 -0.787916 
0.151309 0.037185 0.314706 
0.0364872 -0.0251694 0.0850524 

-0.0284581 -0.0254048 0.0346333 
0.0464693 0.0121499 -0.016949 
0.00365561 -0.0218074 0.119373 

-0.288913 -0.0431126 -0.0756749 
-0.115353 0.319429 -0.339618 
-0.00805827 0.0327745 0.127302 

-0.118389 0.119162 0.0248424 
0.0528867 0.105407 1.30033 
0.0018363 0.00118149 0.050273 

-0.264109 0.143785 -0.219666 
-0.144945 0.207059 -0.666555 
-0.0558581 -0.0936843 -0.14142 

-0.0196969 -0.0393124 0.00219484 
0.0390252 0.0079136 -0.0105119 
0.000339115 -0.000249334 0.0118575 

-0.0143883 0.0100379 0.0477718 
-0.0321325 -0.0111684 -0.000833909 
-0.00179463 -0.012047 0.164454 

-0.0407949 -0.0430951 -0.0678878 
0.0799252 -0.0156712 0.0447367 
-0.0010994 0.00387259 0.0587685 

-0.0119636 -0.00637948 -0.0239093 
-0.000836835 -0.00308127 0.00645423 
0.00763895 0.00949424 -0.014479 

-0.232571 -0.0966141 -0.0333219 
0.138424 0.164327 0.541441 
0.0294311 0.0461284 0.380117 
