# vtk DataFile Version 3.0
Output file generated by Yade's KinematicLocalisationAnalyser
ASCII
DATASET UNSTRUCTURED_GRID

POINTS 13483 float
643.869 29.0359 0.429859
838.897 48.6529 -0.467587
125.722 6.12188 -0.458213
875.079 5.87239 0.452031
524.327 7.58684 -0.302446
329.603 34.8499 -0.44916
163.915 6.84755 0.439562
601.428 9.93587 0.160856
520.852 23.654 0.137973
777.042 12.5674 -0.371291
220.222 8.80542 -0.112734
268.837 6.29505 -0.265435
696.209 28.492 -0.148014
672.992 14.173 0.0736862
143.538 16.9384 0.439695
231.662 34.3134 -0.397854
227.701 12.8611 -0.286716
302.274 9.53823 0.383078
356.679 33.3286 0.457616
551.609 8.56652 0.347342
431.043 36.5568 0.107277
625.256 43.8274 0.26185
871.566 33.692 -0.526087
750.711 42.0183 -0.473936
481.448 16.1231 0.304428
252.207 43.9758 -0.124923
516.157 27.8245 -0.450433
619.336 19.2608 -0.246712
47.3107 15.2399 -0.456032
774.285 33.2539 -0.332626
506.42 4.91853 0.321502
17.3642 22.8825 0.300091
852.246 47.9433 0.276985
520.03 2.46808 0.491139
81.8932 44.2779 0.0996142
548.511 30.3934 -0.338544
558.294 16.4937 -0.4227
359.712 22.0194 -0.184539
561.342 25.391 -0.317909
367.3 33.1681 0.42924
252.163 14.6068 0.287961
455.403 35.7001 0.0742484
725.051 7.13657 0.168572
201.858 6.20402 0.371853
58.1849 6.90898 -0.0657196
71.8418 8.85701 -0.288571
743.177 8.48442 0.506774
24.6892 11.704 -0.287897
647.272 44.9065 0.369197
727.283 23.3852 0.349334
180.595 32.2369 0.30561
835.522 34.964 -0.144594
36.8136 27.9413 0.111977
562.388 2.94946 0.32178
148.919 7.47389 -0.476887
628.251 33.1351 0.415768
530.197 26.3836 0.119142
183.132 0.935904 -0.263073
34.2818 2.3689 -0.322822
365.362 17.651 0.259175
659.437 45.6181 -0.132127
485.517 33.1114 -0.187984
418.878 1.03385 0.193316
756.075 7.98127 -0.328751
27.9886 42.6621 0.235655
268.429 30.3613 -0.324079
776.991 7.95122 -0.204253
718.165 43.949 0.369479
438.239 8.5625 -0.486071
602.398 3.47308 -0.349324
809.775 30.9254 0.405211
137.097 7.56332 0.281547
523.928 25.6159 -0.144065
501.709 14.9323 -0.129341
308.78 16.519 -0.347522
21.7916 13.5197 0.263104
863.053 40.8331 0.334342
349.019 38.8864 -0.286228
725.362 19.9506 0.398085
743.144 12.4279 0.265651
862.382 13.7147 -0.40024
489.124 34.3101 0.176062
96.9331 38.5148 -0.27768
737.088 34.7597 -0.285668
691.943 38.4917 -0.1279
877.66 41.1121 -0.13912
854.923 0.983679 -0.5471
305.46 29.3228 0.430833
661.182 6.33643 -0.112621
25.6438 5.27195 -0.458414
139.37 37.7532 0.157636
540.066 14.4144 0.215613
848.686 31.1114 0.481995
205.22 28.5517 -0.232344
46.6231 34.2428 0.291075
518.891 1.16058 0.132614
247.33 8.90421 -0.366298
814.133 40.437 -0.258384
836.44 27.1687 0.227394
379.458 20.4893 -0.253457
171.725 26.8276 0.433178
581.083 38.4182 -0.43652
399.679 15.1401 -0.471793
435.085 29.6844 0.106084
397.661 4.47328 0.404853
579.444 10.8967 -0.0861978
879.352 11.6362 0.207888
84.3819 39.2247 -0.396643
352.609 4.76767 -0.186938
594.652 9.38857 -0.346334
379.026 43.1596 0.444804
27.1468 24.3022 0.461218
32.0864 5.72093 0.326706
602.52 32.6057 0.436594
533.364 23.8377 0.145564
27.8079 36.5158 0.266666
97.9551 30.8025 0.222901
342.056 15.8462 -0.301042
638.967 18.4543 -0.133164
501.696 37.781 0.299014
795.718 7.30482 0.408683
787.387 6.21789 0.218717
407.755 36.7628 -0.0968202
679.417 25.2844 0.102434
251.071 16.9215 0.48895
347.564 3.67084 0.470837
108.923 31.4691 -0.352579
122.494 24.0252 0.270493
576.046 38.4079 0.0676113
322.407 18.6229 0.480821
769.175 35.872 -0.102056
722.385 43.5759 -0.128635
507.992 20.4153 -0.35975
838.661 9.0787 0.339962
452.554 23.5933 -0.233061
292.202 23.9878 -0.296882
726.02 30.9403 0.27042
293.998 28.5471 0.394484
613.291 12.0469 -0.189831
350.137 35.6426 0.204747
534.359 11.2881 0.472375
387.143 31.0204 0.0924987
454.872 16.7106 -0.108585
335.84 41.6985 0.387583
201.228 29.6668 -0.123862
843.429 47.3569 0.149039
875.663 13.2522 -0.2966
6.23221 12.1701 0.447855
459.06 22.2533 -0.432374
40.6354 22.4031 -0.0917397
397.71 30.8048 0.476699
417.9 24.9618 -0.251699
79.002 11.8084 -0.465365
54.7951 32.9105 0.328757
238.542 13.5637 0.435419
660.738 39.034 0.426382
615.426 20.5169 -0.433618
79.1664 21.0063 -0.484872
753.44 45.4042 0.418137
824.428 3.1198 -0.590419
710.504 39.4978 -0.467185
750.983 2.3854 0.358245
585.329 25.9404 0.406342
626.805 44.4865 -0.434619
544.028 17.8265 -0.407234
872.437 2.66918 0.360761
236.239 24.5745 -0.119686
134.894 35.0878 -0.203893
261.435 6.54518 -0.378383
100.005 4.16297 0.269652
68.044 9.99153 -0.194771
291.948 35.5772 -0.310414
17.6825 24.5878 -0.36823
592.363 19.0259 0.401733
647.129 39.8053 0.191034
491.312 20.9048 -0.3696
871.214 52.7037 0.087961
431.157 8.50283 -0.0999639
462.203 35.9192 0.367659
571.253 3.43392 -0.185025
24.1191 23.5996 -0.3821
616.205 4.66884 -0.328731
581.649 4.36343 -0.28383
218.363 11.2289 0.477971
450.81 16.1012 -0.194761
329.848 6.32126 0.328622
411.294 18.7774 -0.334649
801.001 43.4885 0.121581
203.821 25.2918 0.4278
849.056 8.45117 0.296805
800.18 39.5302 0.3785
406.486 10.1674 -0.174112
774.33 2.27294 0.446035
647.292 25.2897 -0.42616
802.93 18.6521 -0.367828
457.452 42.6679 -0.283214
528.374 12.3074 0.351254
494.561 43.9007 -0.222208
473.176 8.64456 0.122525
714.125 38.8181 -0.311799
711.693 35.1027 0.336025
203.471 38.8668 0.254926
860.013 13.5604 -0.215444
628.514 44.64 0.24138
11.9427 16.7164 -0.212897
432.485 25.1724 0.337543
198.489 23.1507 0.402159
98.5623 39.4273 0.200958
844.581 23.5741 0.399134
707.164 43.3191 -0.246357
338.716 25.4298 0.350129
567.95 10.1101 0.32115
87.1837 44.2316 -0.167504
262.582 25.6969 -0.468405
594.392 24.0495 0.367073
518.139 18.5395 0.377723
278.652 0.888905 -0.343052
590.615 40.2539 -0.363907
569.285 40.4185 -0.467682
513.201 33.3192 0.410303
531.608 0.780649 -0.499954
760.878 19.7661 -0.366553
190.534 12.0284 0.164233
533.032 36.3412 -0.447533
603.748 39.7317 0.131368
77.3221 0.954126 0.269939
266.965 4.70974 0.17189
875.266 15.2257 0.199467
862.141 15.7092 -0.394531
882.777 15.4161 -0.680152
322.089 8.54069 -0.231938
810.147 24.0304 0.37132
432.711 41.5657 -0.325962
477.471 0.818631 -0.396632
698.206 35.7206 -0.530911
28.8679 30.3217 -0.304269
351.132 41.5603 0.52751
267.841 2.84609 0.315012
857.313 46.5316 -0.185431
772.735 48.2633 -0.250225
304.998 10.8788 0.211148
719.204 29.016 -0.0849403
596.409 2.63489 0.275817
579.349 6.43351 0.412913
102.457 18.1672 -0.497161
322.028 1.03214 -0.226015
364.612 2.26945 -0.361165
14.886 7.57558 -0.388882
4.65363 30.8892 0.25076
172.335 18.3255 -0.352699
72.4868 41.4364 0.217351
71.0795 28.6935 -0.330904
450.598 14.2801 -0.418147
390.238 34.6021 0.47341
833.375 36.1457 0.1154
20.8096 4.04409 0.268173
74.9869 6.8866 0.133458
671.498 37.4194 0.159223
313.176 0.929844 0.323105
387.82 15.81 -0.113901
250.174 4.56008 0.40062
704.208 20.9917 -0.181626
480.805 8.32263 0.409106
812.787 21.6068 -0.367249
678.646 28.5735 -0.292306
723.297 17.7825 0.101939
447.276 26.7603 0.505122
108.357 44.5583 -0.316849
579.708 42.1626 0.0732812
800.888 13.4557 0.244244
252.56 30.1677 -0.247727
34.0925 16.8194 0.177771
357.531 13.6335 0.495439
114.42 40.2426 0.476665
284.463 42.0265 -0.188811
452.865 1.09165 -0.217475
859.156 34.418 0.412204
743.374 0.810936 0.497546
353.178 3.15083 0.521243
319.04 26.3965 0.135449
493.27 40.7938 0.206827
86.7042 8.01237 0.446181
210.205 44.5367 0.377992
842.077 30.2309 -0.354904
528.208 38.7752 -0.0796355
212.619 41.089 -0.254811
170.979 42.0378 0.150569
880.197 36.9421 0.41182
877.938 12.5722 -0.595191
651.515 3.47499 -0.449583
202.278 24.3864 -0.0992346
587.46 28.2294 -0.101232
589.465 27.7345 0.26576
435.846 5.58425 -0.136509
513.744 0.931296 -0.280847
831.07 38.1326 -0.498783
90.3999 30.9023 0.216628
710.511 17.8945 -0.424478
291.777 15.4934 -0.339739
10.4408 2.33092 0.343285
133.393 36.7031 -0.199959
71.4202 22.8992 0.469762
761.778 36.7117 0.328667
859.372 55.289 0.164641
197.448 28.2186 -0.180446
870.58 12.6872 0.30285
48.0683 36.2743 -0.253672
96.755 29.1857 0.150901
683.075 12.5644 -0.465244
440.678 17.5041 -0.554344
554.939 16.4758 0.102726
253.164 28.2233 -0.178061
668.761 4.50118 -0.399896
881.915 10.5552 0.35513
31.8557 31.3601 -0.280693
287.413 7.65793 0.18806
236.114 15.2803 -0.27801
1.0975 35.4753 0.14604
239.584 14.5244 -0.371952
225.195 10.896 0.125005
227.828 26.105 0.272768
141.671 27.7885 -0.128786
586.381 14.9518 -0.330776
177.947 13.9988 0.36571
851.236 46.2527 -0.214109
185.269 3.7867 0.507461
50.5181 37.3011 -0.392295
808.185 49.3218 -0.426086
299.231 31.5017 -0.379759
733.922 23.2944 0.416938
866.751 36.7005 -0.49311
320.106 9.15351 -0.107773
798.054 31.1837 -0.335756
349.937 2.6061 -0.367659
443.425 23.7203 0.365059
729.934 15.7469 0.436872
112.423 11.9138 -0.404667
515.435 3.97246 -0.464835
817.049 19.3747 0.161498
94.0549 7.60662 -0.19599
299.781 14.6348 0.1952
451.542 11.5819 -0.206504
870.867 3.64373 0.624844
423.979 1.94668 -0.516193
188.236 38.6458 -0.293193
803.975 10.8065 -0.343244
136.723 36.1171 0.185122
280.135 31.2282 -0.404736
426.904 21.5759 0.213996
615.84 13.8671 -0.319344
412.57 9.78863 -0.468922
487.353 27.4475 -0.40336
839.308 49.8331 0.409205
50.7511 10.8522 0.108714
318.818 37.8591 -0.269685
404.526 26.2361 -0.369556
436.786 20.9465 0.237329
557.297 44.3545 0.356421
823.603 36.7353 0.232306
717.979 34.6174 0.387401
240.238 34.108 0.37709
14.9006 31.1042 0.161891
709.938 35.9447 -0.142999
544.153 40.894 0.389974
244.293 39.232 -0.103527
740.436 31.2983 0.109692
161.11 9.28032 -0.200232
390.567 20.8749 0.306056
495.114 41.8048 0.100301
441.317 19.0279 0.205704
835.53 50.1344 -0.32854
454.4 3.40769 0.431646
53.0122 24.955 -0.295238
502.057 31.4106 0.319408
463.857 41.0302 0.387042
855.915 41.6223 -0.231841
794.887 29.7123 0.229268
579.737 18.2781 -0.148701
846.015 40.4001 -0.20007
312.283 2.02617 -0.433513
403.504 29.1461 0.474447
31.03 38.4198 -0.298323
800.947 32.5421 0.147251
656.433 19.5568 -0.469217
494.432 0.768101 -0.494847
134.432 4.49872 0.278754
455.205 40.0939 0.107664
12.9561 0.910071 -0.314317
870.649 5.73977 0.255422
394.763 38.6943 -0.410594
657.119 7.69036 0.432114
[...]
POINT_DATA 13483
TENSORS Strain_matrix float
-0.140098 0.00151446 -0.744607 
-0.0676869 0.103176 0.197069 
0.0121742 0.00112322 0.157707 

-0.15182 -0.362754 -0.116587 
0.318157 0.201273 2.99534 
-0.0174546 -0.0246046 -0.998357 

-0.0301649 0.00398672 0.780268 
-0.00637824 0.0179607 0.0591214 
0.00473065 0.000947855 0.0351713 

-0.41775 0.0158295 -0.322175 
0.00771427 0.180387 -0.342884 
-0.00573457 0.00431245 0.0751817 

-0.0301658 -0.00163179 0.0211839 
-0.00697802 0.00570741 0.00478 
0.00494596 -0.00758321 0.0520884 

-0.0131285 -0.0117316 0.222465 
0.00855584 0.00430381 0.211605 
-0.0296233 -0.00170404 0.411396 

-0.0275248 0.00536485 -0.249626 
-0.00640766 0.00620763 -0.0256684 
0.000744467 0.000118561 0.0565341 

-0.0145602 -0.00207865 -0.0103615 
0.0243257 -0.015211 0.0306605 
-0.00145771 -0.001717 0.0438566 

-0.0332757 -0.188582 0.371388 
0.0815311 0.060015 0.353802 
0.0019491 0.00107562 -0.0180901 

-0.0191555 0.109893 -0.242774 
-0.157801 -0.00750982 -0.456321 
-0.0152072 0.00545924 0.107329 

-0.01696 -0.00904631 0.0112686 
0.00992169 0.00483185 -0.0107314 
-0.000107651 -0.000425249 0.013458 

-0.0170892 -0.000607768 0.0216922 
-0.000430493 0.00437055 0.0161278 
0.00103911 -0.000118891 0.00045598 

-0.0223277 0.0143941 -0.0734613 
0.02135 0.0281965 0.00536355 
-0.000102436 0.0021777 0.00125888 

-0.0226364 -0.000657792 0.00626371 
0.0191667 0.011952 -0.0679941 
-0.00438856 -0.00378246 0.0151814 

-0.0177051 0.000371628 0.111116 
3.91117e-05 0.00660879 0.248778 
-0.000142569 -0.0002689 0.00360511 

-0.0252216 0.00723629 0.0951428 
-0.00589815 0.00889403 -0.158621 
-0.000841728 -0.0041628 -0.101845 

-0.0258421 -0.0222459 0.0134667 
0.0104902 -0.00190019 -0.019692 
-0.000216067 -0.000208492 0.0380259 

-0.0272029 -0.0103717 -0.0139165 
0.00207996 0.0103785 -0.0146458 
0.033249 -0.00142881 0.270911 

-0.0326476 0.0567254 -0.379692 
-0.0190491 0.000976758 -0.406787 
-0.00692101 -0.00195832 0.116652 

-0.0247156 -0.00863808 0.0980199 
-0.0138095 0.00355837 0.14611 
-0.00346959 -0.00856163 -0.00471166 

-0.0240864 -0.0300329 0.0682055 
0.0210426 0.00275159 0.0566145 
-0.0363161 0.0353747 0.210339 

-0.0464595 0.0860193 -0.22503 
-0.109776 0.0184384 0.0296408 
0.0268131 -0.00651405 0.101272 

-0.604622 -0.0831755 1.4964 
-0.16775 0.325734 -4.66871 
0.00557611 -0.0136409 1.23569 

-0.0254925 -0.00554157 0.138371 
0.00571886 0.00921972 -0.403291 
0.0077502 0.0104103 0.188519 

-0.0192809 0.007401 -0.02781 
0.00596488 0.010368 0.00479427 
0.00786149 0.00273225 0.0665304 

-0.0275827 0.0119188 0.132422 
-0.0023831 0.0289191 -0.0792318 
-0.0109689 -0.00481821 0.0886899 

-0.0397536 -0.0388107 0.611295 
0.018362 0.0300276 1.30041 
-0.0105116 0.00461803 0.0209688 

-0.00463357 -0.0275033 -0.011683 
-0.0125151 -0.0156167 0.0166058 
0.00209016 -0.00145722 0.00817812 

-0.0284708 0.00102658 -0.0179709 
0.00512674 0.0210535 -0.296326 
-0.00260557 0.00138696 0.116389 

-0.0692664 0.0565055 0.196297 
0.0325875 -0.000610525 -0.0127352 
0.00830937 -0.00204685 0.0314301 

-0.0282786 0.00183206 -0.0454916 
-0.0482509 -0.00727692 -0.038856 
-0.00209969 0.00153414 0.0370424 

-0.0255222 0.0413742 -0.0118162 
0.0227063 0.0124917 0.0465847 
0.000517769 -0.000745462 0.00359397 

0.114513 -0.446942 -0.520499 
0.202067 0.00185894 1.16785 
0.00945827 0.0122782 0.191839 

-0.0307486 -0.000152455 0.0370641 
0.00220186 0.016407 -0.311099 
-7.30975e-05 -0.00303956 0.147399 

0.0150234 -0.0263315 0.0413181 
-0.00973515 -0.0317693 0.0346764 
-0.00768374 0.00981233 -0.0150347 

-0.027185 -0.0691224 0.170737 
0.0470608 0.0264076 0.843768 
0.00374666 -0.00720779 0.0348602 

-0.01485 -0.000878775 -0.0711133 
-0.00534268 0.00568193 0.0786793 
-0.000336229 -0.000332972 0.060639 

-0.154175 0.165619 0.00554588 
-0.0562408 0.0978292 -0.128833 
-0.00699192 0.00527858 -0.0210113 

-0.0472628 -0.0885249 -0.0724822 
0.00154775 0.0779017 0.0650404 
0.00201601 0.00101883 0.00936939 

-0.0313133 0.0207675 1.45553 
-0.0449536 0.0209754 -0.186118 
-0.00123563 0.0123345 -0.0114878 

-0.0295512 -0.0280586 -0.104093 
-0.00867722 0.0199666 0.0441062 
0.000730666 -0.000444607 0.00408622 

-0.0251358 0.00202169 -0.00568626 
-0.00797868 0.0176551 0.0161438 
0.0024819 -0.013209 -0.030344 

-0.0528167 -0.00582659 -0.0335381 
0.0114229 0.0270261 0.0547414 
0.00648783 0.0364637 0.165733 

-0.0152002 0.00234574 0.060415 
-0.00559762 0.0112897 0.022824 
0.00568167 -0.00175338 0.061584 

-0.0285873 -0.00188904 0.022612 
6.35532e-05 0.0140632 0.0474437 
0.00207921 0.00134258 0.0267295 

-0.0245513 -0.00463695 0.0295169 
-0.00625774 0.0100661 -0.0275705 
1.43753e-05 -0.000161992 0.00759299 

-0.0126782 0.00746439 0.0254421 
-0.0235366 -0.00823599 -0.197824 
0.00296642 -0.000274134 0.0655104 

-0.0137234 -0.00898958 -0.0122577 
0.0154508 0.0097337 -0.00357945 
0.00266835 0.000322867 0.00195958 

-0.00573113 -0.00317613 -0.00861386 
0.0129361 0.00122426 -0.0164187 
-0.00085131 -9.12801e-07 0.00488766 

-0.0406584 0.00433806 -0.157514 
0.00127551 0.00393831 -0.0381053 
0.00256926 0.00122337 0.0144949 

-0.0328868 -0.0349018 -0.102548 
0.0546692 0.0304182 -0.0474291 
0.089328 0.0816586 1.04919 

0.00937442 -0.129464 0.115001 
0.264363 0.0481932 0.136639 
-0.0366253 -0.00569182 -0.0756627 

-0.00844146 0.0136132 0.0240088 
-0.0104245 0.00667365 0.0331336 
-0.0181724 -0.00407557 0.0213894 

-0.0161123 0.0184231 0.0105156 
-0.016067 0.00575406 0.0673127 
-0.00165423 0.00132797 0.0293881 

-0.0263736 0.00194362 0.0219223 
-0.00225665 0.0106395 0.0705056 
0.000395593 0.00242861 -0.00287935 

-0.00511203 -0.0346792 -0.636943 
0.015459 -0.00596827 0.887464 
-0.00042098 0.000561085 0.0578477 

-0.00531929 0.0827433 -0.120163 
-0.085721 0.0455722 0.136594 
0.001458 0.00173515 -0.00526153 

-0.0229971 0.047163 0.087044 
0.00477364 0.0203213 -0.0437264 
-0.000324144 0.00951561 0.0543372 

-0.0114861 0.000695663 -0.0239664 
-0.00585231 -0.0040093 0.0099585 
0.000642276 0.000968765 0.018892 

-0.0422201 -0.0570015 -0.312942 
-0.00193826 0.0555941 0.100064 
0.00067342 -0.00406886 0.00545836 

-0.0213359 -0.018876 0.0434802 
-0.0487059 -0.000898782 0.0878506 
-0.000513104 0.00632045 0.033316 

-0.0136175 -0.0240216 0.00450539 
0.0212708 0.00907714 -0.0677748 
0.00780147 -0.00719789 -0.101901 

-0.0197095 -0.0307505 -0.0895042 
-0.00367134 0.0023202 -0.0171555 
0.00291088 0.021726 0.0970836 

-0.0288976 -0.0484145 0.721016 
0.0642064 0.0372644 -0.583679 
-0.0260908 -0.00394489 0.91779 

-0.0626863 -0.00531848 -0.0890215 
-0.0178457 0.0490154 -0.087393 
-0.000170323 -8.49494e-05 0.00944163 

-0.0479971 0.0169218 0.0632559 
-0.0100001 0.0246435 0.169834 
0.000735428 -0.0011533 0.0378138 

0.0136964 0.00228839 0.0338437 
-0.0952852 -0.00382041 0.0270419 
0.00552984 0.00691031 -0.0551935 

-0.0121305 -0.0276898 -0.0474414 
0.0157837 -0.00295003 0.00268593 
-0.000403681 0.0078302 0.0357063 

-0.0195439 -0.00118292 -0.0989266 
-0.00143541 -0.000814175 0.581661 
0.000166382 0.000419889 0.260055 

-0.00441278 -0.0227505 -0.0246239 
0.00307583 -0.00599526 -0.0240232 
0.000720017 -0.000928881 0.0183584 

-0.030987 0.141229 -0.130119 
-0.0126585 0.000163184 0.240831 
0.0203433 0.00383473 0.12452 

-0.0195718 -0.0111505 0.0255922 
0.00326649 0.00660241 -0.0608583 
0.00122453 0.00187068 0.0324155 

0.033727 0.0961369 0.28319 
-0.00732694 0.00941267 0.217471 
-0.00393939 0.000339403 -0.0154551 

-0.0138376 -0.0343925 -0.0444622 
0.0386626 -0.0119195 0.375216 
-0.000206614 -0.00083054 0.00760997 

-0.0161485 0.00149386 -0.0283773 
0.00472335 -0.00245516 -0.0875452 
7.28733e-05 -0.00108213 0.0745412 

-0.0315043 -0.00969811 0.00435933 
0.0122476 0.0068647 -0.015848 
-0.00469388 0.000705137 0.0266922 

-0.563419 0.496475 -0.144088 
0.508844 0.407628 -1.44637 
0.0882203 -0.0194378 0.559349 

-0.0218675 0.0288158 0.143432 
0.0301483 0.0266548 -0.280859 
-0.015088 0.047927 0.262232 

-0.0164051 0.019622 -0.081141 
-0.00921318 0.0238678 0.0983777 
0.00141835 -0.00437924 -0.00635097 

-0.00719745 0.01909 -0.0772154 
-0.0208274 -0.00723322 -0.23538 
-0.00125766 0.000795519 0.0914677 

-0.260762 0.0525178 -0.238355 
-0.313708 0.122712 0.287193 
0.0130273 -0.00490529 0.673065 

-0.0138527 -0.0180703 -0.14585 
0.0131079 0.00415245 -0.0560562 
0.0319293 0.0253724 0.132918 

-0.0163338 -0.0178831 -0.0635139 
0.0330761 -0.0180964 -0.00205076 
-0.0640795 5.0258e-05 0.969785 

-0.0831825 0.033923 0.545539 
0.0449667 0.0493808 0.027609 
-0.00475384 -0.0509791 0.136001 

-0.070449 -0.0913913 0.185007 
-0.00411025 0.0205121 0.0109707 
0.00936968 -0.01294 0.0583725 

0.0405048 0.235179 -0.402553 
-0.19689 0.0433242 -0.43382 
0.0400741 0.0138194 0.296183 

-0.573938 0.762087 1.13123 
-0.0355304 0.56529 0.786589 
-0.0226265 -0.109474 -0.101551 

-0.0359877 -0.0308804 0.00828897 
-0.00696973 -0.00834021 -0.0769283 
0.000831097 -0.00184337 0.03694 

-0.0346441 0.0489131 -0.107755 
-0.0249226 0.0288852 -0.120959 
-0.0298951 0.0596237 0.214824 

-0.0274578 0.00535929 -0.121163 
0.00406365 0.00737231 -0.872543 
0.000131569 0.000282175 0.0422986 

-0.030548 -0.00402348 -0.0169693 
-0.0173337 -0.00172534 0.00299356 
-0.00184183 -0.0198778 0.117794 

-0.0309766 -0.0475953 -0.031756 
-0.00111398 0.0144631 -0.00246277 
-0.00797461 0.0189404 0.0378819 

-0.294589 0.623061 6.19641 
0.248182 0.140437 -2.02072 
0.00228366 -0.00222302 0.209136 

-0.041874 -0.0206403 -0.201001 
0.000135137 0.0135628 -0.123972 
0.00149193 0.0177884 0.0462715 

-0.0200364 0.0150222 -0.0360924 
0.0118898 0.00369579 0.0322077 
-0.000176611 0.00581008 0.0862927 

-0.0287562 -0.000957907 0.00701619 
0.00210757 0.0348201 -0.0675573 
0.000162374 -0.00691415 0.0351717 

-0.0234774 0.0035962 -0.00210686 
-0.000346955 0.00773074 -0.0359875 
-0.000834919 0.000418384 0.0138785 

-0.00507488 0.0183703 -0.0143778 
-0.0378045 -0.00786577 0.00889195 
0.000736907 -0.00276793 0.0297132 

-0.100454 0.57676 -0.681818 
-0.196255 0.279935 -0.1854 
0.0186119 -0.000654352 -0.00323496 

-0.00223904 -0.0270029 -0.0369564 
0.0187074 0.00829985 0.059086 
-0.000145156 0.000670556 -0.00666812 

-0.0162662 -0.0111591 0.178978 
0.0220073 0.0199983 0.927913 
-0.000264858 7.06286e-05 0.0992256 

-0.0246705 -0.0236177 0.823714 
0.0434772 0.0131177 1.14767 
-0.00097701 0.000928003 0.038931 

-0.0194143 0.00414216 -0.231583 
-0.0120264 0.00662284 -0.286766 
-0.000492685 0.000660454 0.0211063 

-0.0202108 0.0178451 0.0774737 
0.0282657 0.00535189 0.0370322 
-0.0541415 0.00712345 0.0965143 

-0.0147439 -0.00705721 0.0541355 
-0.00761829 0.0115971 0.095963 
0.000423324 -0.000234066 0.00101052 

-0.0136418 0.00065433 -0.00131257 
-0.000796986 0.00797884 -0.00463136 
0.000647107 0.000153123 6.38558e-05 

-0.196793 0.201754 0.120632 
-0.260573 0.0920405 0.0190284 
0.0509091 0.0270747 0.0913462 

-0.0303122 0.0163006 0.215127 
-0.0440584 0.00872661 -0.0428353 
0.00947497 -0.0245802 -0.0062479 

-0.0208589 0.0303864 0.0613286 
0.00965161 -0.0116658 -0.043928 
0.000352884 0.00180477 0.0356513 

-0.0323325 0.00632555 -0.35141 
-0.0194226 0.0126802 -0.0550323 
-0.0017798 0.00180271 0.0105648 

-0.0325707 0.0514573 -0.0590742 
-0.00951173 0.0167388 0.517284 
0.0154608 0.025449 -0.240643 

-0.00942699 -0.00329691 0.107285 
-0.00953205 0.00426913 -0.0175269 
0.000869413 -0.000653069 0.0367353 

-0.0204067 0.00800578 -0.0232881 
-0.00928016 -0.00734954 0.0244286 
0.000790944 -0.00011615 0.0406257 

-0.0586458 0.00538205 -0.117812 
-0.0463101 0.0432347 -0.193603 
-0.0218406 0.00708682 0.199173 

0.0332013 -0.0260392 0.138848 
-0.0437766 -0.0365704 0.137016 
0.000871123 0.00095631 0.00548216 

-0.0125652 0.00795962 -0.0146006 
0.000481218 -0.00458566 0.0386062 
-0.000522348 0.000806947 0.0390699 

-0.0494738 -0.0884105 -0.0105465 
0.0220638 0.0562728 -0.0102232 
-0.0927613 0.0971702 0.506492 

-0.0216647 0.0100415 0.0086323 
-0.0057094 0.0206429 0.0168581 
-0.00244885 -0.00204538 0.0164413 

-0.00911927 0.0445787 -0.0617688 
-0.0366341 0.0134247 -0.0159318 
0.00275276 -0.00235066 0.0299046 

-0.033705 -0.0282391 0.133924 
0.0531957 0.0123042 0.189209 
0.000823249 -0.000156576 0.00197977 

-0.018767 -0.0325282 0.0397017 
0.0532429 -0.0172266 0.0404955 
-0.00251225 0.00231086 0.0504065 

-0.029459 0.0490832 -0.0427448 
-0.0397107 0.0170006 -0.155464 
-0.0184235 -0.00804912 0.0232343 

-0.013577 0.00736684 0.0106619 
-0.0094394 0.00305243 -0.017808 
0.00152883 0.00205097 0.048844 

0.0269157 0.051342 0.0373283 
-0.0143506 -0.0390897 0.00723822 
-0.000943822 0.000326388 -0.00317393 

-0.0279616 0.00433731 1.04074 
-0.00693959 0.0163365 1.20903 
-0.000435414 0.000177006 0.133274 

-0.0174309 0.0132883 -0.00703697 
-0.00274091 0.00273416 0.258599 
-0.000525624 -0.000815827 0.0768294 

-0.00213756 0.00384421 -0.0476845 
-0.0326979 0.00560578 0.0339165 
0.0162832 0.00032727 0.00365357 

-0.0374147 0.0745507 0.0592526 
-0.0384462 0.0788915 0.139108 
-0.0133275 -0.00044057 0.0348343 

-0.0194789 -0.03666 0.152478 
0.0552281 0.00773107 0.0166625 
0.0216317 0.00948284 0.135239 

-0.0220726 0.00952758 0.208893 
0.00321172 0.0144455 1.91458 
-0.00339623 -0.00497898 -0.152013 

-0.0120677 -0.0410405 -0.0651224 
0.0752591 0.00138709 0.0674422 
-0.0096261 -0.00885121 0.0543686 

-0.0274544 -0.00216182 0.0232137 
0.00853749 -0.00525854 0.0464288 
-0.0202244 -0.0340776 0.1435 

-0.0553807 0.0773277 0.173874 
0.00672755 0.0730103 -0.267932 
-0.00940629 -0.0131075 -0.0342372 

-0.144374 0.159399 0.171655 
0.0694956 -0.00491312 -0.163803 
-0.0283997 0.0350095 0.279633 

-0.048409 0.06447 0.304294 
-0.032795 0.0451537 0.356668 
-0.0021318 -0.00630296 0.0153612 

-0.0160688 0.0215251 -0.159769 
0.0051039 0.027443 -0.034712 
5.75164e-05 0.000611146 -0.00394636 

-0.00983948 -0.0429416 -0.0496121 
0.0927002 -0.0106478 -0.0147635 
-0.00949198 -0.0247368 0.177195 

-0.0163713 -0.00170143 0.0038931 
0.00279462 0.0183046 -0.147002 
0.016104 -0.0149677 -0.181807 

-0.014292 -0.0374735 -0.00821718 
0.0361839 -0.00146518 -0.0106364 
0.000586259 0.00024545 0.0244986 

-0.0498405 -0.0121767 0.181752 
0.110799 -6.2766e-05 0.255602 
-0.0117655 -0.118824 0.353102 

-0.0490745 -0.0289411 -0.0299805 
0.0437896 0.00480023 -0.116094 
0.00106312 0.00371193 0.107592 

-0.0136734 -0.00197933 0.00656566 
0.00625464 0.00103609 -0.0259142 
0.000283483 0.00170072 0.0144851 

-0.0327839 -0.0896844 -0.0838593 
0.044485 0.0394692 -0.185393 
-0.001314 0.0119531 0.111451 

-0.0322269 -0.0341587 -0.176103 
0.0311946 0.0053847 0.221713 
6.95449e-05 0.00137498 0.111764 

-0.0116584 -0.0206795 -0.0530319 
0.00646133 0.0127936 0.0361918 
-0.0054371 0.00591302 0.0639176 

-0.0645391 -0.332062 0.807978 
0.0473038 0.140787 0.131886 
0.040735 -0.0183875 0.606153 

-0.0755093 0.17435 0.234377 
-0.123054 -0.0117435 -0.113814 
0.00676315 0.000294987 0.181546 

-0.0254272 -0.000939409 -0.107937 
-0.0118563 0.00947618 0.0102651 
-0.00175475 -0.00102041 0.0122337 

-0.0187269 0.0101017 -0.157637 
0.0134262 -0.00417357 -0.171846 
0.000231211 0.00197749 0.00653297 

-0.0129846 0.0149998 -0.098054 
0.0388106 0.0237196 -0.0820106 
0.00287339 -0.000489569 0.0133275 

-0.015092 -0.00279607 0.0320469 
-0.00325859 0.00504089 -0.675256 
-0.00024909 -0.000310425 0.0445484 

-0.0407267 0.0111615 0.0361583 
-0.026338 0.014858 -0.0238109 
-0.00293144 0.000789545 -0.00627337 

-0.0283367 -0.00848741 -0.240087 
0.00606895 0.0120327 -0.166705 
-0.00140088 -0.00105107 0.00439474 

-0.0164323 0.00400463 0.0577821 
-0.00484539 0.0141015 -0.0728318 
-0.010793 0.000856766 0.0205986 

-0.0226302 0.020991 0.42826 
-0.0200937 0.0110871 0.108544 
-0.00169186 -6.52563e-05 0.0650451 

-0.0386656 0.0524398 -0.0915615 
-0.0925073 0.0177093 -0.0744617 
0.00199548 0.000116775 0.0325606 

-0.00208895 -0.00906919 0.00739342 
-0.000572149 -0.0118394 0.0349783 
-0.000781531 -0.000271825 0.0151274 

-0.0244132 -0.00510782 -0.122966 
0.00772011 0.0198183 -0.897096 
0.000456441 -0.000672971 0.139706 

-0.0511713 -0.0375349 0.61446 
0.0389961 0.105593 1.44844 
0.000706293 0.000494609 -0.035613 

-0.125621 -0.0475479 -0.200855 
-0.0362948 0.043246 -0.860693 
5.95793e-05 -0.00549976 0.389592 

-0.0154949 0.0100634 -0.633029 
0.005183 0.00719993 -0.27111 
-0.00185912 -0.0010936 -0.0395609 

-0.0154006 0.00428946 -0.0918833 
0.0198215 0.00300382 0.0635835 
0.00100911 -0.00658033 0.0667305 

-0.0503373 -0.124785 -0.362865 
0.210028 0.0726658 1.16479 
-0.00770971 0.00109511 -0.00945793 

-0.0676519 0.0149986 -0.447709 
-0.0231351 0.0857527 -1.10411 
0.000385361 0.0109209 -0.00296482 

-0.0279989 0.0553408 -0.342384 
-0.035301 0.0204462 -0.157017 
-0.0022965 -0.00209925 -0.0140552 

-0.342877 0.090946 -0.265688 
-0.302704 0.123029 0.263609 
-0.00846029 0.00420935 0.196446 

-0.0167937 -0.0136669 -0.0374401 
0.00463279 0.00644758 0.0287089 
0.00102415 -0.00147644 0.00439342 

-0.0172064 -0.00433839 -7.45493e-05 
-0.011914 0.00997737 -0.0169073 
0.00233992 -0.00145581 0.0251762 

-0.0198629 0.00704239 -0.024246 
-0.000766691 0.00779628 -0.0195092 
-0.00205501 0.000849688 0.0298992 

-0.0343291 -0.000618265 -0.0643002 
0.00625075 0.0244598 0.0437481 
-0.00116906 -0.00147861 0.0506224 

-0.0214541 -0.0058479 0.00346146 
-0.00544026 0.00657981 0.0115615 
-3.57023e-05 0.000108283 -0.0061026 

-0.0119697 0.00307887 0.008436 
0.00653552 0.0081977 -0.00506465 
-0.00161069 -0.00161251 0.0258976 

-0.0378864 -0.00171914 0.0822847 
0.00132459 0.0242556 -0.0155448 
0.000355466 0.000215532 0.00753124 

-0.101441 -0.0860827 0.734616 
-0.0333577 0.102691 -0.219089 
-0.00407961 -0.00683412 0.111689 

-0.0386534 -0.00914952 0.0190728 
0.046003 0.000186091 -0.0796704 
-0.0285062 -0.0355307 0.411137 

-0.0272423 0.0329883 0.237226 
-0.0557855 -0.0036195 0.197271 
-0.00346927 0.00252225 0.0396969 

-0.0236503 -0.0343885 -0.501092 
0.254705 0.0587839 -0.17303 
0.0303843 0.0203378 -0.0257312 

-0.0262923 -0.00609506 0.0259362 
-0.00627516 0.0159045 -0.0146318 
0.00198161 -0.00154088 0.0207005 

-0.0248124 0.035187 -0.00146921 
-0.0443393 0.0110252 0.0400103 
0.00051635 6.09317e-05 -0.0001111 

-0.0203058 0.00474097 -0.0319859 
-0.000132513 0.00401298 0.00210444 
0.00224003 0.00086644 0.0178453 

-0.0355729 -0.00638742 -0.0697957 
0.0204994 0.0233403 0.00844396 
-0.000768328 -0.000729151 -0.00520585 

-0.00983965 0.114526 0.244581 
-0.125886 0.0839204 -0.244699 
-0.0236946 -0.00782236 0.121816 

-0.0107565 0.00364476 0.0101649 
-0.0012211 0.00572483 0.000400811 
-0.00046972 -0.000152136 0.000244888 

-0.0217447 -0.0078677 0.0773135 
0.00545674 0.00717334 -0.193272 
-0.0115986 0.00441249 -0.0247327 

-0.00656878 -0.0895082 -0.0557027 
0.0570415 0.000270286 0.0256493 
0.00397043 -0.00063429 0.029832 

-0.0340539 -0.0214114 0.0492949 
0.0177945 0.00994839 -0.0143459 
-0.00133564 0.00490308 0.0337843 

-0.0258809 -0.00484958 0.0228676 
0.00992804 0.0133663 0.134241 
-0.00678152 0.00779725 -0.014885 

-0.0150512 0.0500451 0.00997999 
-0.0244965 0.00407133 -0.00750304 
0.00149713 0.0372726 0.024735 

-0.0348522 -0.0119645 -0.127413 
-0.0301885 0.0152285 0.00664355 
0.00151608 -0.00253653 0.0362497 

-0.453885 -0.0117333 0.133765 
0.0293179 0.325535 0.428064 
0.0894888 0.0611775 0.81187 

-0.0327975 -0.0239332 -0.0185638 
0.0154622 0.00547961 -0.0510547 
-0.00163373 -6.54786e-05 0.0922448 

-0.0130284 -0.00174182 0.00930942 
0.00729945 0.00267318 0.0124638 
0.000714582 0.000549332 0.0127668 

-0.147277 -0.131955 0.112688 
0.0328436 0.0926922 0.25033 
-0.00825074 -0.0388609 0.0230802 

-0.0969253 -0.0114609 -0.21543 
-0.0676151 0.0728603 -0.924993 
-0.00669118 -0.0096048 -0.170038 

-0.113543 0.112853 0.00709019 
0.251416 0.161832 -0.0363938 
0.0328943 -0.0145305 0.326012 

-0.00289762 0.0369979 0.148324 
-0.0125018 0.0167941 -0.126961 
0.0323047 0.0855973 0.411891 

-0.0228237 0.034021 0.0234921 
-0.030482 -0.00124497 -0.21502 
-0.00971671 -0.0280184 0.027234 

-0.0482838 0.0183989 -0.00468917 
-0.0115249 0.055423 -0.0527416 
-0.00171141 -0.000706886 0.0118273 

-0.0284597 -0.00760017 -0.0467342 
-0.0124625 0.0150677 0.0393956 
0.00048098 0.00142965 0.00816459 

-0.0157898 -0.0341329 0.0468546 
0.043249 0.00318935 -0.0259008 