# vtk DataFile Version 3.0
Output file generated by Yade's KinematicLocalisationAnalyser
ASCII
DATASET UNSTRUCTURED_GRID

POINTS 13483 float
661.093 27.5759 0.424298
865.292 44.3805 -0.494367
129.419 6.15704 -0.445018
914.282 4.31162 0.334047
537.776 7.54913 -0.304738
338.129 34.4766 -0.453577
168.602 6.78763 0.416487
616.868 10.0105 0.138339
534.549 22.4643 0.143568
800.332 12.2445 -0.348212
226.303 8.76134 -0.11569
276.086 6.2661 -0.269431
714.906 28.1163 -0.145558
690.922 13.9738 0.0791245
147.742 16.7891 0.430649
238.191 33.9196 -0.397465
233.946 12.7899 -0.266542
310.17 9.41692 0.375496
366.16 32.0273 0.419752
566.027 8.51363 0.345629
441.996 36.109 0.101352
642.192 42.9458 0.267852
909.161 30.8776 -0.44406
771.223 40.9503 -0.464968
493.782 16.0082 0.295173
259.029 43.5393 -0.123214
529.275 26.8648 -0.473167
635.647 18.7855 -0.242771
48.6038 15.23 -0.455839
795.591 31.0688 -0.308265
519.308 4.88316 0.315038
17.9881 22.5185 0.291221
879.769 40.952 0.2528
533.306 2.47047 0.482528
84.2328 43.3714 0.100354
562.599 29.5663 0.322046
572.841 16.4927 -0.41013
369.199 21.8115 -0.180066
576.118 25.1834 -0.326915
377.062 32.5707 0.405175
259.144 14.5289 0.296377
467.085 34.9488 0.0687246
745.104 6.88477 0.126261
207.582 6.14896 0.378008
59.7911 6.84136 -0.066546
73.7634 8.76808 -0.282483
763.586 8.51622 0.487334
25.382 11.6052 -0.292096
664.933 43.3766 0.367356
746.995 22.6352 0.325872
185.868 31.9306 0.298969
859.536 32.4329 -0.14458
37.8516 27.6889 0.114191
577.025 2.93716 0.321158
153.241 7.40312 -0.468266
644.747 32.6808 0.395098
543.898 25.7301 0.117101
188.194 0.930494 -0.259682
35.2696 2.3944 -0.302131
374.759 17.5005 0.264876
677.154 44.4329 -0.132235
497.845 32.9607 -0.185103
429.466 1.03163 0.187674
776.421 7.6288 -0.329901
28.5391 42.0617 0.235835
275.762 29.9415 -0.304383
800.393 7.64572 -0.216602
738.005 43.0019 0.357826
449.328 8.52811 -0.472126
617.755 3.49847 -0.342684
834.763 29.0149 0.387931
141.124 7.477 0.280027
537.545 24.7771 -0.131723
514.646 14.7474 -0.130879
316.886 16.4345 -0.339556
22.3969 13.4311 0.251794
887.033 31.5594 -0.375822
358.1 38.0529 -0.282347
745.033 19.2267 0.381642
763.454 12.4526 0.259616
897.009 10.7893 -0.189707
501.523 34.015 0.172684
99.7072 37.715 -0.272579
757.109 33.4462 -0.242847
711.17 37.3359 -0.106347
918.538 36.0277 -0.142969
889.448 0.819715 -0.467054
313.433 28.7744 0.42545
678.983 6.26979 -0.0998017
26.3836 5.25267 -0.442072
143.267 37.1427 0.147592
554.336 13.9937 0.199447
877.08 23.9163 0.510131
210.971 28.3795 -0.236376
47.9386 33.8317 0.272427
532.163 1.15911 0.111244
254.171 8.86376 -0.351784
838.182 38.4649 -0.250339
863.679 24.9196 0.246085
389.558 20.286 -0.253047
176.89 26.5919 0.439318
596.633 37.5297 -0.420954
410.011 15.0479 -0.468715
446.261 29.1429 -0.0939889
408.006 4.43749 0.408611
594.363 10.8279 -0.0869798
919.355 11.222 0.186544
86.767 38.4718 -0.385792
361.775 4.7394 -0.177648
609.96 9.29788 -0.326923
388.622 42.9479 0.444207
28.1897 24.0176 0.459553
33.023 5.72665 0.317341
618.604 31.7207 0.421455
547.133 23.3661 0.143022
28.5877 36.1219 0.244344
100.69 30.1306 0.222278
350.942 15.7115 -0.30612
655.66 18.2993 -0.125978
514.563 37.4123 0.302621
819.634 7.39915 0.38344
810.971 6.19372 0.212892
418.219 36.4982 -0.0934654
697.955 24.4996 0.0952423
258.225 16.6513 0.499452
356.678 3.6589 0.467448
111.975 30.8181 -0.338499
126.035 23.7123 0.274423
591.482 37.8241 0.0725846
330.819 18.5155 0.471413
789.891 33.8356 -0.103708
742.384 42.6 -0.119373
520.948 20.1093 -0.392215
867.574 8.58051 0.31881
464.323 22.9118 -0.228514
299.992 23.8463 -0.307625
745.671 30.1198 0.268111
301.821 28.2202 0.39514
629.406 11.454 -0.176854
359.333 34.7758 0.189498
548.19 11.2806 0.438412
397.3 30.7691 0.0878366
466.746 16.4021 -0.108718
344.66 41.1597 0.430495
206.872 29.229 0.112895
870.801 42.2438 0.155373
914.674 11.7423 -0.275282
6.44604 12.028 0.454185
471.06 22.061 -0.415886
41.7333 22.1625 -0.0888633
407.925 30.5325 0.473598
428.522 24.7284 -0.258689
81.1702 11.7325 -0.450444
56.3756 32.514 0.421495
245.156 13.3155 0.430793
678.702 38.1176 0.40597
631.723 19.9434 -0.420234
81.3073 20.7678 -0.473443
774.095 44.2863 0.406319
852.701 2.45806 -0.426976
730.097 38.8473 -0.454444
771.422 2.35518 0.369235
600.989 25.9145 0.383015
643.654 43.7773 -0.434109
558.442 17.5627 -0.401506
911.229 3.02147 0.251553
242.848 24.2188 -0.116662
138.712 34.4553 -0.195631
268.553 6.49126 -0.370794
102.867 4.04278 0.256032
69.8737 9.83468 -0.19146
299.736 35.2294 -0.303499
18.1702 24.2569 -0.36244
607.299 18.8218 0.390059
664.704 38.3609 0.199323
503.59 20.8809 -0.359351
900.677 37.5461 0.379355
442.099 8.43178 0.087166
474.1 35.3189 0.365945
586.078 3.42269 -0.181472
24.9748 23.3811 -0.373407
632.228 4.32512 -0.358777
596.599 4.34275 -0.283085
224.406 11.1786 0.473026
462.407 16.0679 -0.191506
338.487 6.29256 0.319114
421.822 18.6791 -0.337755
824.877 41.1828 0.118653
209.346 25.1983 0.403724
880.798 6.91116 0.35265
823.952 37.3223 0.336186
416.943 10.1185 -0.177131
797.48 2.29526 0.398222
665.204 24.5108 -0.421647
827.809 17.608 -0.35569
469.03 41.7816 -0.270218
541.922 12.2353 0.334039
507.236 43.6239 0.218149
485.389 8.57142 0.134922
733.72 38.0303 -0.306602
731.22 34.4081 0.337132
209.109 38.3435 0.336367
894.78 10.736 -0.135915
645.717 44.1519 0.241567
12.2847 16.5563 -0.197155
443.51 24.9192 0.334632
204.066 22.7459 0.392941
101.362 38.62 0.198843
874.399 20.4038 0.428153
726.642 42.5717 -0.236369
347.345 25.1078 0.354874
582.668 10.0628 0.320081
89.6477 43.4674 -0.161414
269.631 25.5108 -0.472196
610.487 23.1233 0.361905
531.043 18.1317 0.393142
286.131 0.88893 -0.342156
606.308 39.221 -0.353635
584.416 40.0553 -0.447293
526.226 32.3461 0.384742
545.167 0.769785 -0.483277
782.905 17.8125 -0.380004
195.939 11.8434 0.162004
546.751 35.4221 -0.423657
619.609 38.8133 0.121671
79.3186 0.95409 0.270231
274.183 4.6812 0.169085
913.935 13.6476 0.179344
897.363 12.7049 -0.400408
921.719 15.5379 -0.565527
330.559 8.47497 -0.225378
834.992 21.797 0.388037
443.993 40.9133 -0.311699
489.727 0.814382 -0.397947
717.752 34.8467 -0.584869
29.7837 29.8958 -0.298749
360.334 40.3892 0.481754
275.076 2.82284 0.307121
883.093 38.1972 -0.243125
794.045 46.1269 -0.219385
313.038 10.712 0.176092
738.62 28.1108 -0.0842838
611.612 2.65191 0.25854
594.273 6.39763 0.411816
105.507 17.7273 -0.491113
330.4 1.03644 -0.222569
374.265 2.2571 -0.366515
15.3188 7.54168 -0.331612
4.7707 30.3456 0.247041
177.086 18.4477 -0.356769
74.4789 40.9606 0.211869
73.0222 28.2559 -0.321477
462.112 14.2448 -0.416142
400.424 34.355 0.468044
857.418 34.3551 -0.11906
21.4437 3.97762 0.278228
76.9845 6.79672 0.135252
689.931 36.9709 0.147613
321.473 0.929709 0.320854
397.867 15.5828 -0.108008
257.057 4.4851 0.385797
722.967 20.6745 -0.180629
493.115 8.26617 0.402434
838.312 19.8753 -0.354165
697.148 27.9856 -0.299498
742.996 17.021 0.10472
458.506 25.9734 0.487551
111.347 43.7642 -0.310834
595.39 41.3431 0.0748516
825.328 13.1201 0.194252
259.469 29.7639 -0.240237
35.2759 16.6285 0.1704
366.83 13.5615 0.482909
117.662 39.5556 0.436199
292.08 41.6241 -0.187228
464.375 1.07314 0.168327
883.763 28.1192 0.376845
763.752 0.808087 0.484623
362.391 3.06321 0.476895
327.368 26.136 0.134798
506.08 40.3654 0.206072
89.058 7.97514 -0.332792
216.27 43.9542 0.377886
866.56 27.033 -0.345154
541.761 37.8318 -0.0741834
218.601 40.7161 -0.246584
175.631 41.3628 0.332098
921.067 31.784 -0.407937
917.575 11.2168 -0.457863
668.474 3.53397 -0.471863
207.882 24.1058 -0.092113
603.145 27.1423 0.0990942
605.21 26.7691 0.258739
446.874 5.55383 -0.135236
526.843 0.933541 -0.277867
855.254 36.4636 -0.499562
93.0828 30.3219 0.215504
729.341 17.7234 -0.451311
299.631 15.3595 -0.32592
10.8539 2.33459 0.3344
137.207 35.9911 -0.199677
73.3874 22.6387 0.456961
782.481 35.288 0.319466
889.425 42.8976 0.165274
203.041 27.782 -0.173883
909.043 11.5326 -0.284684
49.3197 35.778 -0.254054
99.4703 28.5249 0.149036
701.371 12.6849 -0.437932
451.745 17.8542 -0.477493
569.436 16.3543 0.10396
260.093 27.824 -0.180007
686.662 4.48565 -0.400945
922.381 10.7299 0.336306
32.7715 30.9765 -0.273765
295.019 7.66966 0.182227
242.661 14.9458 -0.269758
1.10218 34.8429 0.146036
246.191 14.3145 -0.363307
231.378 10.8207 0.126526
234.257 25.7308 0.265617
145.488 27.4003 -0.116992
601.446 14.7997 -0.321967
183.038 13.9836 0.34479
877.28 39.5562 0.181787
190.458 3.76048 0.475623
51.9136 36.7163 -0.370216
831.919 47.1065 -0.426371
307.167 31.1653 -0.374159
753.71 22.4988 0.414469
895.317 28.276 -0.510118
328.556 9.08841 -0.112473
821.545 29.2653 -0.323791
359.092 2.62282 -0.357566
454.661 23.4776 0.378413
749.907 15.6166 0.440982
115.73 11.695 -0.396345
528.588 3.96167 -0.457522
842.399 17.6748 -0.201105
96.7149 7.58031 -0.180616
307.68 14.4862 0.196073
462.967 11.5147 -0.197317
909.455 2.70892 0.391142
434.758 1.86915 -0.471185
193.696 38.1309 -0.278856
828.252 10.2162 -0.349121
140.575 35.4776 0.175584
287.667 30.9176 -0.398096
437.75 21.3021 0.214094
632.026 13.2485 -0.307761
423.148 9.74468 -0.436534
499.572 27.27 -0.399722
866.428 43.9037 0.380679
52.1962 10.7499 0.103054
327.174 37.5962 -0.256158
415.012 26.1644 -0.358561
447.736 20.8922 0.240594
572.17 43.5792 0.35653
847.732 35.1375 0.243292
737.563 33.796 0.361828
246.863 33.591 0.376694
15.4385 30.4927 0.158368
729.488 35.2972 -0.142811
558.325 40.204 0.386474
251.032 38.7131 -0.100627
761.126 30.524 0.14422
165.729 9.16027 -0.193946
400.697 20.6566 0.292415
507.838 41.5252 0.0989845
452.669 19.3079 0.201776
862.077 46.3148 0.290989
465.855 3.34999 0.412409
54.7334 24.71 -0.286262
514.859 31.1461 0.335964
475.577 40.4779 0.384409
880.614 33.8356 -0.234923
818.578 28.1895 0.240259
594.587 18.1081 -0.162112
870.998 35.3948 0.42686
320.552 2.02387 -0.43922
413.904 28.7986 0.44869
31.8559 38.0108 -0.294954
825.015 30.2209 0.139598
674.029 19.2577 -0.479469
507.041 0.77907 -0.480671
138.403 4.45924 0.281414
466.984 39.3162 -0.0938839
13.4264 0.909243 -0.312362
908.366 5.43729 0.168169
405.058 38.4147 -0.403618
[...]
POINT_DATA 13483
TENSORS Strain_matrix float
-0.0220215 -0.0363456 -0.892934 
-0.00871957 0.0393205 -0.0432201 
-0.00353086 0.0119293 0.610368 

-0.0784479 -0.0392762 7.32271 
0.0180796 0.0337109 5.09494 
-0.0036828 0.00533257 0.31099 

-0.0443637 0.00367451 0.561834 
-0.00260737 0.0255148 0.362218 
0.00239122 0.0149312 1.31156 

-0.0869885 -0.00515272 0.195719 
-0.0113877 0.0556127 0.291388 
0.00150272 0.00484422 0.154481 

-0.0489442 -0.020076 0.0557517 
-0.0315901 0.0210322 0.0281912 
0.0452926 -0.0382013 0.230359 

-0.0228012 -0.00409888 -0.357685 
-0.00919986 0.0135954 -0.79656 
-0.00211078 -0.00266139 -0.048204 

-0.0339954 -0.000487194 -0.43878 
-0.00107956 0.00956773 0.104644 
0.000782017 0.00325282 0.217517 

-0.0223214 0.00833652 -0.000642127 
0.0166405 0.00834326 0.0255691 
-4.81283e-05 -0.000604525 0.0229818 

-0.0355054 -0.0295604 0.021618 
-0.0397627 0.0136815 0.0866395 
-0.000825451 0.000616738 -0.0134023 

-0.0612521 0.0414494 0.0156315 
0.0269635 -0.00620145 -0.0172473 
-0.00123165 0.00125693 0.107954 

-0.0219109 -0.000356036 0.00398527 
0.00196124 0.00909844 0.0102156 
0.00141535 -0.00142172 0.0152425 

-0.0254388 -0.00361557 0.0353011 
0.00140029 0.00545459 0.0219658 
-3.75364e-05 -0.000258016 0.00277656 

-0.101686 0.10027 -0.29394 
-0.0810252 0.114755 -0.137786 
-0.0039211 0.00203693 0.0580175 

-0.0274937 -0.0224159 -0.0197037 
0.0169202 0.0125986 0.032998 
-0.00200341 0.000377539 0.0274664 

-0.017638 0.043071 0.0367792 
-0.0228774 0.00192824 -0.0333805 
0.0096377 -0.000988074 -0.0507246 

-0.0271914 0.0320725 -0.190365 
-0.00951587 0.0234026 -0.50883 
-0.00254379 -0.00159341 0.252065 

-0.0368341 0.00976494 -0.0164604 
-0.00652637 0.0116654 0.0214035 
0.000737209 0.00194045 0.055297 

-0.045916 -0.00656466 0.0590378 
-0.00108079 0.0209175 -0.0232521 
-0.000661354 0.000930937 0.018949 

-0.0622361 -0.00140239 0.0904597 
0.0099733 0.0145574 -0.0575343 
0.0139533 0.0118124 -0.0766695 

-0.022731 0.00660777 0.0165085 
0.00183499 -0.000826466 0.0180506 
-0.00265296 -0.00172945 0.0177622 

-0.0694503 -0.00842003 -0.0649563 
-0.00803545 0.0256376 0.00327874 
-0.00165381 0.00202522 0.0351347 

-0.0932324 0.0446518 -0.0389687 
0.00188622 0.060806 -0.162147 
0.000901231 0.00514185 0.059566 

-0.1003 0.206824 -0.138851 
0.0226044 0.0535396 0.846464 
0.00303692 -0.0128172 -0.0960747 

-0.0715606 0.00972367 0.34471 
-0.0139517 0.0117999 -0.395459 
-4.42036e-05 0.0059237 0.203219 

-0.00864816 -0.00701573 -0.0708095 
-0.0060433 0.00670369 -0.0976398 
-0.00704425 -0.00509032 0.112591 

-0.0226892 0.0380013 0.136591 
0.000671731 0.0142333 -0.0377494 
0.0433743 -0.00551532 0.206555 

-0.0264898 0.0060624 -0.947771 
0.00568814 0.024368 -1.24114 
0.000240633 -0.00106633 -0.120988 

-0.0286878 -0.15702 -0.0721274 
-0.0329697 0.0427472 0.338431 
0.00809972 -0.0128384 0.178572 

-0.0266883 -0.0211712 0.263187 
0.010506 0.0280652 -0.0512679 
-0.00135066 0.000872885 -0.0821725 

0.0281306 -0.0412494 0.0844873 
-0.0514184 0.0864828 0.111403 
-0.000272158 -0.000986696 0.0290814 

-0.0217818 0.00740139 0.00365461 
0.00205674 0.00934336 -0.0539075 
-0.000821261 0.000933024 0.0182825 

0.00243399 -0.0203018 0.157804 
-0.0164754 0.0237481 0.0347478 
-0.00265738 -0.000730591 -0.0123969 

-0.084994 -0.0237144 0.294179 
-0.0504593 0.0700479 0.622428 
-0.0275032 -0.0219133 0.0441131 

-0.0580342 0.0176006 -0.244465 
0.00377531 0.0321931 -0.520306 
-0.000132534 -0.00370332 0.125233 

-0.0389593 -0.0266764 -0.00268566 
0.029508 -0.0260264 0.068207 
0.0274454 0.0123609 0.308786 

-0.0160354 0.0151799 0.0347954 
-0.00242352 0.00721257 0.0472575 
-0.00106392 0.00144159 0.0107339 

-0.0202414 0.00602404 -0.534963 
0.00213048 0.00717312 0.105857 
0.000287428 0.000103711 0.0263485 

-0.0842794 0.0426837 -0.00152876 
-0.0526661 0.0721379 -0.043325 
0.000468252 -0.000285402 0.00161905 

-0.0400768 -0.0030963 -0.0583129 
0.0397349 0.0318126 0.124125 
-0.000816954 -0.000446248 0.0318242 

-0.0531885 -0.0219412 0.133746 
0.00413285 0.0545746 0.253811 
-0.000601698 0.00442388 0.622907 

-0.072142 0.0352296 0.299223 
-0.00731445 0.0247209 0.0472693 
-0.000530373 0.000594091 0.00647545 

-0.0398881 0.0131925 -0.0757185 
-0.00563011 0.0157962 -0.0100817 
0.000674329 0.000207224 0.00603695 

-0.109505 0.00848192 -0.0140964 
-0.0584283 0.0494101 0.0251774 
0.0182529 -0.0943044 0.528584 

-0.0167185 -0.00197999 -0.0853004 
-0.00165527 0.011515 0.0135368 
0.00434464 -0.00127065 -0.010266 

-0.032616 0.0179226 0.0202849 
-0.0216874 0.0114597 0.0325165 
0.0221874 0.0178869 0.0665203 

-0.029871 -0.00352878 0.0798687 
-0.0149493 0.0123488 0.00743948 
-0.000341492 -0.00075266 0.00435168 

-0.0802178 0.0260113 0.554709 
-0.0213947 0.0301549 0.267529 
0.00876261 0.00692052 0.884987 

-0.0245143 0.000520604 -0.0120506 
-0.00586648 0.0226352 -0.00309634 
0.00355332 0.00106015 -0.00290689 

-0.019911 0.00122562 -0.0494325 
0.00552889 0.0117871 -0.0291822 
0.00290921 0.000137104 0.0370795 

-0.0406671 0.113696 0.716617 
-0.100403 0.0369442 0.169603 
-0.00148794 -0.00781813 0.0883519 

-0.0153655 -0.0455626 -0.0346633 
0.0371239 -0.00256341 -0.0693537 
-0.000445781 0.00084608 -0.00548505 

-0.0315543 0.0364186 0.0979743 
0.0083769 -0.00885149 -0.0421193 
0.00102969 -0.0020768 0.0675364 

-0.0715949 -0.0213369 0.0708634 
0.0571295 0.0418915 0.0876607 
0.0235405 -0.011502 0.0710197 

-0.0254015 0.000725425 0.0148244 
-0.00273511 0.00337574 0.0399628 
-0.000161793 0.000376065 0.0280822 

-0.0353727 0.0038917 0.163527 
-0.00633916 0.0102877 -0.207307 
-0.00279242 0.00240585 -0.111726 

-0.0184518 0.000863517 -0.0420603 
0.00585167 0.0171186 0.689298 
-0.000689083 0.000734176 0.0652424 

-0.0164265 0.0112124 -0.0295865 
-0.0125534 -0.0154373 0.0454983 
0.00128191 0.00137307 0.0111645 

-0.043211 0.0687997 -0.0550154 
0.00361209 0.0253859 -0.0109921 
0.00875306 0.0726608 0.125567 

-0.0137692 -0.00265479 -0.0287126 
-0.00614757 -0.00129669 0.0139819 
0.000384674 0.00110057 0.0238254 

-0.0283078 -0.00515872 -0.121251 
-0.00455652 0.0195669 0.017734 
0.000532836 0.0010587 0.0251566 

-0.0182592 0.064968 -0.0464512 
0.0158202 0.0252867 -0.052208 
-0.000342454 -0.000175983 0.0307022 

-0.0288749 -0.011138 -0.0816195 
0.0301125 0.0150315 -0.0240398 
0.00219466 -0.0103697 0.00322631 

-0.0282066 -0.0308651 -0.087499 
-0.00193227 -0.00781649 -0.0352711 
0.0010839 0.0334655 0.0693238 

-0.0571842 0.00385571 0.203051 
0.0134142 0.016605 0.187407 
-0.010704 0.0142069 -0.0792496 

-0.0521858 -0.00369052 -0.156939 
0.0397973 0.0572867 0.149861 
0.0168557 -0.0136624 0.00223773 

-0.0684627 0.0575418 0.0673256 
-0.0392304 0.0455 0.207509 
0.00601052 -0.00192953 0.06977 

-0.0502022 0.0878763 -0.0194223 
-0.0283934 0.0120756 -0.0100667 
0.00371732 -0.00226984 0.0719746 

-0.0453965 -0.099828 0.0784913 
0.116248 0.0353036 0.179995 
0.0210862 -0.0381739 0.0684434 

-0.0330005 -0.00673481 0.0707836 
-0.00417466 0.0139325 -0.00687248 
-0.00010174 0.000690752 0.010998 

-0.0401296 0.0129213 0.0197961 
-0.00944903 0.0123778 0.0220238 
-0.000230881 -0.00147033 0.0421515 

-0.138038 0.153255 -0.244764 
-0.0197136 0.140213 -0.623795 
0.00892967 0.00847956 0.0442362 

-0.0294317 -0.00423097 0.0108301 
0.0010232 0.0154058 -0.0566 
0.00154513 0.00163258 0.048377 

-0.02314 -0.0157523 -0.0885498 
-0.00768345 0.0194478 -0.0308202 
0.000928298 9.69137e-05 -0.013815 

-0.0266552 -0.0132839 -0.0240504 
-0.0060093 0.0127371 -0.0156167 
-0.00181053 0.00106169 0.0414572 

-0.0350923 0.0293949 0.0454958 
-0.00603012 0.0112725 -0.0899329 
0.000836243 5.81844e-05 0.0233828 

-0.0382207 0.0158393 -0.011841 
0.00498774 0.023191 -0.00395901 
-0.00608239 -0.000154514 -0.0073372 

-0.0199139 0.00720776 0.259431 
0.0477789 -0.00268247 -0.302222 
-0.00893053 -0.0515694 -0.238555 

-0.0394436 0.018139 -0.104769 
-0.0357389 0.0148774 -0.13344 
0.0230301 -0.00311442 0.203485 

-0.128847 0.0963496 -0.130619 
0.0597405 0.0667407 -0.0151926 
0.0050643 -0.00636329 0.180891 

-0.0624393 0.0467258 0.179479 
-0.00151641 0.0212896 -0.277004 
0.0166126 -0.00496993 0.800569 

-0.0533597 -0.00240554 0.0320286 
-0.0278664 5.28449e-05 0.0528156 
-0.00313559 -0.00280608 0.110797 

-0.0116865 0.00356205 0.102122 
0.00812478 -0.00371391 -0.140673 
-0.013607 -0.0238736 0.116024 

-0.028468 -0.0071506 -0.364155 
0.0277977 0.0130199 0.111742 
0.0104988 -0.00459208 -0.433174 

-0.0413582 0.0756347 0.040394 
-0.0642227 0.0221556 -0.140931 
0.00332571 -0.0010884 0.0384082 

-0.0731797 0.0193567 0.186566 
0.00407397 0.0193253 0.242352 
-0.00575018 -0.0305694 0.147726 

-0.132505 -0.0460898 0.204323 
0.0268068 0.00848096 0.217385 
0.0141314 -0.0155792 0.236878 

-0.0939072 -0.250742 -0.512518 
0.00242906 0.247657 0.179895 
0.00202726 -0.0573032 0.195299 

-0.0223241 -0.00784211 0.0443443 
0.0350817 0.00604544 -0.168392 
0.0165637 0.000705035 0.189801 

-0.0240912 0.0202968 1.96024e-06 
-0.0252186 0.0114469 -0.0271083 
-0.00220522 0.00211279 0.0124746 

-0.0366527 0.0124154 -0.604347 
0.000541039 0.0106339 -0.308325 
0.00154646 -0.0073829 -0.213935 

-0.0306273 0.0435431 -0.0114599 
-0.0208636 0.00455002 -0.03137 
-0.0484388 -0.06006 0.27015 

-0.0228993 0.00760954 0.000981647 
-0.0121171 0.00688497 0.0201794 
-0.00118211 0.00115942 0.0333225 

-0.0785581 0.0566247 0.195563 
0.0361036 0.0317901 -1.08306 
6.54738e-05 0.000363351 0.545107 

-0.0643842 -0.0231395 0.0937225 
-0.0181623 0.0333807 -0.00664315 
-0.0018768 0.00140615 0.0117692 

-0.0315541 0.0484017 -0.0260639 
-0.0166278 0.0106421 -0.0696219 
0.0114811 0.0326824 0.379567 

-0.0433243 0.0244712 -0.0368115 
0.00440182 0.026477 -0.0116396 
-1.82715e-06 -0.0144693 0.0604041 

-0.0368394 0.0252019 -0.0498208 
-0.0219804 0.0132938 0.0490762 
-0.000688862 0.00043284 0.0351779 

-0.165812 0.119987 0.0532109 
0.00850671 0.0865995 -0.143031 
-0.00889998 0.0298204 0.137485 

-0.150258 0.0131362 -0.222493 
-0.0833498 0.101389 -0.0886836 
-0.00217441 -0.0044014 0.0837457 

-0.00982812 0.000705296 0.00583101 
0.00135174 0.00328587 -0.00695844 
0.00163064 -0.0017175 0.00925456 

-0.0198321 -0.0226857 -1.00656 
0.0184006 0.0105732 0.020394 
0.000174957 0.00327697 0.310978 

-0.0358393 -0.0158224 0.0131066 
0.000610337 0.0220258 0.562886 
0.0192896 0.021081 -0.0963267 

-0.0328679 -0.00446517 -0.674316 
0.00266078 0.0206322 -0.644927 
-0.000799959 0.00100341 0.0850715 

-0.0516002 0.0128912 0.184568 
0.0646194 0.0286407 0.0969928 
0.0177951 -0.0431366 0.316628 

-0.0301242 -0.00974526 -0.115397 
0.0131178 0.0190717 0.201034 
0.0061828 0.00201126 -0.199026 

-0.0385867 -0.00840477 -0.00247655 
0.000130613 0.0220436 0.00260195 
-0.00308817 0.00107457 -0.00878676 

-0.0800891 0.0367069 0.0259389 
-0.0147301 0.0168202 0.00219456 
-0.00189485 0.00237451 0.149164 

-0.0413608 -0.0177432 0.0847276 
0.00520533 0.0152942 0.117545 
-0.00691351 0.0104895 0.52194 

-0.0399525 0.0177256 0.0665226 
0.00705119 0.000146997 -0.032686 
0.00161677 0.00162944 0.0512034 

-0.0292815 0.000795712 0.0799463 
0.00079621 0.00601489 -0.00368065 
-0.00271337 0.000470323 0.00396451 

-0.0341797 0.0297536 -0.791041 
0.00020268 0.00785708 -0.333835 
-0.000447842 -0.0081232 0.104849 

-0.0340269 -0.0293374 0.376702 
0.00209738 0.0185982 0.19193 
0.00145681 0.00338114 0.157177 

-0.0273212 0.0151561 -0.0146876 
-0.00911708 -0.00534565 0.00496094 
0.00044006 -0.000575678 0.0497886 

-0.0405412 -0.0546557 -0.184506 
0.0235964 0.0406781 -0.0138125 
0.0535467 -0.0312921 -0.0244179 

-0.0156048 0.0531143 -0.00487869 
-0.0589802 0.0193743 -0.0852778 
3.12083e-05 0.00195601 -0.00947869 

-0.00804946 -0.0476902 -0.0319824 
0.0422209 0.0151893 0.00722166 
0.00105388 -0.00227426 -0.0028211 

-0.0519707 -0.0220605 -0.222468 
-0.0191542 0.018902 -0.122254 
0.0323412 -0.0261258 0.229339 

-0.01589 0.00882917 -0.0271822 
-0.00928658 0.0130548 0.0118747 
-0.00075042 -0.00104581 -0.00766775 

-0.0113774 -0.063301 0.0667695 
0.0894252 -0.000878948 0.185384 
0.00360366 0.00140726 0.0471761 

-0.0137311 0.0146256 -0.0180614 
-0.0199159 0.00209457 0.056767 
0.000683782 -0.000619104 0.0128915 

-0.0590585 0.0197171 0.0916726 
-0.000863084 0.00299606 -0.0262719 
-0.00132359 0.00314669 0.101154 

-0.112035 0.0924989 -0.129556 
0.0127927 0.0367522 -0.0457181 
-0.00194192 -0.0164957 0.160416 

-0.0236177 0.0139687 0.132397 
-0.0067844 0.00719055 -0.0112433 
-0.0225946 -0.0232042 0.28169 

-0.0158574 0.0100946 0.0184198 
-0.012141 0.0244329 0.0136242 
-0.00252434 -0.000672939 0.0113838 

-0.0409958 0.0118909 -0.164566 
-0.00169971 0.0167583 1.05452 
-0.000348691 0.00215192 0.480381 

-0.0335617 0.0162827 -0.00181136 
-0.00934706 0.00985941 0.166805 
0.000227958 -7.34831e-05 -0.000200355 

-0.0378509 -0.0277311 0.0618435 
-0.0403696 0.00823913 0.0123932 
-0.017373 -0.00567191 0.247534 

-0.020713 -0.00108114 -0.131302 
0.0125288 0.0409595 0.0695667 
-0.000647658 0.00358417 0.00187185 

-0.0295212 -0.0232872 0.0989134 
0.0336722 0.000555346 0.0123608 
-0.0239682 -0.0245279 0.0369832 

-0.0315352 -0.0157679 -1.46764 
0.00496863 0.000933286 -0.900532 
8.32218e-05 -0.000610887 -0.0653601 

-0.0236899 -0.0237972 -0.0530085 
0.00590699 0.00832606 0.00719473 
0.00084601 0.000644808 0.0625399 

-0.0721361 -0.00861424 -0.0415493 
0.01718 0.058085 0.0833828 
-0.00369329 0.00763605 0.0478086 

-0.017681 -0.027813 -0.193168 
0.02465 0.00479589 0.177864 
0.000388078 8.52864e-06 0.0498074 

-0.0586644 0.0259823 -0.0036984 
-0.0257942 -0.00749897 -0.0207453 
-0.00042694 -0.00255791 0.108118 

-0.0326945 -0.000562499 -0.00526394 
-0.00641568 0.0232698 0.16967 
0.000179448 -0.000499056 0.013043 

-0.0298994 0.0156618 0.00626985 
0.00811357 0.0342465 -0.0308252 
-0.000342271 -0.00118556 -0.0131652 

-0.0203474 -0.117588 0.025224 
0.0600661 0.0210266 0.0708111 
0.0236706 -0.00368506 0.0381571 

-0.027341 0.00953068 0.0859652 
-0.0140343 0.0184221 -0.10704 
-0.0152838 0.00973867 -0.115501 

-0.0215369 0.00669418 -0.0158923 
0.000287867 0.0132145 0.028544 
0.0015643 -0.00209791 0.0289698 

-0.0138997 -0.0290362 -0.0208197 
0.0125904 -0.0191501 0.0180496 
0.0226106 -0.0299017 0.423197 

-0.0438381 0.00653974 -0.0258999 
0.0189377 0.0145224 0.0622045 
0.00431773 -0.0175448 0.0527471 

-0.0311489 -0.00939795 -0.0262881 
0.0122962 0.0165097 -0.0638046 
-0.0191892 0.0102538 0.0994678 

-0.0292782 -2.40816e-05 0.0819298 
-0.0107893 0.00637921 0.124927 
0.00153733 -0.000856362 0.00138195 

-0.0311662 -0.0150577 0.269853 
0.00588931 0.0190546 0.82904 
0.0053829 0.0135649 0.274053 

-0.0194204 0.0112515 -0.121713 
-0.0160533 0.0128511 0.0379235 
-0.000538643 0.000298533 0.0120987 

-0.0571115 -0.0587977 -0.306291 
0.0978517 0.0214617 0.0637326 
0.0226966 0.0162606 0.259532 

-0.0481699 0.00979672 0.176418 
-0.0127932 -0.003122 -0.0157363 
-0.00332336 0.00395407 0.0556203 

-0.0223071 0.0169382 0.0570755 
-0.0465529 0.0136475 0.0394242 
-0.0141563 -0.00378957 -0.0360705 

-0.0133665 -0.0169756 0.0341289 
0.0245115 0.00857282 -0.00680287 
0.000663482 -0.000839833 0.00762861 

-0.136097 -0.0430158 -0.157414 
-0.0563548 0.090851 0.109446 
3.76026e-05 0.0001642 -0.00708966 

-0.0310076 0.000798704 -0.484391 
-0.0105663 0.0248106 0.385539 
-0.0049136 0.00340561 -0.00664399 

-0.0417883 0.00396017 0.0240005 
0.00101167 0.0220512 -0.0389451 
0.00147133 0.000197245 0.00474003 

-0.043577 -0.0165795 0.0953066 
0.020103 0.0222794 0.0761765 
-0.000651635 -0.000376966 0.0490652 

-0.0465155 0.0222592 0.197884 
-0.0216322 0.0143086 0.0206929 
-0.00770965 -0.00567854 0.334417 

-0.0332139 0.0190156 0.536316 
0.000506985 0.0129896 -0.214577 
0.00418541 0.00295744 0.0736337 

-0.0372312 0.0158462 -0.0320178 
-0.000331914 -0.002386 -0.00448614 
0.0197784 -0.0044306 0.0925389 

-0.143613 0.01176 0.380954 
0.133624 0.10831 -1.45875 
-0.00967382 -0.00549135 -0.0398846 

-0.0259578 -0.00157439 1.32604 
-0.000489292 0.00932059 -0.0844005 
-0.000334971 0.000153033 0.661536 

-0.0799346 -0.00150856 0.721375 
0.0113626 0.122383 1.03881 
0.0052699 -0.0174327 -0.00056758 

-0.0608815 0.0130154 -0.0926582 
-0.0138144 0.00974932 -0.0108646 
0.00537414 -0.00188372 0.0175334 

-0.0471821 0.0124715 0.604207 
-0.0227796 0.019725 -1.2592 
-0.000690161 0.00372753 0.327818 

-0.0428152 -0.0377501 0.14971 
-0.00934549 0.00829149 0.0805904 
0.013039 0.0177995 0.0179577 

-0.0270822 -0.0507075 0.156314 
0.00493484 0.0371478 0.218131 
0.00200516 0.00122651 -0.00129475 

-0.0665601 0.0100219 -0.439144 
0.00189648 0.112323 -0.753077 
0.000313738 0.011586 0.00670747 

-0.0540328 0.0279321 -0.342275 
0.000333288 0.0297906 -0.33652 
0.000391467 0.000562544 0.0439786 

-0.0846393 0.0304118 -0.0236476 
-0.042756 0.0120596 0.054794 
0.00648898 0.00132232 0.1086 

-0.0077967 -0.0114314 -0.0107564 
0.0288043 -0.00495936 0.016371 
0.00158315 0.00120974 0.0285991 

-0.0430268 -0.00448361 -0.0027466 
-0.0125724 0.01157 -0.0417483 
0.023954 0.0713129 0.397919 

-0.0269748 0.00816148 -0.0377154 
-0.000353078 0.00859239 -0.0286478 
-0.00294077 0.0023642 0.0276848 

-0.0312042 -0.0015506 -0.21144 
0.00220801 0.0115059 0.0192839 
0.00244285 0.00704236 -0.0220222 

-0.0223415 0.00211571 0.0705293 
-0.0119419 0.0101449 0.0406746 
-0.000121482 -1.93564e-05 -0.0100772 

-0.00944821 -0.00156159 -0.0956059 
0.017529 0.0291217 -0.141619 
0.00153519 0.0104821 -0.0169011 

-0.00309155 -0.00931595 -0.0866163 
-0.0228937 0.00981662 0.129729 
0.000376917 -0.000843402 0.000429479 

-0.029153 0.00180609 -0.122158 
0.0103 0.0294843 -0.21143 
0.00898108 -0.000273944 0.121581 

-0.0343161 -0.00147196 -0.0475791 
-0.00703299 0.010515 -0.0487214 
-0.0137881 0.00412701 -0.0108848 

-0.0347474 -0.0107497 0.128875 
-0.0176805 0.0217602 -0.301398 
-0.00242236 0.00137538 0.0116818 

-0.0477907 -0.055585 -0.0936781 
0.0715911 0.0104979 0.0949748 
-0.00134157 -0.00038484 0.0298558 

-0.0299139 -0.0169214 0.0304709 
-0.0102858 0.0053337 -0.0254052 
0.0060828 0.00334674 0.0417276 

-0.0279286 0.019168 -0.0540119 
-0.00739433 0.00579741 0.301463 
0.0050959 -0.000370382 0.0292314 

-0.0409724 0.0170795 -0.0336328 
-0.00231274 0.0128665 -0.0101139 
-0.00768962 -0.00639665 -0.00247499 

-0.0130108 -0.0109412 0.033488 
0.00686237 0.00268003 0.000606174 
0.0011782 0.000100044 -0.0202388 

-0.0351946 0.0247666 -0.0166405 
-0.0921037 0.0150376 -0.0878311 
-0.00391703 0.00347413 0.0368028 

-0.0181653 -0.00879131 0.0300285 
0.000349325 0.00844719 -0.0221648 
-0.000911695 -0.000552227 0.00183962 

-0.0335919 0.0027986 0.245097 
0.00225134 0.0129842 0.530783 
-0.000741408 -0.000394892 -0.0947621 

-0.0636808 -0.0185096 0.0531576 
0.0529981 0.0347517 -0.0715547 
0.0341844 -0.00953869 0.0867608 

-0.0337695 -0.0033578 0.0387104 
0.00712989 0.00959467 0.0229557 
0.00349241 -0.00344378 -0.00249449 

-0.0278268 0.00849102 0.332779 
-0.00972393 0.0161708 0.37485 
6.49275e-05 0.00355669 0.0617797 

-0.0473167 -0.0186291 0.0437002 
0.042486 0.0147136 -0.0245978 
0.00392811 -0.0487905 0.0623886 

-0.0339946 -0.01426 -0.00846721 
-0.0128549 0.0241318 0.0238034 
0.0024289 0.000935174 0.0109498 

-0.0711467 0.0148148 -0.0589604 
-0.00368176 0.00636086 -0.0996678 
0.00337691 0.00638775 0.136347 

-0.0294771 -0.0265726 0.0462025 
0.0329793 0.00105513 0.0860378 
-0.000202207 -0.00380104 0.0584253 

-0.0441716 -0.0302111 0.0246226 
0.0372666 0.018184 0.00955587 
-0.000289432 0.00102236 0.0104917 

-0.132625 -0.0629169 -0.283815 
0.0760434 0.0489501 0.299531 
0.00576731 -0.011679 0.170201 

-0.0352099 -0.000533754 -0.248752 
-0.0109138 0.0274896 0.279077 
0.00558653 0.00125427 0.147733 

-0.0214896 -0.0619081 -0.144554 
0.00671771 0.0213067 -1.19058 
-0.000311094 0.00210523 0.176565 

-0.02538 0.0275889 -0.123411 
-0.0303261 0.0242815 -0.0463564 
0.0375837 0.00803234 0.40314 

-0.0200311 0.0301733 -0.0484428 
-0.0189859 0.0200964 -0.279601 
-0.0249669 -0.0125024 -0.0258029 

-0.011683 -0.00947975 0.140431 
-0.0102365 0.0266314 0.00027394 
-3.95758e-05 0.000204855 0.00313205 

-0.0359339 -0.00484241 -0.044709 
-0.00344925 0.0182836 0.0401651 
-0.000189415 0.00133221 0.0154322 

-0.0474762 -0.00313639 -0.0844518 
0.0340808 0.00704706 -0.0965467 
0.00121915 0.000667257 0.0820452 
