# vtk DataFile Version 3.0
Output file generated by Yade's KinematicLocalisationAnalyser
ASCII
DATASET UNSTRUCTURED_GRID

POINTS 13483 float
443.99 47.1576 -0.556593
522.641 81.0691 0.53632
108.085 6.15688 -0.601076
552.201 12.6373 -0.366311
380.481 9.22139 0.68654
272.448 45.5816 -0.527317
138.085 8.74069 0.552081
431.493 10.1879 0.146702
395.349 58.8641 0.153732
505.19 12.4403 0.589719
186.373 8.7475 0.154057
227.515 6.997 0.32857
470.059 74.9608 -0.155554
462.009 47.7575 -0.0941623
121.794 20.8653 0.545749
194.07 36.1358 0.420738
193.457 13.2655 -0.321016
254.203 13.1719 0.656769
296.647 49.697 -0.469689
396.51 11.0472 0.577247
337.353 54.2369 -0.113302
419.582 76.618 -0.255338
547.677 50.1076 -0.558804
513.451 91.1004 -0.429058
372.333 36.9135 0.324635
211.716 48.6649 0.135634
389.625 64.0782 -0.485034
439.417 23.5915 0.400569
40.5583 16.6296 -0.292408
498.438 32.7179 0.448671
376.852 11.9544 -0.331681
14.2157 23.5825 0.42445
533.311 84.6963 0.26845
383.194 2.26681 0.709822
70.6353 47.8758 0.109101
399.386 50.0903 0.545808
401.41 19.5955 0.648941
292.937 24.9814 0.260301
403.448 31.3399 -0.333074
293.643 38.5561 0.422647
213.155 15.4658 -0.429488
349.209 50.1622 0.0820506
466.718 7.54093 -0.149269
169.705 6.13373 0.455401
50.2357 7.52072 -0.0815881
61.6485 9.38049 0.231695
478.508 10.1277 -0.640965
20.9474 12.7805 -0.32678
431.809 79.0225 0.354767
495.241 72.1089 0.328458
152.666 34.9466 0.490188
522.355 63.5134 -0.135019
30.8265 29.898 0.135428
403.571 5.19151 0.489825
127.708 9.43956 -0.595795
437.244 47.855 0.455955
399.983 64.875 0.112888
153.48 0.955132 -0.308967
28.9105 2.26342 -0.392612
296.101 19.8755 0.336447
437.233 90.2427 -0.131507
359.933 64.2412 0.171186
336.95 1.03853 0.253251
488.644 8.92753 -0.568066
24.5013 46.0343 0.254618
226.574 33.4846 -0.361305
505.197 7.68863 0.32656
482.956 97.9794 0.358717
351.939 11.7045 -0.557495
432.029 3.5447 -0.642691
511.597 47.5902 -0.499578
117.777 9.25416 0.282814
395.51 62.7269 0.120102
380.921 47.6871 -0.100425
259.372 20.674 -0.364981
18.3924 14.7329 0.375073
543.517 80.0621 0.323133
287.958 53.2644 -0.281937
493.904 60.0121 -0.397958
478.225 13.8611 0.383704
547.2 17.3683 0.42763
362.964 66.7804 0.168292
83.9876 42.2492 0.309209
499.782 86.7447 -0.247096
462.734 80.9517 0.107145
553.511 61.1184 -0.249721
541.313 4.02763 -0.728134
255.963 34.2532 0.529782
465.217 31.0746 -0.127226
22.1316 6.46871 -0.671764
119.109 44.9004 -0.182628
390.587 21.5247 0.274952
541.54 66.1602 -0.511494
172.651 29.8825 0.239904
40.1383 35.9893 0.300863
382.477 1.07139 -0.187115
209.173 9.43822 -0.475533
506.626 60.5134 -0.31476
529.767 59.1603 0.308591
306.259 24.4762 -0.316899
145.217 30.5979 -0.521266
409.645 59.0975 -0.471209
322.458 18.2705 -0.501648
337.792 39.839 -0.111944
320.904 7.64202 0.465556
414.526 11.7439 -0.199038
553.502 20.7744 -0.210391
72.9511 42.0046 -0.473256
285.864 7.0766 0.214375
425.355 9.5322 0.474416
304.209 52.652 0.445703
22.1888 26.4459 -0.527217
27.4662 6.12541 -0.302029
421.069 46.7213 0.595215
394.83 46.0147 0.199517
22.6629 41.1628 0.452475
85.1622 32.7535 0.215784
282.132 23.1362 0.339101
447.651 29.835 0.154964
372.643 74.0326 0.2894
519.055 10.1516 -0.492743
513.281 6.63505 -0.217251
322.069 50.1002 0.126985
458.634 62.9072 0.131111
213.031 18.2158 0.499631
284.094 6.6198 0.644871
93.0797 33.0421 0.382043
105.069 27.2405 -0.359396
407.745 55.8802 0.0567075
269.394 23.9964 0.546247
492.536 38.3075 -0.164629
487.85 98.5512 -0.104935
382.367 56.126 0.398021
541.905 48.9794 0.325706
353.36 35.1138 -0.237729
244.718 27.1417 -0.386103
494.238 82.8277 -0.324379
245.643 32.7538 -0.398989
439.542 13.1306 -0.353366
290.106 50.552 0.188704
384.74 19.7285 0.506756
311.364 37.5235 -0.109358
354.965 27.5521 0.0962017
277.149 55.397 0.440253
169.59 31.703 -0.115905
525.879 77.2374 -0.156705
551.183 22.4976 -0.417061
5.76304 13.2422 -0.464287
356.301 34.5667 -0.462138
34.387 24.1519 -0.104377
320.164 35.899 -0.571616
329.305 36.1992 0.241342
68.5988 12.325 0.540839
47.3434 34.3682 0.434306
202.887 16.1604 0.472538
440.118 67.1185 0.439116
436.653 25.9945 -0.460281
68.1175 23.2449 0.515042
517.359 91.6373 -0.411138
531.335 2.52753 0.633971
477.84 90.8453 -0.457702
485.595 2.41387 -0.566455
418.545 30.8332 -0.504407
419.139 71.7863 0.579036
392.271 25.3153 -0.570092
551.634 5.56781 0.49053
199.808 26.9151 0.153088
114.84 41.9895 -0.218669
220.762 6.95352 0.477509
84.6517 4.91651 0.258907
58.5306 11.8154 0.240318
243.663 40.971 0.353886
14.6369 25.4163 0.591663
422.492 21.7575 -0.536336
435.352 74.5652 -0.194126
371.476 50.7867 -0.33205
552.149 89.6844 0.365431
346.997 8.96238 -0.13559
352.64 53.9873 -0.46145
408.506 3.13048 -0.220698
19.5973 25.5583 -0.48778
443.015 4.19522 0.532003
415.637 3.97897 -0.26246
184.853 11.1561 0.499228
351.777 27.744 -0.264909
271.602 6.51545 0.407126
331.118 21.735 0.413589
498.834 51.04 0.166846
172.045 26.5444 -0.490171
534.247 15.1424 -0.448693
501.549 48.4583 0.422466
327.634 11.2088 0.243751
504.504 2.16845 0.461634
448.495 38.4648 0.562332
520.462 22.4594 -0.493551
329.518 64.7243 -0.26657
381.366 23.7092 -0.543567
364.288 78.5054 -0.225579
368.224 17.8453 0.153792
481.709 91.3281 0.253757
480.312 87.1159 0.29258
172.925 41.6696 -0.394626
545.395 18.0095 -0.244599
419.596 73.2678 -0.267668
10.7429 18.6537 0.192035
336.233 33.0434 0.383783
167.571 23.2458 0.465853
85.6593 42.9371 -0.227313
540.727 62.8595 -0.458997
472.952 93.5004 0.219682
282.106 36.9437 -0.376016
407.396 10.8362 0.565532
75.5237 47.678 -0.214142
221.042 28.258 -0.485208
426.045 27.6959 0.512564
392.123 54.7491 -0.453184
235.633 0.91032 -0.404324
412.165 65.4401 0.456729
410.803 49.6979 -0.553678
383.703 70.9952 0.377209
383.989 8.30004 -0.636051
489.605 20.6745 0.449194
159.905 12.7777 -0.192864
403.599 75.105 0.419705
419.443 55.5619 -0.138205
67 0.98765 0.359445
225.866 5.64955 0.22235
550.481 27.6794 -0.272342
546.833 19.1269 -0.518145
553.996 28.9536 -0.667899
267.255 10.8487 -0.409788
519.334 36.0518 0.563337
336.437 59.2432 0.345905
368.811 1.86534 0.681918
468.07 82.1023 0.421823
23.5845 32.8556 0.361682
289.103 56.578 0.51475
226.544 3.77303 0.473639
537.97 83.4737 -0.179509
516.363 102.399 0.229111
255.784 15.988 0.233456
488.678 82.1325 0.0863334
427.215 2.44906 0.399675
413.707 7.67657 0.53613
88.5434 19.0332 -0.534686
266.356 0.911848 0.315967
294.781 2.14178 -0.442089
12.6502 7.81915 -0.609785
3.99664 32.2349 -0.247344
144.695 21.74 0.447965
62.474 44.5183 0.240309
60.6385 31.73 0.307999
352.837 24.7569 -0.606841
313.957 41.259 0.49416
519.414 64.575 0.150594
18.2393 4.3103 -0.267163
64.3921 7.24789 -0.185509
445.913 72.1377 -0.158741
259.373 0.88289 -0.39596
311.766 19.2293 -0.146364
211.445 5.28374 -0.388011
480.658 69.4872 -0.229457
367.184 13.2232 0.45113
520.769 37.78 0.593211
456.117 65.4862 -0.290207
493.729 56.0383 -0.110253
347.433 37.5057 0.557177
92.4691 50.4036 0.304234
417.538 86.1471 -0.0685327
523.676 17.9481 0.165941
213.934 34.9252 -0.250432
28.6892 18.7778 -0.221002
290.375 15.4881 0.513316
97.1629 44.0054 -0.584809
237.096 48.9703 -0.204635
361.618 4.52208 0.3171
544.839 73.28 0.401104
480.8 0.692231 0.672805
285.191 4.06108 0.504381
264.961 34.8605 -0.218763
365.247 74.5303 0.2092
74.4178 9.682 0.527843
178.003 49.345 0.377358
531.142 62.402 0.35625
398.656 77.7943 -0.0669349
179.411 43.6566 -0.292693
145.152 47.5244 0.472643
556.655 55.0675 -0.555754
552.895 22.4635 -0.663989
460.289 19.3568 -0.664206
170.912 25.0682 0.144392
420.776 32.3578 0.167916
422.67 32.3851 -0.298407
351.664 6.61446 -0.195478
380.185 2.43035 -0.702147
516.976 67.5735 -0.529295
78.8076 33.8651 -0.260091
485.597 66.0547 -0.440731
245.181 17.0866 -0.556182
8.30277 2.57839 -0.352791
114.274 44.0102 0.183694
61.7131 25.0218 0.619071
486.478 41.4508 0.395727
537.585 92.191 0.194951
166.588 29.085 0.209347
548.171 24.595 0.527377
41.6377 38.1235 -0.276395
83.9688 31.1986 -0.157984
470.463 50.6573 0.432258
344.238 26.9049 -0.653033
399.644 21.1546 -0.128028
214.513 33.0295 0.21352
466.573 17.6123 -0.6481
554.093 22.7025 0.374043
26.0066 33.6562 0.308414
242.506 8.19918 0.202047
200.427 17.1447 0.251875
1.29855 37.6866 0.116359
203.695 17.3171 -0.381669
191.019 11.1971 0.154555
192.144 27.6218 -0.356999
119.289 32.7552 0.128766
419.151 16.6914 -0.475192
148.512 15.6218 -0.346857
532.569 81.3065 0.242595
155.323 3.86568 0.524375
43.7561 39.4419 -0.459868
504.163 70.2216 -0.481956
249.991 36.1546 -0.42059
497.886 68.0832 -0.433147
549.844 76.4691 0.461832
266.364 12.5272 0.156167
510.659 37.2331 -0.449669
283.948 2.4878 0.53536
344.337 34.3767 -0.361902
472.449 22.1246 0.504117
96.626 12.4585 -0.553964
381.579 5.16436 -0.569056
523.331 38.1053 0.230065
80.1983 8.20694 -0.291334
251.091 19.0977 -0.21026
354.185 21.1998 -0.479904
552.515 2.25562 0.621157
341.644 1.74523 -0.647946
160.289 40.6891 -0.311777
525.741 18.0403 0.333416
116.79 42.6278 0.224307
234.395 33.6972 0.504165
340.902 22.0403 0.338989
441.251 15.7422 0.434974
330.843 10.3709 -0.556488
364.419 60.4917 0.471979
521.767 78.5051 0.412755
43.5698 12.3057 -0.24665
262.975 48.0215 -0.276158
324.767 31.0872 -0.45545
340.741 27.4028 0.311775
415.948 75.1426 0.382455
515.408 62.2511 -0.208244
486.305 87.8753 0.348901
202.172 36.9235 -0.391636
12.2842 34.3769 0.196818
478.285 87.2614 -0.119446
413.631 78.3121 0.433916
205.218 42.5203 0.110764
503.29 78.9852 -0.109681
136.265 11.6587 0.300864
314.475 24.7522 0.303146
365.357 76.6358 0.0991622
344.329 28.3666 0.363624
523.064 86.7897 -0.342829
357.708 12.2746 0.496703
45.4515 26.3885 0.224072
375.912 67.02 0.336963
353.579 60.8162 0.345594
537.943 76.0857 -0.238839
509.63 34.4684 -0.298363
415.636 22.3198 -0.188404
530.886 72.6598 -0.410078
260.829 4.02892 -0.584416
323.971 35.4526 -0.549058
25.6637 41.0247 -0.329212
507.294 42.4518 0.155339
451.632 44.1021 0.587608
371.078 3.09393 -0.537731
115.419 5.96239 -0.32776
347.085 54.3069 0.106753
10.7716 0.867494 -0.307616
550.577 7.30196 -0.333507
313.099 52.1586 -0.437454
462.418 29.2509 0.462003
[...]
POINT_DATA 13483
TENSORS Strain_matrix float
-0.0111571 -0.0284509 0.0988818 
-0.00808566 -0.00628548 0.307911 
0.00156872 -0.000395587 -0.0712106 

0.0220429 0.0323941 0.0349878 
0.0257657 -0.0418209 0.108275 
0.005072 0.00263633 0.108468 

-0.030874 -0.013646 2.56977 
0.0613012 0.0131511 -1.74706 
-0.00492124 0.00447525 0.209246 

-0.155357 -0.00747744 -0.46186 
-0.0299342 0.0512882 -0.205415 
-0.0285342 -0.0133754 0.119828 

-0.200422 -0.433637 1.80258 
-0.0147907 0.238721 -0.102094 
-0.00734764 0.00338332 0.383424 

0.027877 0.00256845 -12.4664 
0.132916 0.023307 -5.96872 
-0.00955782 -0.0132978 0.664116 

-0.123345 0.103683 -1.01625 
-0.155227 0.133824 0.634619 
0.00684688 -0.00540418 0.288009 

-0.0273057 -0.04297 0.100646 
0.123795 -0.00738179 -0.0719989 
-0.0159587 -0.0117723 0.0965118 

-0.0376372 0.0757386 -1.04794 
-0.113529 0.123096 -1.07907 
-0.0164535 0.023763 0.0485453 

0.0134404 0.0228455 0.120785 
0.00866832 0.0177752 -0.0621823 
-0.00228625 -0.0040027 -0.0106677 

-0.0139971 -0.0176983 0.0137555 
0.0193851 0.00283073 -0.00523042 
-0.000468877 -0.00106356 0.0253245 

-0.00674082 0.00680386 0.00719983 
0.0125443 -0.000618302 0.00107675 
-0.000315643 0.000306384 0.00974245 

-0.0189306 -0.0785894 0.0542063 
0.0723903 0.0182575 0.0232692 
-0.0603849 -0.0191347 0.230133 

0.00380221 -0.0214755 0.00818801 
0.0273009 0.00618774 0.00383941 
-0.000464287 0.000554294 -0.0172064 

8.38085e-05 -0.0296496 0.0922582 
0.0973718 0.0365766 0.186976 
-0.00314717 0.0112112 0.273575 

-0.0388722 -0.0196628 0.36512 
0.149031 -0.0119721 0.0877869 
-0.00250871 -0.0110624 -0.153497 

-0.0170066 -0.0011291 -0.0289342 
0.00551424 -0.00186005 0.0289447 
0.00651594 0.0362926 -0.0412267 

-0.153437 -0.0148354 -3.12015 
0.187786 0.117726 -1.87246 
0.00207415 -0.00198054 0.537646 

-0.307043 0.103409 15.5239 
-0.350658 0.327176 1.61182 
-0.0067984 -0.0210536 1.28952 

-0.0517863 -0.151996 -0.300745 
0.0569006 -0.0163261 -0.286383 
0.0303859 0.00709457 -0.0112859 

0.0759865 -0.243572 -0.163291 
0.348654 0.00925443 -0.607062 
0.0456022 0.0508235 0.4528 

-0.664521 0.485256 -2.20688 
-0.70869 0.983943 -0.748041 
0.0368522 -0.0152384 0.587068 

-0.251594 -0.0507525 -0.43918 
0.319568 0.157415 0.838913 
0.010592 -0.00176511 0.26457 

-0.0129401 0.0654563 0.115853 
-0.0990188 -0.00383718 -0.061026 
0.0161962 0.0110475 0.589655 

0.016814 -0.2112 -0.226684 
0.123325 0.0320574 -0.011924 
-0.00118311 0.00418475 -0.0127194 

-0.00234333 -0.0376161 -0.000958878 
0.0372714 0.00157386 -0.00670073 
1.21904e-05 8.50869e-07 0.00443542 

0.0108287 -0.0193597 -0.0797031 
-0.00234879 0.0129419 0.105892 
-0.000708093 -0.00154824 -0.00241918 

-0.0715502 0.00495558 0.210395 
0.0572215 0.0499371 -0.432098 
-0.00243925 0.00284736 0.0412742 

-0.00981927 -0.0181151 0.010661 
0.00891419 0.00831583 0.00707654 
-0.00145238 -0.000805425 0.011477 

-0.094574 -0.0641309 -0.0331156 
-0.019442 0.119256 -0.0932841 
0.0582532 0.0722291 0.000559679 

-0.632012 -0.550742 -0.845995 
0.00913628 0.39665 0.977842 
-0.0270847 -0.0268994 0.231902 

-0.100639 -0.00977092 0.182268 
-0.0802868 0.0470992 0.0411025 
0.0195084 0.00156184 0.0686621 

-0.0176056 -0.0291578 -0.0666531 
0.0366234 0.0141006 0.0724326 
0.00151062 -0.000427468 0.0313263 

-0.138858 -0.279119 54.5238 
-0.00232273 0.00718785 3.12852 
0.000200272 -0.00272715 0.226554 

-0.0152149 -0.0376494 -0.0295243 
0.0265807 0.00103375 0.0287652 
-0.00546539 -0.0201316 0.0830187 

-0.312412 0.248009 -0.286386 
-0.940235 0.347823 0.421632 
0.0228556 -0.0918025 0.0822371 

-0.0382923 0.0458908 -0.0503145 
-0.205549 -0.00968717 0.367946 
0.00242988 -0.0123499 0.0561509 

0.00922298 0.0689993 0.0136718 
-0.124278 -0.0192018 -0.0289425 
0.00424697 -0.00330064 -0.00585338 

-0.00113016 0.00113669 0.000188417 
0.0415874 -0.0253774 -0.0617698 
-0.001367 0.00521342 0.00619242 

-0.934964 0.622232 14.0101 
-1.2649 1.05856 20.4999 
0.0403634 0.0803906 -1.65237 

-0.0644158 0.0895024 -0.376751 
-0.11883 0.0395231 -0.230081 
9.13608e-05 -0.00134186 0.112622 

-0.269456 0.0218193 0.714413 
-0.145887 0.0720361 -0.342709 
-0.0290966 0.0912771 0.520869 

-0.0043108 -0.00430312 0.00116123 
0.00510268 0.019222 0.000367227 
-0.00173805 -0.000556646 -0.0114265 

-0.0177989 0.00944883 0.0697904 
-0.0223071 -0.017241 -0.00345435 
0.0023278 0.000769516 0.0316681 

-0.0259845 -0.0215605 -0.011149 
0.015272 0.0236353 -0.0281888 
-0.0206936 0.00524249 0.0888303 

-0.0192357 -0.00254881 -0.0869502 
0.0180433 0.0250132 0.191674 
0.0100959 -0.00315545 0.0718653 

0.0174214 -0.0142241 -0.0181614 
-0.00927278 0.0059229 0.0574102 
0.00389096 0.00463511 0.0138863 

-0.00559634 -0.000781644 -0.00611205 
-0.00040969 -0.0170359 0.00794522 
0.000695403 -0.000164604 0.0268269 

-0.0160028 0.0125311 0.405248 
0.0464971 0.00066818 -0.138182 
0.0161121 0.00417831 0.170066 

-0.000246553 -0.106519 -0.129108 
0.121428 0.0335511 0.0782821 
0.0215759 0.00720764 -0.0316273 

-0.0789999 0.0709773 0.148211 
-0.164406 0.0389663 -1.04988 
-0.0134439 0.00609467 0.21089 

0.00699229 -0.0127671 0.00130004 
0.0122421 -0.00368994 0.00509437 
0.00042308 0.000496655 -0.00134 

-0.00770499 -0.0401089 -0.0109313 
0.0202008 0.00618285 -0.00929272 
-0.000424282 -4.42342e-05 0.00817691 

-0.166064 0.0911814 0.198695 
0.0621712 0.17945 -0.230463 
0.0267597 -0.0331539 0.181541 

-0.161243 -0.0133996 0.617584 
0.130457 0.0652341 0.0764332 
0.03471 -0.0384722 0.440093 

-0.0224875 -0.0485217 0.153213 
-0.0107138 0.0115315 -0.112785 
-0.0263246 0.00247398 -0.129433 

0.00423912 -0.0502528 -0.22619 
0.0297106 0.0711258 0.0208421 
-0.00558212 -0.00782139 -0.0896964 

-0.0319561 -0.331942 -0.0529945 
0.00863973 0.0289515 0.0507569 
-0.000102252 0.00191876 0.0059622 

-0.00573446 -0.00357523 -0.000597125 
0.00135609 -0.00155299 0.00907492 
0.000352409 0.00103393 0.00895124 

0.0458795 0.0190057 4.23096e-05 
-0.0592847 -0.0185469 0.0148067 
-0.00285704 0.00136208 -0.0166299 

-0.741356 0.684336 -0.947514 
-0.320497 0.995141 -0.964051 
0.00226385 0.0880916 0.893275 

0.0205024 -0.030956 0.0124006 
-0.015881 0.0117177 0.625987 
-0.0206714 -0.0101283 0.227506 

-0.0290174 0.0497413 -0.0383649 
0.00314076 -0.00797703 0.00611733 
0.000825239 0.0103385 0.0478797 

0.00486914 -0.00880284 -0.00471263 
0.00780101 -0.00286507 -0.0123366 
-4.15457e-05 -2.5867e-06 0.00180414 

-0.0326245 0.106467 -0.0326559 
-0.308848 0.131328 0.0742826 
0.0290949 0.0715114 0.0697725 

-0.196479 0.213677 0.20711 
-0.2091 0.109677 -0.0114533 
-0.0304746 0.0647696 0.167846 

-0.00566432 0.0359378 -0.0129615 
-0.00898107 0.0157392 -0.0146752 
0.000394019 -0.000600283 -0.00477526 

0.0212827 -0.140206 -0.0823387 
0.0862159 -0.00519157 -0.0346422 
-0.00961025 0.00329753 -0.169355 

-0.495332 -0.292524 1.85311 
0.473104 0.477291 -1.16869 
0.0130342 -0.0599931 0.559981 

-0.00679325 0.0140388 0.119908 
0.0187706 -0.0487045 -0.0143894 
0.00107149 -0.000320983 0.0359239 

-0.00661718 -0.0677235 -0.0307986 
0.0860393 0.00775064 -0.00464059 
0.000530604 0.0026553 -0.00458726 

-0.0465744 -0.0598078 -0.0701892 
0.0618261 0.0281421 0.194646 
0.0415161 -0.00176475 0.419389 

-0.00463009 -0.0301465 -0.0152424 
-0.0629301 0.0150912 0.121599 
-0.00303671 0.00434859 -0.00777546 

0.0075361 0.0337012 0.0532761 
-0.0684564 -0.00248756 0.0480283 
0.00226497 -0.00640065 -0.0182978 

-0.0155963 0.0537117 -0.192865 
-0.0169731 0.0154385 -0.200962 
0.00522 -0.00102059 0.078873 

-0.00956348 -0.00192407 -0.0398359 
-0.00358209 -0.0169418 -0.0211901 
0.00139192 -0.000305395 0.0191224 

-0.0108938 0.0162563 -0.0475176 
0.0110144 0.00746712 0.0441321 
-0.000274027 -0.00101118 -0.0010859 

0.0697718 -0.107078 0.127648 
0.153495 0.0240419 0.0595267 
0.00167188 -0.00155879 -0.0917605 

-0.180993 -0.133214 0.567474 
-0.116263 0.0656004 0.163513 
0.0134126 -0.0289917 -0.00516574 

0.0069016 0.00588587 0.0455323 
-0.013019 0.000564245 -0.0101795 
-0.000869061 0.0014845 -0.00101357 

0.00185995 0.0412615 -0.0296335 
-0.0948487 -0.0218685 -0.284515 
-0.0118249 0.00477121 0.0395043 

0.0251886 -0.000289171 0.295266 
0.0253347 -0.038343 0.508699 
-0.0246598 -0.0529312 0.356528 

0.00501696 -0.0285791 -0.406072 
0.0568492 -0.0102757 -0.164055 
-0.00498404 -0.0316994 -0.0966104 

0.0207783 0.0304355 0.13094 
-0.0391822 -0.00125792 0.078399 
-0.0193871 0.0165898 -0.0119809 

-0.00261666 -0.0806345 0.0110288 
0.0525817 0.00951524 0.0257429 
-0.000169952 -0.00147007 0.0172057 

-0.00977822 0.00426964 -0.00801984 
-0.00587984 0.00102902 0.00160064 
-0.000375029 -0.000269673 0.00818963 

-0.0977634 0.051154 13.8185 
-0.0586343 0.0769627 6.56242 
-0.0143538 -0.0580745 0.344223 

-0.0956336 -0.184261 0.144323 
0.00958306 0.0790593 -0.570167 
-0.0067317 -0.00263963 0.0636604 

-0.00100079 0.00531558 0.00660285 
0.00153173 0.00612148 0.000184036 
-0.0007963 0.000597603 -0.00638594 

-0.0117476 -0.00844102 1.38562 
0.00623254 -0.00274711 -0.622071 
0.000722587 -0.000674571 -0.0560095 

0.0102057 -0.00180017 -0.0210826 
0.0567064 -0.0109535 -0.0308736 
-0.000100288 0.0127883 0.0355652 

-0.00475518 0.000396149 0.00839621 
0.00197384 0.0104504 -0.0130558 
0.000681849 0.000610108 -0.0139114 

-0.00115273 -0.00244838 -0.0228385 
0.00387739 -0.00341525 0.0924507 
1.26907e-05 8.33697e-05 -0.000929731 

-0.0876955 0.0229843 0.35843 
0.0358165 0.13068 0.341845 
0.00595504 -0.00811969 0.075043 

0.00354346 -0.0186673 -0.00475653 
0.000818286 -0.00512002 -0.0156702 
0.00107561 -0.000351058 0.00120523 

0.0265841 0.0378688 -0.0439368 
-0.0205087 -0.0044611 -0.00601978 
0.0031527 -0.00398899 0.00574693 

-0.0478039 0.0350765 0.466129 
-0.0170187 0.0667201 -0.314714 
0.00781143 -0.019179 -0.17964 

0.0455341 -0.0222624 0.0595478 
0.0276162 -0.00243772 0.102019 
0.00129083 -0.000604496 -0.0678552 

0.00617605 -0.0202655 -0.0039964 
0.00834103 -0.00969901 -0.00533452 
-0.000745838 0.000365467 0.00602441 

0.0101833 0.00151694 0.0151438 
-0.00731218 -0.0120783 -0.0144457 
-0.00147263 0.0041991 -0.0321177 

-0.0272191 -0.0193735 1.52654 
-0.0602223 -0.00416209 2.53805 
-0.00580415 -0.00153023 0.078841 

-0.317205 0.0583595 -2.30528 
-0.290938 0.0519674 -1.1882 
0.0559359 0.00249015 0.178622 

-0.0189932 -0.0103292 -0.0722139 
0.00976209 -0.0225318 -1.29344 
-0.000847364 -0.000201618 -0.063769 

-0.14554 -0.225908 -0.0272465 
0.503102 0.244573 0.562688 
0.00277812 0.013443 0.124941 

-0.0182013 -0.0247278 -0.0386848 
-0.0151731 -0.0347051 -0.0876184 
0.00566361 0.00163516 0.0410408 

-0.0148144 0.20122 -0.0406157 
-0.163819 0.0769213 -0.0833097 
0.00467989 -0.0114569 0.0248534 

0.014207 0.118131 0.0160508 
-0.14263 0.0176364 -0.105081 
0.0153437 0.00434533 -0.0612452 

-0.0062282 -0.038352 0.181897 
0.0341191 0.00161058 -0.44574 
0.00179479 -0.0050313 -0.0624493 

-0.0443793 0.0641447 -0.0206723 
-0.117039 0.010689 -0.0580166 
0.00754565 0.00673411 0.0611765 

-0.00422843 0.105892 0.0486499 
-0.0353395 0.00216677 -0.00358818 
0.00898557 0.00431143 0.0183316 

-0.807739 0.56744 12.0555 
-0.41197 0.930648 18.7215 
0.00379933 -0.000226726 -0.774904 

-0.0257353 -0.0196378 -0.338568 
0.0101861 0.0096596 0.00153041 
-0.000613843 0.000988388 0.111912 

-0.00486318 -0.00348338 0.00549507 
0.00780987 -0.00535346 0.00112705 
0.00101217 -0.00124535 0.0128615 

-0.127417 -0.0458021 0.0306767 
-0.125899 0.0429833 -0.643652 
-0.057736 -0.0112642 0.110406 

-0.410923 1.08586 -0.907363 
-0.658323 0.822452 0.28039 
-0.0102391 -0.0241197 0.0103221 

-0.0419794 0.0335736 -0.518296 
-0.247709 0.026465 0.439667 
0.00633331 -0.0366001 1.17159 

-0.0164297 -0.0807195 -0.129422 
-0.0958901 0.0932 0.0123269 
0.0179022 0.132146 0.268778 

-0.80505 0.843736 -0.747124 
-0.741105 0.642481 -1.14636 
0.0457744 -0.00218554 0.116686 

-0.0129927 0.00362789 0.0110465 
-0.00974012 0.0117512 -0.00380378 
-0.00084866 -0.000425989 0.00505674 

0.0553683 -0.00502734 -0.353671 
-0.00524189 -0.0496472 -0.122328 
-0.030013 -0.0124296 -0.509492 

-0.0342547 -0.0211421 -0.0192308 
-0.00641105 0.0346412 -0.0428731 
-0.00611757 -0.00415257 0.00726817 

-0.0110163 -0.00205554 -0.0035253 
0.00679219 0.00809705 -0.0176757 
-0.00135788 0.000486531 -6.34438e-05 

-0.153649 0.118408 0.245443 
-0.132411 0.16891 0.118796 
-0.0179953 -0.0241931 0.0508779 

-0.0312955 -0.000907965 0.115028 
0.0392386 0.022966 0.0154107 
0.000555381 0.013974 -0.0853252 

-0.137139 0.00659224 -0.307695 
-0.128886 0.220482 -1.19844 
0.000684034 -0.00360989 0.0326447 

-0.0661107 0.0360067 0.150129 
-0.0893579 0.00229454 -0.437308 
-0.0134259 0.00208148 0.0436007 

-0.224641 0.0466856 0.374792 
0.165408 0.102501 0.700125 
0.0794452 -0.0162563 0.789462 

-0.0424224 -0.0614006 0.0113156 
0.083399 -0.0274618 -0.131745 
-0.0164922 0.0299292 -0.00132455 

-0.43879 -0.136406 -0.532161 
-0.140261 0.299077 -0.0335496 
-0.00812045 0.0153399 0.0682593 

-0.252217 -0.0153461 -0.51484 
0.381119 0.140603 0.430156 
0.0239487 -0.0105488 0.142687 

0.050434 -0.278724 0.90758 
0.0479307 0.0335411 -0.00750382 
-0.02659 0.0116291 0.0150756 

0.0321104 -0.118694 0.104259 
0.0320945 -0.0282413 -0.200092 
0.0230997 -0.0150999 0.245917 

0.0133614 -0.0131792 -0.0463194 
-0.0141208 -0.0186968 0.0211428 
-0.00871025 -0.00333143 -0.012108 

0.00309192 -0.167961 -0.251499 
0.103936 0.00692999 -0.183884 
0.009874 0.0159226 -0.0411806 

0.033737 -0.109042 -0.0281947 
0.115011 -0.0102207 -0.0123996 
0.00237786 -0.000359775 -0.00562444 

-0.0836293 -0.0633722 0.639138 
0.0680037 0.104361 0.000349831 
0.00530172 -0.0245718 -0.0191402 

-0.033751 0.135315 -0.0206698 
-0.041597 -7.43993e-05 -0.256301 
0.00825598 0.0606665 0.280864 

0.00064216 -0.0989246 -0.0590795 
0.154819 0.025217 -0.141186 
-0.0086382 -0.00223032 -0.0187591 

0.00746531 0.00211676 -0.0135652 
-6.47553e-05 -0.0142147 -0.000676658 
-0.00273847 0.000640976 0.00210779 

0.0452424 -0.101417 0.0710178 
0.121146 0.0272905 -0.0493635 
-0.0222988 -0.012963 -0.0616652 

-0.0247065 0.0154075 0.216485 
-0.0392544 0.0479839 -0.32555 
-0.056743 0.0216271 -0.0243531 

-0.0213161 -0.0674428 -0.0760185 
0.0358743 0.00775556 -0.033464 
0.0322194 0.0213575 0.103582 

-2.33994e-05 -0.183219 -0.00208798 
0.0906396 0.00750021 0.0891335 
0.00432056 0.0045955 0.027839 

0.0481725 -0.0946287 0.607403 
0.172985 -0.0168101 -0.137637 
-0.00216386 -0.0110565 -0.273172 

-0.296172 0.160576 -0.0764491 
0.176974 0.280564 0.506731 
0.00886321 -0.0340986 0.252752 

0.0175726 0.0469389 -0.0040186 
-0.0428615 0.0112701 -0.0957489 
-0.00442941 0.00161402 -0.108889 

-0.0567356 0.000884335 -0.0385633 
-0.0354561 -0.0137705 0.114127 
-0.0180763 0.00265991 0.0454413 

-0.0146317 -0.000773236 0.000196528 
-0.0107774 0.00675109 0.0130234 
0.000581155 0.00107363 0.0226948 

0.0266421 -0.123816 -0.0166413 
0.115914 -0.00482589 0.0706233 
0.000240644 -0.000145979 -0.0115047 

-0.0114212 -0.0242335 0.000659558 
0.00745759 0.0080326 0.00699613 
6.34237e-05 0.00132081 0.0121305 

-0.20305 -0.184443 8.50761 
0.150798 0.153905 -2.79708 
-0.0222587 0.00197108 -0.612663 

-0.902651 -0.337395 1.50679 
0.324699 0.575539 -2.21176 
-0.0510309 0.0143747 0.534752 

-0.0404597 0.0286305 -0.729747 
0.0307629 0.0591003 -0.918553 
0.0061617 -0.0106777 0.143502 

-0.00329611 -0.0213674 0.00538032 
0.0104253 -6.86355e-05 -0.0282439 
-0.000213661 -0.000431069 -0.00425031 

-0.014392 -0.00208717 -0.0266666 
0.0095729 0.0211043 -0.805639 
-0.011693 0.00578786 -0.0721065 

-0.0923443 0.0444902 0.134028 
-0.177049 0.141463 0.0576046 
-0.00712569 0.00222968 0.13387 

-0.058103 -0.0137653 0.105827 
0.0338297 0.0249953 0.151851 
0.0109012 -0.019136 0.09239 

0.00278033 -0.0281312 0.0407325 
0.0479724 -0.00914259 0.0859018 
0.000584374 -0.00141793 0.0181273 

-0.0567793 -0.0414684 -0.221339 
-0.00853064 0.0600632 0.294718 
0.00220566 -0.00133941 0.0343749 

-0.0299492 0.0189775 -0.317636 
0.00403555 0.0213241 0.023636 
-0.00323561 0.00667562 -0.0373019 

0.0134423 -0.0702744 0.0380409 
0.0605282 0.000618686 -0.0217605 
0.00230137 0.00139737 0.0702595 

0.0182497 0.000672861 0.0111529 
-0.0148117 0.00277682 -0.0522921 
0.00259479 0.00205198 -0.00288116 

-0.0664196 0.0171471 0.0500014 
0.068459 -0.00806316 0.00728748 
0.00467556 -0.000696152 0.0227016 

-0.177198 -0.0541554 -18.4562 
-0.163894 0.0310487 -16.3204 
-0.00143127 0.00932165 -0.08756 

-0.00118867 0.0231228 -0.0556855 
-0.00307576 -0.000819908 -0.0472583 
-0.000594887 -0.000453564 -0.000540966 

-0.0447408 0.0395046 0.0460173 
-0.0808913 0.00828215 0.0750133 
0.0111096 0.00391656 0.0388076 

0.0108299 -0.0306565 0.0179542 
0.0456371 -0.0114439 -0.0106429 
-0.00304497 0.00442309 0.0272443 

0.00084433 -0.125293 0.0857033 
0.182582 0.0160049 0.357184 
-0.0136589 0.0318518 -0.00275512 

-0.0101269 -0.0059343 -0.026577 
-0.00825107 -0.0174564 0.18085 
0.00184297 0.00121719 0.0473639 

-0.0106948 -0.00902417 0.134936 
0.0079336 0.0250637 -0.0418938 
0.0235235 -0.00794199 0.100625 

-0.00497415 -0.0116665 0.0137633 
0.0274322 0.00637112 -0.000981503 
-0.00491778 -0.00304984 -0.018278 

-0.0768018 -0.046362 0.200754 
0.196087 0.0637214 -0.185451 
-0.0207418 0.0338511 0.0182527 

-0.0733689 0.0787812 0.72024 
-0.056086 0.0729833 0.918712 
0.0141235 0.0293005 -0.316034 

-0.0587315 -0.0169569 0.429037 
0.0291064 0.0287725 0.00688276 
-0.00499173 0.00265034 1.09313 

-0.0200946 -0.0767356 -0.0135569 
0.0140849 -0.00739955 0.00431249 
0.00122051 -0.00122907 0.0432573 

0.0238515 -0.0659384 -0.065544 
0.0618401 0.0245434 0.13502 
-0.0225268 0.0103543 -0.101945 

-0.00789503 -0.00559229 -0.0257491 
0.00283687 0.0020818 0.0352829 
0.0191322 -0.0335771 0.23202 

-0.0111266 0.018732 0.00697492 
-0.032547 -3.93477e-05 0.00648578 
-0.000578423 -0.000187163 0.0320764 

-0.0598568 -0.0220356 0.0403821 
0.0495142 0.0721754 -1.30187 
0.0295732 0.0195987 0.56849 

0.0112901 -0.0148813 -0.0682983 
-0.0212032 -0.00726228 -0.0572184 
0.0222645 -0.00700118 0.0287699 

-0.000882053 -0.0187894 0.00694614 
0.00672203 -0.00957305 -0.0256693 
-0.00071381 -0.000229368 0.0148091 

-0.00953827 0.000596336 0.0222903 
0.00556452 0.00460183 0.0629011 
0.000699321 -0.00437534 0.0602464 

-0.00107607 -0.00249709 0.0265282 
0.0287463 0.00370049 0.10436 
-0.00619663 -0.00647336 -0.0556826 

-0.0175099 -0.00202751 -0.0395091 
0.0158253 0.00505592 -0.264919 
-0.000250682 -0.00177335 0.13587 

0.0486237 -0.199039 0.0490343 
0.171957 -0.00989764 0.082919 
-0.012969 -0.000904174 -0.0194001 

0.00274946 0.317199 -0.110157 
-0.382865 0.134621 0.368135 
0.00731332 0.0100297 0.208686 

-0.0703043 0.0288279 -0.0387802 
0.0583611 -0.0315259 0.00482889 
0.0100992 0.00647096 0.0819994 

-0.0507113 -0.0328883 -0.0789811 
0.0712159 0.0308998 -0.0949853 
-0.00350904 0.0138784 0.0598731 

-0.083887 -0.0832696 -0.406598 
0.0885891 0.0887226 1.04117 
0.0565103 0.00392999 0.402904 

-0.0646314 0.00536927 -0.210855 
0.0284287 -0.0675741 0.55397 
-0.0149577 -0.0116192 0.0462421 

-0.0148376 -0.0138992 -0.0508171 
0.0785664 0.0508027 0.0309246 
-0.000420324 -0.00134164 -0.028246 

0.014579 -0.0313296 -0.0439656 
0.0460661 -0.0493629 0.105664 
0.00192925 -0.0046804 0.106202 

-0.00713233 0.00329014 -0.000346816 
0.0127667 0.00838112 -0.0039699 
0.00230822 -0.00466577 0.0068521 

-0.00555241 -0.0143846 0.051153 
0.00419542 -0.000554335 0.144646 
-0.00112032 0.000487058 0.0112827 

-0.0319889 0.0140279 0.28279 
0.0514333 0.073219 -0.377795 
-0.0294713 0.00726936 -0.00278869 

0.703171 -1.55121 -4.97322 
0.271883 -0.239658 -4.56143 
0.062956 -0.0511159 1.06855 

-0.259848 0.437176 -1.78582 
-0.211651 0.244934 -1.00906 
-0.0271328 0.0438575 0.18408 

-0.000461288 -0.00646229 0.110757 
-0.0672677 0.0298318 -0.0335962 
5.92216e-05 -0.00121246 0.00159643 

-0.750348 0.520699 0.724271 
-0.626495 0.601919 -0.0821134 
0.0545563 0.0694089 0.0607985 

0.00383975 -0.0723679 -0.0229411 
0.0692466 0.00718293 -0.026733 
0.00627717 0.00644747 -0.0268249 

0.00552543 -0.0761378 -0.0145237 
0.0675424 0.00160898 -0.00455897 
-0.000550415 2.10596e-05 -0.00864941 

-0.319789 -0.0189975 -0.107026 
-0.115036 0.252942 0.778255 
-0.0520894 -0.0032516 0.192305 

0.0156915 -0.0327502 0.167225 