# vtk DataFile Version 3.0
Output file generated by Yade's KinematicLocalisationAnalyser
ASCII
DATASET UNSTRUCTURED_GRID

POINTS 13483 float
638.011 27.6864 0.436109
833.401 46.6063 0.542002
124.586 6.07533 -0.443646
875.689 5.88982 0.265969
519.368 7.73575 -0.273296
326.469 34.7572 -0.464128
162.385 6.89093 0.425983
595.694 10.0435 0.144894
516.038 22.9122 0.1492
772.876 12.2421 0.408336
218.381 8.86224 -0.0866549
266.592 6.28759 -0.263748
691.275 28.1167 -0.15779
667.732 13.7987 0.0693251
142.273 17.1331 0.385459
229.687 34.4354 0.403401
225.85 12.8788 -0.288552
299.614 9.56455 0.38944
353.601 32.4976 -0.335099
546.202 8.5226 0.347619
426.52 36.3914 0.0978514
620.001 43.9209 -0.255668
872.314 32.5098 -0.454523
745.464 41.5767 -0.47955
476.792 16.1567 0.286717
249.97 44.0001 0.131358
511.042 27.2525 -0.493834
613.932 19.3753 0.230708
46.9847 15.5166 -0.391751
769.311 31.702 0.257082
501.561 4.92077 0.319202
17.3313 22.8912 0.299515
846.809 45.507 0.25781
515.133 2.48427 0.481789
81.1404 44.1843 -0.100053
543.191 29.9034 0.35697
552.883 16.477 -0.405628
356.949 22.5518 -0.196434
556.244 25.1319 -0.341787
363.972 33.1142 0.455235
250.112 14.6143 -0.298674
451.179 35.391 0.0729743
720.718 6.95923 0.136725
200.159 6.23913 0.366163
57.7119 6.93011 -0.129779
71.2148 8.93617 -0.292178
738.991 9.09506 -0.498591
24.4612 11.704 -0.297653
642.351 43.6157 0.362329
722.266 22.7064 0.359617
179.225 32.1518 0.28695
828.568 33.7273 0.152285
36.2968 27.9335 0.117689
556.96 2.95674 0.326082
147.565 7.50735 -0.480602
622.893 33.282 0.431884
524.887 26.3827 -0.1564
181.637 0.937144 -0.269021
34.0788 2.40002 -0.292955
362.122 17.7278 0.271673
654.429 44.32 -0.137832
480.599 33.2604 -0.188006
415.004 1.02725 0.195867
751.007 7.90752 -0.368232
27.6438 42.8606 -0.234883
266.187 30.2894 0.298214
773.237 7.62889 0.19294
714.041 43.229 0.38275
434.057 8.6619 -0.492288
596.626 3.49944 -0.346021
806.424 29.7366 -0.481514
135.795 7.62586 0.284951
518.844 25.3601 0.147816
497.13 14.8479 -0.147657
305.994 16.6862 -0.338231
21.4854 13.5844 0.274825
853.259 35.4311 0.308168
345.783 38.4087 -0.28609
719.82 19.5346 -0.342107
738.64 12.8451 -0.240503
862.58 11.3154 -0.316242
484.145 34.227 -0.15837
96.1073 38.3612 0.28367
732.423 32.8913 -0.217243
687.339 36.8637 0.111623
879.708 40.528 0.122176
854.535 0.682756 -0.510537
302.584 28.6995 0.436205
656.013 6.30808 -0.114402
25.2914 5.20216 -0.476833
138.222 37.9333 -0.152929
534.888 14.469 0.221807
845.407 25.2276 -0.531769
203.529 28.6514 0.219917
46.1333 34.1604 0.280983
514.034 1.15723 0.12821
245.345 8.91566 -0.367738
810.079 38.6429 -0.268747
832.373 25.2636 0.243467
376.252 20.8152 -0.255522
170.737 26.6772 -0.465899
575.705 37.8049 0.425777
395.857 15.5432 -0.449048
430.901 29.2957 -0.0949911
393.954 4.51102 0.411491
573.797 10.8464 -0.0897895
880.387 11.3188 0.157077
83.6376 39.1596 -0.400134
349.444 4.8393 -0.182463
588.936 9.46531 -0.345534
375.362 43.4626 0.44375
26.8638 24.6573 -0.477458
31.716 5.74871 -0.328101
597.296 31.7305 -0.443258
528 24.1136 0.151013
27.376 36.789 0.417261
96.9668 30.4696 0.234079
338.958 15.8224 -0.294421
633.441 18.6795 -0.150047
496.75 37.4891 0.312801
791.441 7.79583 -0.358812
783.367 6.51961 -0.221051
403.944 36.8858 0.0957093
674.445 24.62 0.125269
248.644 17.0534 0.490706
344.499 3.71338 0.461121
108.158 31.3205 0.364885
121.456 24.1941 -0.264644
570.837 38.1224 0.0788756
319.501 18.8315 0.45773
764.035 34.6744 0.122794
718.254 42.477 0.1171
503.038 20.3808 -0.415515
837.21 10.1272 0.298873
448.428 23.1346 -0.23279
288.952 24.1391 0.299055
720.776 29.8106 -0.26956
291.291 28.161 -0.424259
607.566 11.8799 -0.207882
346.814 35.0997 0.201077
529.203 11.2867 0.472098
383.571 31.3502 0.0993631
450.601 16.5591 -0.107818
332.787 41.6076 0.30697
199.597 29.5678 0.130563
836.752 44.2753 -0.184655
876.708 13.4169 -0.234366
6.26351 12.1573 -0.473117
454.776 22.2444 -0.413835
40.042 22.3928 -0.0751179
393.944 31.0974 -0.330155
413.574 24.7805 0.25354
78.4649 11.9325 0.488985
54.2067 32.9074 0.425863
236.56 13.445 0.398468
655.71 37.4748 0.484001
610.119 20.5353 -0.464324
78.5919 20.965 0.25413
748.227 45.2068 -0.40646
823.626 2.43253 0.450288
706.008 39.3982 -0.463342
745.749 2.37262 -0.388818
580.178 26.3151 0.428533
621.772 44.0803 -0.447249
538.838 17.9405 -0.415687
873.567 3.76713 0.303492
234.369 24.6697 0.140158
133.723 34.8238 0.199117
259.259 6.40097 0.370628
99.1535 4.17332 0.271725
67.4555 10.136 0.208382
289.228 35.67 0.317839
17.4893 24.7607 0.376696
586.49 19.2509 -0.39109
642.091 38.5789 0.230261
486.231 20.9783 -0.380222
865.002 40.9137 -0.365965
427.026 8.59175 -0.104868
457.812 35.7447 -0.380359
565.718 3.4286 -0.192677
23.9444 23.8535 -0.383827
610.613 4.52115 -0.334189
576.029 4.34884 -0.286225
216.53 11.3328 0.483066
446.633 16.3769 -0.190927
326.832 6.28349 0.335225
407.52 18.97 -0.321242
796.604 40.896 0.109235
201.83 25.6357 -0.430014
847.871 6.60274 -0.376896
795.584 37.0086 0.375796
402.694 10.1395 -0.165457
770.441 2.40894 0.462034
642.033 24.6776 0.134108
799.918 17.5742 -0.370858
452.984 42.473 -0.29675
523.297 12.4776 0.350503
489.717 43.7363 -0.219795
468.667 8.58486 0.126375
709.584 38.371 0.310349
707.162 34.7596 0.349956
202.091 38.7442 -0.226141
860.519 10.8935 -0.104364
623.903 44.4179 -0.241211
11.9024 16.6484 0.228449
428.183 25.1559 0.36264
196.785 23.0138 0.395322
97.7928 39.2031 -0.201606
843.621 22.3947 -0.472747
702.777 43.4682 -0.227661
335.434 25.2795 0.345166
562.43 10.1315 0.319216
86.5513 44.2657 -0.167362
260.35 25.7284 -0.482388
589.119 23.4176 0.38956
512.803 18.4142 0.40593
276.273 0.888113 -0.343305
585.28 39.3072 -0.364923
564.042 40.2452 -0.462246
508.055 32.6765 0.374936
526.471 0.799597 -0.513636
757.204 19.0202 0.368768
188.89 11.9748 -0.18435
527.826 36.1229 0.444802
598.307 39.2108 0.131344
76.7226 0.947185 0.272619
264.759 4.71141 0.176387
875.607 15.2801 0.218718
862.3 13.3546 -0.509646
881.904 17.7352 -0.62736
319.142 8.55443 -0.228449
806.774 22.0952 0.419766
428.454 41.0935 -0.181776
472.977 0.811583 -0.399393
694.2 34.5859 0.591776
28.6141 30.431 0.298775
347.941 40.9046 0.55919
265.627 2.84849 0.323934
849.729 41.6666 -0.190728
768.374 46.6362 -0.250495
302.282 10.9201 0.220431
713.833 28.1671 -0.105736
590.721 2.65352 0.283933
573.728 6.41397 0.416277
101.773 18.2177 -0.48944
318.981 1.03171 -0.223477
361.364 2.27631 -0.358327
14.6942 7.59121 -0.400334
4.62391 30.6065 -0.25687
170.358 18.8003 0.367378
71.8211 41.461 0.213419
70.2635 28.7017 0.364009
446.259 14.5108 -0.426641
386.551 34.8527 0.470294
826.147 35.7317 0.164092
20.5384 4.01287 0.27009
74.3574 6.91411 0.121689
666.647 36.8739 -0.174746
310.121 0.915135 0.354584
384.448 16.102 -0.0933532
248.063 4.67959 -0.390617
698.859 20.9373 -0.225071
476.26 8.30214 0.415651
809.645 19.9822 -0.408806
673.751 28.0497 0.353185
718.744 17.6809 -0.0827965
442.879 26.4489 0.4804
107.576 44.6819 -0.30614
574.546 41.5899 0.0731851
797.233 13.3244 -0.172576
250.565 30.2584 -0.251733
33.8405 16.9966 -0.18297
354.402 13.7197 0.497523
113.342 40.1888 -0.461369
281.932 42.0268 -0.203233
448.503 1.09041 -0.22853
850.545 30.6785 0.388361
738.383 0.766713 0.491996
350.02 3.21901 0.521943
316.038 26.3831 -0.151061
488.488 40.6109 0.214347
85.8864 8.01099 0.429332
208.572 44.7736 0.377659
834.979 27.5587 0.450483
522.915 38.6037 -0.0819985
211.024 41.2341 -0.264837
169.621 42.0702 -0.161854
882.966 37.1816 -0.388982
879.026 12.6318 -0.419135
645.896 3.50429 -0.441056
200.44 24.4489 -0.091058
582.087 27.2616 0.108475
584.126 27.0184 -0.26895
431.68 5.68774 -0.137119
508.849 0.928167 -0.285695
824.171 37.9194 -0.471994
89.581 30.8294 0.222275
704.863 17.9326 -0.433295
289.183 15.5028 -0.338167
10.2674 2.31065 0.349896
132.259 36.6407 0.189801
70.7997 23.0872 0.487227
756.655 36.2184 -0.339331
854.489 48.5843 0.17044
195.739 28.2095 -0.171443
871.413 13.359 0.426017
47.4815 36.2254 -0.266658
95.8855 28.8486 -0.164875
678.088 12.8518 0.435114
436.308 18.21 -0.480642
549.533 16.4896 0.127602
251.157 28.2786 -0.180298
663.551 4.43923 -0.408705
881.684 12.7416 0.473103
31.3737 31.5307 0.272784
284.826 7.69584 0.190343
234.15 15.0525 0.247443
1.07341 35.2686 0.147304
237.553 14.5259 -0.365244
223.342 11.0269 -0.106734
226.176 26.1921 -0.275294
140.308 27.6488 -0.131934
580.613 14.9363 -0.34264
176.424 14.0805 -0.354153
844.305 43.1113 0.280226
183.727 3.80082 0.509089
49.9644 37.1212 -0.386361
803.322 47.1581 -0.426295
296.353 31.0818 -0.376367
728.744 22.8824 -0.422556
859.365 29.9057 0.625541
317.167 9.1688 -0.108223
793.881 28.9909 -0.345242
346.831 2.6006 -0.375775
439.244 23.8525 0.350769
725.215 15.9435 0.435561
111.261 11.9258 -0.44747
510.557 3.89517 -0.480839
813.439 17.4133 -0.218312
93.2838 7.69168 -0.209617
297.1 14.6605 0.201813
447.045 11.6801 -0.202624
872.548 2.43518 0.624355
420.053 1.94048 -0.527309
186.713 38.6062 -0.292476
799.983 10.1395 -0.390518
135.564 35.9536 0.181164
277.472 31.2042 -0.390355
422.728 21.5478 0.217714
610.018 13.6983 -0.331792
408.706 9.73759 -0.479819
482.357 27.3895 -0.349962
834.084 45.6893 -0.460763
50.2924 11.0024 -0.107771
315.909 38.3584 -0.256661
400.831 26.9147 0.345667
432.364 20.9158 0.2629
551.981 43.8133 0.356437
818.671 35.6167 0.231648
712.944 34.0063 -0.37322
238.298 34.0121 -0.386933
14.61 31.0993 0.169312
705.55 35.8362 -0.141938
538.752 40.8358 0.431067
242.31 39.0088 -0.0902269
736.511 30.0033 0.13513
159.594 9.22214 0.208525
387.059 21.2479 0.315891
490.305 41.6532 0.10206
437.409 19.5245 0.208639
830.032 48.19 0.293945
450.025 3.41316 0.4355
52.5592 24.8909 0.207193
497.024 31.2755 0.358702
459.413 41.9762 -0.378594
846.493 36.0037 -0.250738
791.147 27.9803 0.227347
574.064 18.3234 -0.189601
838.55 37.1447 -0.478272
309.634 2.2044 -0.461642
399.554 29.2901 0.476632
30.6613 38.5603 -0.306802
797.035 29.9319 -0.151218
650.927 19.5835 0.510132
489.566 0.771461 -0.475319
133.216 4.5115 0.279246
450.804 39.8407 0.108308
12.7567 0.902912 -0.317537
871.013 6.59701 0.169819
390.951 39.0163 -0.403407
[...]
POINT_DATA 13483
TENSORS Strain_matrix float
-0.044207 -0.0454044 0.151891 
0.0400232 0.00195439 -0.0124275 
-0.0455003 0.00464528 0.0190778 

-0.233211 -0.0401574 -0.52041 
0.108826 0.155133 6.81203 
0.0135663 -0.0202271 -0.0195537 

-0.0327167 0.00156331 0.204871 
-0.00135561 0.0205348 0.0679085 
-0.00113385 -0.000909172 -0.00828372 

-0.322662 -0.108973 0.568425 
-0.153718 0.205353 0.351198 
-0.0150731 -0.00272643 0.197518 

-0.0579942 0.015819 0.00529658 
0.003232 0.0570092 -0.221974 
-0.0112412 0.0162142 0.163279 

-0.0272602 0.00271988 -0.386743 
0.00665957 0.0149197 0.158532 
-0.0121418 -0.0156553 -0.496124 

-0.0386997 -0.00631349 -0.00536719 
0.0025283 0.0135741 -0.0105508 
0.000940233 0.00025178 0.0172911 

-0.0182642 -0.00630221 0.0124857 
0.00790562 0.00899963 0.000957491 
0.000162543 -0.00109224 0.00270474 

-0.0296857 -0.0523818 0.0699387 
0.0343442 0.0217925 0.0235035 
-0.00109595 0.0002701 0.015396 

-0.0708749 0.0267795 0.0482508 
-0.0232008 0.0151644 -0.0466025 
-0.00866325 -0.0319383 0.386195 

-0.0155635 -0.00118985 0.0228152 
0.00759121 0.00457517 -0.0169611 
-0.00185435 -0.000285007 0.0176047 

-0.0235643 -0.00675187 0.0277075 
0.00394201 0.00419569 0.0110682 
0.00188281 -0.000273087 0.0097451 

-0.0153207 0.0206172 0.192048 
-0.00940555 0.023228 0.051374 
0.00943826 -0.0607081 0.424206 

-0.00924173 -0.000312574 0.0209236 
0.00772343 0.00376924 0.00852512 
-0.00183387 -8.23428e-05 0.018072 

-0.0447356 -0.00572473 -0.277628 
-0.0167534 0.0162355 -0.0865625 
0.00294846 -0.0241034 0.0618886 

-0.0293116 -0.00379242 0.188297 
-0.00998807 0.00120223 0.0396572 
0.023032 -0.00292145 0.194476 

-0.0257734 -0.00463149 0.0129996 
0.00427335 0.00636867 0.000625689 
-0.000484515 0.000762295 0.0236218 

-0.0355084 -0.011558 0.0110609 
-0.00229227 0.0142434 -0.0396654 
-0.00108486 0.000464583 0.0479914 

-0.0746367 0.0453691 -0.014658 
0.000807706 0.0327219 -0.166843 
0.0582573 0.0447417 0.138395 

-0.0254726 -0.00344182 0.108028 
-0.0187702 0.00783667 0.212412 
-0.00451843 -0.0101214 0.056388 

0.00769336 -0.041552 0.0198674 
0.0598847 -0.0122105 -0.0397678 
0.004669 -0.0259016 0.105699 

-0.000891188 0.0295154 -0.0860756 
-0.0340117 -0.0542979 0.142674 
0.0160023 0.0155183 -0.035033 

-0.135161 0.00197511 0.836325 
0.11804 0.114259 -0.71674 
-0.0222444 0.0437788 0.117984 

-0.0327112 0.0085159 -1.40876 
0.0352342 0.0151954 -0.461621 
0.0162153 -0.012805 -0.171186 

-0.0184048 -0.0199323 0.00909303 
0.0081247 0.00590734 -0.00600694 
-2.96803e-05 -0.000809006 0.0141519 

-0.0698629 0.0376432 -0.0755414 
-0.00393891 0.0526478 -0.0566974 
0.0501642 -0.0310442 0.345767 

-0.0348656 0.000115579 -0.751505 
0.0115067 0.0125329 1.12163 
-0.00152853 0.00236887 0.358526 

-0.0142072 -0.00530647 -0.00566481 
-0.0264815 -0.00205738 0.0242202 
-0.00145132 -0.000535235 0.03289 

-0.024464 0.00582136 -0.177311 
-0.000766719 0.0126336 -0.0364877 
-0.00260706 -0.00780629 -0.0575782 

-0.123404 -0.0128504 0.262825 
0.0412901 0.0502255 -0.216183 
0.107195 0.0765715 0.546295 

-0.0172182 0.00873345 -0.00956728 
-0.000789159 0.00144671 -0.0114079 
0.000721734 -0.000125454 0.0191804 

-0.0650339 -0.018963 0.110546 
-0.0577158 0.031105 0.0426485 
-0.0325178 -0.111038 0.428359 

-0.113287 -0.240338 0.0412431 
0.209641 -0.00819523 -0.301135 
0.012401 0.0106611 0.195309 

-0.0379036 0.0251803 -0.393775 
0.0140916 0.0347368 0.218312 
0.00120031 -0.00299328 0.164482 

-0.0177959 -0.0572705 0.0641501 
0.0433594 0.0122051 0.0297254 
0.00638666 -0.0562856 0.419827 

-0.0282305 0.00750772 -0.0561586 
-0.0148472 0.0133722 0.0972095 
-0.00131122 0.00165051 0.0638227 

-0.0210565 -0.00141269 -0.0287194 
0.00470883 0.00541087 -0.0731858 
0.00106681 -0.000293846 0.0150323 

-0.0497091 0.00531674 -0.110982 
0.0153136 0.024792 -0.0637055 
-0.0457179 0.0115261 0.309497 

-0.0331876 -0.000563693 0.0578886 
0.00506573 0.00602679 -0.00448466 
-0.00125204 -0.00113424 0.0261127 

-0.0251918 -0.0065646 -0.296751 
-0.00498965 0.0103019 0.0472846 
0.000630232 -0.000868901 -0.0977993 

-0.026165 -0.00289098 -0.00727991 
-0.00213879 0.0065014 -0.0023917 
0.000419593 -0.00021511 0.0142645 

-0.0274161 -0.0407127 -0.108275 
0.0417149 -0.00137461 0.0978264 
-0.0286569 -0.00383684 0.566629 

-0.0431525 0.00111423 -0.00876296 
-0.023617 0.0105988 0.00871984 
0.00111372 0.00255413 0.0568621 

-0.021718 0.00425903 0.0548788 
0.00194604 0.0137961 -0.0685195 
0.00952155 -0.00494264 0.0448295 

-0.0329815 0.00927635 0.00132542 
-0.0142931 0.0116129 -0.0115744 
-0.00215932 -0.000825158 0.0162086 

-0.0327676 -0.00155601 -0.00018987 
-0.0183136 0.0188484 -0.0784926 
0.00115021 0.000195476 0.0128165 

-0.0639067 0.0205709 -0.527534 
0.0100276 -0.00997463 -0.711231 
0.0408952 -0.0113018 0.203903 

-0.0203971 -0.00687971 -0.00198967 
0.0112427 0.000729123 -0.020855 
-0.00183869 0.00149357 0.0292585 

-0.00589311 0.0127518 -0.0201045 
-0.0117203 0.00276731 -0.0169556 
-0.000440934 0.000570202 2.13258e-05 

-0.0301951 0.00204672 0.00850293 
0.00158984 0.00931755 0.016835 
-0.00252878 -0.00809187 0.0869108 

-0.0196776 -0.0253682 -0.0577448 
0.0173817 0.00462464 -0.00947174 
0.0188557 0.00260679 0.146731 

-0.0111981 -0.0393253 0.359894 
-0.127095 -0.00019698 -0.135735 
0.0123084 0.00936121 -0.0395509 

-0.0237252 0.005801 -0.0272516 
0.00566677 0.00605679 -0.0180481 
0.00136325 0.000311969 0.0181515 

-0.0230527 0.0168643 0.0140692 
-0.0186996 0.00610324 0.0690267 
-0.00166399 0.00132895 0.034811 

-0.0337461 0.00391742 0.125894 
-0.00457309 0.0119469 -0.280516 
-0.00116687 0.000352115 0.0488054 

-0.018034 -0.00709516 -0.163712 
-9.5783e-05 0.00620284 -0.0164079 
0.001011 -0.00105588 0.0233493 

-0.0376814 -0.0106656 0.0271531 
0.0205045 0.00847849 -0.0022091 
-0.00209637 0.00222968 0.0410169 

-0.0292316 0.0330992 0.136352 
0.00288695 0.0415243 0.0272059 
-3.98387e-05 0.00813146 0.0071092 

-0.0171178 0.00158867 -0.0395116 
-0.00624944 0.00713138 0.0166058 
-0.000292247 0.000104269 0.0176746 

-0.024859 -0.012905 -0.0852407 
-0.0120196 0.0158141 0.00378129 
-0.00135591 -0.00686636 0.080169 

-0.0186108 0.0364646 -0.000972355 
-0.00883429 0.0240865 0.00880284 
-0.00238433 -0.00441944 -0.0587932 

-0.0223905 -0.0144004 -0.0970259 
0.0040666 0.00577182 -0.0135581 
0.00149138 -1.81536e-05 0.0306545 

-0.0230652 -0.0268239 -0.0738569 
-0.0068178 -0.00190168 -0.0253139 
0.00303527 0.0239272 0.110328 

-0.035911 0.0542206 0.295516 
-0.00868605 0.0244844 0.295512 
0.00872899 0.00574359 -0.0385419 

-0.0576439 -0.00437724 -0.0372397 
-0.0176179 0.0190278 -0.103398 
0.0105738 -0.0307314 0.163685 

-0.0559959 0.0205643 0.00983429 
0.00377696 0.03521 0.0247062 
0.00136785 -0.000770792 0.0173259 

-0.0369383 -0.0483637 -0.0140827 
0.00258635 -0.00519822 -0.0320945 
0.00674423 0.00428149 0.0626197 

-0.0142095 -0.0214965 -0.123725 
0.0244622 0.0102184 -0.0200283 
-0.00024552 -0.0010072 0.0211835 

-0.0275811 0.00408953 -0.286031 
-0.00421382 0.0102394 0.018524 
0.000835718 0.000766086 0.175218 

-0.00842275 -0.0151115 -0.0150809 
0.000914611 0.00368238 -0.025448 
0.000864198 -0.000954731 0.0113894 

-0.193239 0.118942 -0.0303787 
-0.0792334 0.210551 0.4283 
-0.0110499 8.10419e-05 0.244962 

-0.0273135 -0.0058187 -0.00415046 
-0.00265734 0.00971025 0.00658017 
0.00214038 0.000601166 0.0228322 

-0.0207869 -0.0068082 0.0317373 
0.0147777 0.0133901 0.0114581 
-0.00134559 -0.000752997 0.0102776 

-0.0300947 -0.00136428 0.122245 
-0.00909358 0.00643336 -0.178594 
-0.0225426 -0.0174595 -0.0511844 

-0.0186895 0.00522893 -0.15946 
-0.00180384 0.00565928 -0.0770495 
-0.000136016 0.000609287 0.0199896 

-0.0335991 0.00601211 -0.0146636 
0.00204836 0.0068782 -0.00584605 
-0.00135549 0.000269575 0.026694 

-0.105316 -0.241258 -0.447185 
-0.0324168 0.101948 -0.202426 
-0.0632668 0.00662451 0.944776 

-0.035472 0.0439394 -0.252318 
-0.0326516 0.00996411 -0.0467493 
0.00319709 -0.00151083 0.0554795 

-0.0395707 -0.0222625 -0.000673028 
0.00242731 0.0126926 0.0125719 
-0.0022358 0.00588965 0.0394471 

-0.030072 -0.0355557 0.0444619 
0.0468043 -0.0124623 0.00605537 
0.000508942 -0.000381272 0.0981299 

-0.234219 -0.156179 0.749473 
0.28033 0.0992123 -0.0769028 
0.0112213 0.0763262 0.290921 

-0.0150644 -0.0124429 0.0282375 
0.0174688 0.00458694 -0.00748099 
-0.00120624 0.000656967 0.020157 

-0.00916416 -0.0125949 -0.0187239 
0.0106125 -0.00646127 0.0311254 
0.00439862 -0.00288279 0.00372787 

-0.044458 -0.00188138 -0.0689191 
-0.0363109 0.0103186 0.00816305 
0.00222372 -0.000732962 0.0750758 

-0.0336213 -0.0197662 -0.0242763 
0.0231306 0.00403198 -0.032903 
0.000934843 -0.00186211 0.0488351 

-0.10553 -0.0739628 -0.164421 
-0.0620302 0.200341 -0.0296121 
0.00520301 0.0183909 0.0439597 

-0.231912 5.7253 0.51902 
0.00593769 0.129633 0.0200367 
-0.0167871 -0.162115 0.0946504 

-0.0264295 -0.00300282 -0.0547389 
-0.0010726 0.00229837 -0.0284137 
0.000393878 5.32141e-05 0.0388108 

-0.0331874 0.0186055 -0.0653548 
-0.0251513 0.0309616 -0.0301495 
-0.0144535 0.00763905 0.40864 

-0.035321 0.00565538 -0.374492 
0.00756344 0.0107816 -0.160944 
-6.26751e-05 -0.00667214 -0.135198 

-0.0336152 0.0018653 0.0873748 
-0.0136419 0.00636507 -0.0773141 
0.0641141 0.0669296 0.340074 

-0.0401319 -0.032397 -0.0261927 
0.017861 0.000388027 0.0191685 
-0.00832499 0.0166376 0.0812293 

-0.0397141 -0.100241 0.840349 
0.105906 0.0217242 1.46594 
-0.00806481 0.00514497 0.306884 

-0.0290237 0.0112786 0.0270561 
0.00194119 0.0252878 0.0455096 
-0.00121905 -0.000454466 0.0470044 

-0.0268507 0.0102831 0.0798576 
0.00525911 0.0109912 0.0446524 
0.000130951 0.000150013 0.0468563 

-0.0333061 0.0829049 -0.111492 
0.00918071 -0.00464933 0.0344823 
0.00210296 -0.00457989 0.0166452 

-0.0268002 0.00713263 -0.00268836 
-0.00607106 0.00790018 -0.012765 
-0.00146586 0.000282522 0.0080204 

-0.349384 0.170307 0.0820386 
-0.0175003 0.130183 0.406935 
0.0447464 0.0777002 0.268485 

-0.131382 -0.0908187 0.0680647 
-0.033061 0.0842584 -0.0947455 
-0.01308 -0.0023277 0.331021 

-0.0127219 0.000584147 -0.0429524 
0.000272611 0.00619578 0.032479 
0.00143272 0.00615682 -0.0204408 

-0.0201402 -0.00470149 -0.625894 
0.00601799 0.00673925 -0.299499 
-0.000340053 -0.000665355 0.122417 

-0.0534269 -0.014711 0.00421919 
0.00380185 0.0243394 -0.292206 
-0.00785818 0.00114131 0.204217 

-0.0227116 -0.00785502 -0.424681 
-0.00199329 0.0224817 -0.516482 
0.0254581 0.0580809 -0.611188 

-0.0133602 -0.0174147 0.0308338 
0.0297322 0.0202542 0.0344704 
0.0118039 -0.0135452 -0.00374379 

-0.0257855 0.0026202 0.146193 
0.00189703 0.0108257 0.0987761 
0.0118031 -0.0103725 -0.014269 

-0.0199141 0.000262636 0.00142939 
-0.00429108 0.00576435 -0.00389995 
-0.000530604 -0.000292913 0.0151958 

-0.533602 -0.275004 -0.264252 
0.280295 0.409312 -0.3681 
0.0198122 0.107469 0.23045 

-0.0448618 -0.00706148 -0.420995 
0.01271 0.0423446 0.260314 
-0.0218932 -0.0372533 1.03749 

-0.0263047 0.0261649 0.049821 
0.0100373 -0.00651448 -0.0376558 
0.0003684 0.00218945 0.043945 

-0.0284511 -0.00861589 -0.0752725 
-0.0013661 0.00530493 0.076851 
-0.00132855 0.000852522 0.0433799 

-0.0368766 0.0128971 0.831729 
0.00539266 0.0119228 0.525118 
0.00516979 -0.00900227 0.0344061 

-0.0267532 -0.00213627 -0.908546 
0.00538356 0.00732685 0.0813243 
0.000269206 0.000301006 0.150921 

-0.0219665 0.00777434 0.00407824 
-0.0046681 0.00520901 0.0167705 
-0.00248534 -0.000714372 0.0158805 

-0.0568595 0.000418856 0.156664 
0.0214864 0.0154777 -0.386934 
0.00971593 -0.00564361 0.174823 

-0.0390611 0.0187929 -0.00333898 
-0.0135708 0.0042226 0.00461665 
0.00147007 0.000919244 0.0503062 

-0.0345759 -0.00312928 -0.174143 
-0.000423418 0.0226327 0.109087 
-0.00996717 -0.00393515 -0.0901251 

-0.0399535 0.0707943 -0.060913 
-0.0863992 0.0784606 0.189255 
0.0659251 0.0855822 -0.134451 

-0.0220787 0.00571979 0.0102353 
0.00113167 0.00751903 0.00563132 
-0.00201795 0.00037221 0.025094 

-0.0346392 0.00806292 0.0471734 
0.0204888 0.0271713 -0.00981749 
0.013022 0.0337351 0.162828 

-0.030495 0.00560818 0.0136227 
0.0184328 0.00446785 0.142645 
0.00144682 4.79026e-05 0.0476948 

-0.0555811 0.0575732 -0.0844649 
-0.0171009 0.0594517 -0.00262037 
-0.000568194 -0.0126423 0.0198402 

-0.176159 0.0655861 0.0144777 
-0.0409871 0.0523715 0.766115 
-0.0716077 0.012924 0.475334 

-0.0141768 0.00478316 0.00223481 
-0.00242663 0.00476037 -0.00528631 
0.000279215 0.0014117 0.0220243 

-0.0114587 -0.00375792 0.0160923 
0.00471836 -0.00443619 0.00700077 
-0.000272717 -0.001745 0.0308383 

-0.0282367 0.00313907 0.143906 
-0.00686795 0.00933326 0.302596 
0.000128139 0.000431361 0.267382 

-0.0193884 0.0116012 -0.078795 
0.000169107 0.00361522 0.120603 
-0.00128586 -0.00100273 0.0492359 

-0.0388093 -0.00534978 0.0272322 
-0.0196189 0.0157935 -0.0265852 
0.00117599 0.00021692 0.0207738 

-0.049209 0.011331 0.0259708 
-0.0256419 0.0338224 -0.0991104 
-0.0176982 0.117276 0.240531 

-0.0223016 -0.0365357 0.0307312 
0.0381233 0.00269941 -0.0124555 
0.00167025 -0.00289501 0.0324126 

-0.0301938 0.000630056 -0.0194185 
0.00619358 0.00572472 -0.0513673 
-0.00155284 0.000393015 0.0205244 

-0.0185754 -0.00303672 -0.048062 
0.0137278 0.0185386 0.0215858 
0.00142802 -0.00239272 0.0447795 

-0.0329484 0.0130409 0.0190136 
-0.00193614 0.0203301 0.0692573 
0.000308737 -0.0015257 0.0199808 

-0.0419873 0.000146056 -0.235957 
-0.00911721 0.0199745 -0.0378195 
0.00428437 -0.00336541 -0.103518 

-0.166378 0.2565 -0.292177 
0.0492253 0.0405035 -0.196232 
0.0349607 -0.0446274 0.234377 

-0.036716 0.0102082 -0.163898 
-0.00724682 0.0257199 -0.208051 
0.0435186 0.0305255 0.75727 

-0.0240628 0.00388695 -0.0128397 
-0.00620979 0.0153023 -0.0152852 
-0.00758133 0.0282645 0.0232839 

-0.0262319 -0.0158077 0.0198126 
0.00970855 0.0045783 -0.00940568 
0.00148108 0.000771458 0.0292163 

-0.0253852 -0.00313508 -0.183421 
-0.01823 0.00717901 0.191488 
0.0067927 0.000300666 0.0587595 

-0.0185391 -0.0444433 -0.00396638 
0.0359143 -0.00298569 -0.00189889 
6.07314e-05 0.000434102 0.0320626 

-0.0193522 -0.00838081 0.0299021 
0.0331108 -0.0264518 0.0403821 
0.00240378 0.00199836 0.0446579 

-0.0437838 -0.0202716 -0.00705551 
0.0164938 0.00139173 -0.0896168 
0.00411037 0.00303514 0.0831574 

-0.0129719 -0.00239486 0.00367491 
0.00656354 0.00423945 -0.000589762 
0.00375043 0.00330945 0.0317931 

-0.033971 -0.0107939 0.0514274 
-0.0107227 0.00378799 -0.00782624 
-0.016672 0.00327989 0.0662612 

-0.0164921 -0.00310824 -0.0034377 
-4.75604e-05 0.00576895 -0.0298943 
0.000821416 -9.83116e-05 0.0202956 

-0.0193125 0.00161542 -0.0251478 
0.00325496 0.0080176 0.0671338 
0.00601354 -0.00373744 0.0518604 

-0.263367 -0.232338 -0.964323 
0.120906 0.145841 0.488721 
-0.0193194 0.0098977 0.300486 

-0.191741 -0.119983 0.544902 
-0.103578 0.0597987 0.4075 
0.0118735 -0.0063984 0.077595 

-0.0325607 0.00487682 0.112843 
-0.0210788 0.00627797 0.00338906 
-0.00148039 0.00327487 0.0273351 

-0.032944 0.0304805 -0.183907 
-0.0218488 0.0180034 -0.112956 
-0.00245613 0.00361259 0.0897255 

-0.0265555 0.00918584 0.0454731 
-0.0245539 0.0159928 0.00876171 
-0.00613459 -0.00347388 0.0367923 

-0.0312602 -0.0110156 0.143569 
-0.00322194 0.0293265 0.0346804 
0.0174102 -0.00890951 0.125938 

-0.0602464 0.0129303 -0.00421692 
-0.00999718 0.0164923 0.0069015 
-0.0296405 -0.00307669 0.0859331 

-0.0387008 -0.0218231 0.237967 
0.00682754 0.0118692 -0.263308 
1.55193e-05 0.00100761 0.0335638 

-0.0311994 0.00477565 0.0756113 
-0.00671219 0.0178281 -0.0736595 
-0.00900464 0.00869681 -0.0225383 

-0.0191619 0.00524073 0.0613497 
0.00346526 0.00149203 -0.0192421 
-0.00142488 -0.000457906 0.0347544 

-0.0304266 0.00496803 -0.267026 
-0.0136269 0.010117 1.17314 
0.00178748 -0.00305968 -0.00885107 

-0.0340251 -0.0122117 0.142163 
0.0188577 0.00765597 0.542807 
0.0176745 -0.00343838 -0.0140634 

-0.0375125 -0.0113914 0.0939308 
0.0055273 0.0266581 -0.134639 
-0.0429624 0.0109846 0.225583 

-0.0334543 0.0653451 -1.10147 
0.0196639 0.0516038 -0.794672 
0.00168226 -0.00393678 0.0591647 

-0.0734405 0.0622646 -0.578892 
-0.034204 -0.00330489 -0.0137385 
-0.00024883 -0.00333383 0.0848706 

-0.028506 0.0134932 0.537512 
-0.0110162 0.00938617 0.0951623 
-0.00802156 0.00887089 0.138486 

-0.0778298 0.0343144 -0.0641506 
-0.0115879 0.0513169 -0.057752 
-0.0193626 0.0674522 0.252765 

-0.0200425 -0.0339586 0.210628 
0.0316639 0.0184197 0.0531112 
0.00116738 -0.0017434 0.0780475 

-0.0328293 0.0696892 -2.37442 
-0.00859742 -0.0182677 1.35475 
-0.00068325 0.0224507 0.00917493 

-0.0333904 0.00224952 -0.0174247 
0.000273521 -0.000934082 0.103659 
-0.00152997 0.001065 0.0401417 

-0.352675 -0.194308 -0.151342 
0.357349 0.120877 -0.114668 
-0.000700645 -0.00685966 0.245124 

-0.0250645 0.00679831 0.0227446 
-5.929e-05 0.00180745 0.0223625 
0.0015608 -0.00209254 0.0325814 

-0.0196139 0.00753151 -0.018933 
-0.0111665 0.00881329 0.00475755 
-0.000343825 -0.00167961 0.0270229 

-0.0212851 0.0105978 0.0826191 
-0.00214664 0.0073421 -0.0130924 
0.000729168 -0.00126081 0.0190022 

-0.0475121 0.0085088 -0.175456 
0.00479225 0.0243823 0.211543 
-0.000976971 1.84131e-05 0.0855152 

-0.0272097 -0.00571771 -0.0302495 
0.00754855 0.011566 -0.0334983 
-0.000159474 -0.00206763 0.0160016 

-0.0285339 -0.011912 -0.136119 
0.00868269 0.0190959 -0.123379 
0.010769 -0.0084507 0.0153619 

-0.0596723 0.0126764 0.24602 
-0.0404135 0.0517069 0.0248366 
-0.0246552 -0.000963004 -0.126105 

-0.0311888 -0.0133435 0.0451527 
0.000951065 0.0289669 0.00414285 
-0.00422519 -0.00195239 0.0250316 

-0.0125684 0.0113123 -0.0353507 
-0.0170947 -0.000225225 -0.0235083 
0.0029834 0.00278396 0.00617491 

-0.021963 -0.00512813 0.0219618 
-0.00652759 -0.00178097 0.0507796 
-0.00168787 4.36498e-05 0.0524873 

-0.00890031 -0.0823678 -0.178445 
0.0813322 -5.59182e-05 0.120431 
0.000307032 0.00623841 0.0873148 

-0.032693 -0.0107229 -0.0201875 
0.0148841 0.0156219 -0.00239279 
-0.00459823 -0.0412429 0.131337 

-0.0776207 -0.0119795 0.00575399 
-0.0198997 0.0421965 0.0906522 
0.0168372 0.0038731 0.300631 

-0.0303841 0.00351765 -0.0164458 
0.000793137 0.00189756 -0.000132651 
0.00226903 0.00110137 0.0301348 

-0.00955088 -0.0198366 -0.00466672 
0.0188809 0.00417878 -0.00480618 
-0.00115315 0.00279572 0.0424768 

-0.03081 0.0559633 0.139211 
-0.120876 0.0428611 -0.180444 
-0.0555139 -0.0487323 0.568492 

-0.0122485 -0.00144732 0.00948637 
-0.000351211 0.0031434 -0.00641362 
-0.000186874 -0.000313365 0.00647936 

-0.0249384 0.00191947 0.146721 
-0.00150234 0.00818604 0.496363 
-0.00164065 0.00302482 -0.0453319 

-0.0595689 -0.022915 -0.0103007 
0.030761 0.0201138 -0.0409992 
0.0584733 -0.0333852 0.265802 

-0.0332052 -0.0172936 0.0458093 
0.0140853 0.00730743 -0.010387 
-0.0011755 0.00355274 0.0363692 

-0.0495191 0.024261 0.228134 
-0.00116521 0.0434415 0.0377771 
0.00794409 0.0376263 0.65984 

-0.0818161 0.0106255 0.144914 
0.0624714 0.073966 -0.125864 
0.000464963 0.000737354 0.0109538 

-0.0258056 0.00491832 -0.100499 
-0.00274004 0.0119409 0.0634302 
0.00127926 -0.000107368 -0.00395282 

-0.0488139 0.0155969 0.0216971 
0.0407134 -0.0115231 -0.500643 
-0.00477474 -0.00937219 0.161597 

-0.0236256 -0.0104117 0.0508257 
0.013866 0.00169153 -0.0416725 
0.0139682 0.00484741 0.139252 

-0.0396528 -0.0159587 0.0278923 
0.0446425 0.0125495 -0.0194162 
0.00416694 -0.0212848 0.136019 

-0.104268 -0.0337051 -0.375962 
0.046896 0.0100912 0.224998 
0.0241125 -0.0520247 0.0927136 

-0.0962164 0.0237774 0.588749 
-0.0553387 0.0807075 0.311477 
0.00890742 -0.0370274 0.184685 

-0.0768785 0.0589397 -0.752457 
-0.133478 0.0615437 -0.382006 
0.00227403 0.000942365 0.150316 

-0.0148811 -0.00365386 0.137245 
0.0165886 0.023841 -0.130272 
0.0476777 0.111316 0.467304 

-0.0304843 0.0780103 0.0662452 
-0.0645921 0.0187915 -0.00719422 
-0.0154498 -0.0475485 0.363982 

-0.0157507 -0.00323871 0.0438985 
0.00522281 0.0121198 -0.0330353 
0.00156833 0.00588915 0.0184081 

-0.027236 -0.0131117 -0.0430144 
-0.010714 0.00837206 0.0360596 
0.000700706 0.000845999 0.0200968 

-0.044054 0.0256553 -0.0347313 
-0.013075 0.00942738 0.0934489 