# vtk DataFile Version 3.0
Output file generated by Yade's KinematicLocalisationAnalyser
ASCII
DATASET UNSTRUCTURED_GRID

POINTS 13483 float
407.791 47.9677 -0.521477
481.989 82.4995 0.545009
105.021 5.92723 -0.491459
512.155 14.7434 -0.439073
346.173 9.3824 0.710308
255.689 57.5839 -0.499999
132.863 9.11306 0.52362
396.594 10.023 0.184977
364.375 65.0884 0.152004
467.782 12.4244 0.594544
180.144 8.57127 0.158975
219.83 9.49584 0.307494
432.796 76.9705 -0.157178
425.728 49.3027 -0.0813647
117.883 22.8967 0.556986
187.055 36.1246 0.474543
187.108 13.0007 -0.341198
241.817 20.1083 0.471462
278.848 64.3225 -0.455474
361.247 11.3781 0.544776
306.593 62.6034 -0.103338
387.675 76.4966 -0.258682
506.699 52.8166 -0.568222
475.011 95.0698 -0.427049
340.225 42.4844 0.325241
198.851 53.0868 -0.147885
358.873 69.8425 -0.461975
403.474 24.6717 0.267558
39.6874 15.8274 0.559419
460.626 32.8152 0.420799
344.74 14.6291 -0.357668
14.1557 23.7006 0.435832
493.07 86.6636 0.271143
348.852 2.34083 0.687002
68.7037 48.5181 0.116982
366.657 56.1318 -0.392096
365.981 20.337 0.616401
267.991 25.509 0.273207
367.987 31.9682 -0.347905
269.392 39.2024 0.395314
205.808 15.5209 0.370544
317.339 55.5386 0.0845525
430.051 7.51331 -0.111956
163.695 6.12315 0.496168
49.3532 7.49968 -0.0876272
60.4823 9.80285 0.255645
441.835 9.82088 -0.671566
20.8549 13.0009 -0.320361
396.021 80.8478 -0.413772
457.629 75.4503 0.315714
148.187 36.6767 0.427886
481.58 65.9328 -0.132444
30.4818 30.5757 0.118673
368.241 5.28103 0.499977
123.215 10.9535 -0.56119
401.167 48.3621 0.498664
369.6 71.4622 -0.122637
147.723 0.943669 -0.316667
28.6607 2.32841 -0.357422
270.751 20.3234 0.354348
402.732 92.1118 0.131529
328.422 69.6196 0.171965
309.673 1.03734 0.28695
451.589 8.76349 -0.580245
23.4785 46.4563 0.256775
214.761 37.8419 -0.371286
467.769 7.69799 0.358101
444.297 100.835 0.357033
324.616 11.3753 -0.532823
397.136 3.50685 -0.634384
471.048 48.2226 -0.446555
114.324 9.81572 0.264193
364.516 68.7983 -0.138546
349.41 53.2579 -0.0993256
246.206 31.3785 -0.341822
18.2876 14.9098 0.367809
502.622 82.5787 0.359039
270.195 67.1562 -0.274032
455.334 61.3903 0.523478
441.779 13.4389 0.364488
507.953 19.5383 0.400305
331.537 72.0418 0.165516
81.8938 43.1395 0.318992
461.456 90.3707 -0.25127
425.315 82.6604 0.104314
512.532 63.836 -0.253171
502.355 4.44855 -0.708923
240.606 43.9071 0.522914
429.75 32.5706 -0.102141
22.0429 6.64614 -0.667749
115.454 46.7801 -0.18763
355.111 22.2667 0.272533
500.587 68.7755 -0.513092
166.829 30.058 0.244423
39.0403 37.4157 0.321837
348.124 1.06687 -0.16095
202.917 9.20263 -0.505212
466.965 62.0931 -0.336362
488.897 61.5793 0.30977
280.761 24.9645 -0.372181
140.583 30.9944 -0.50466
373.514 61.1967 -0.421645
296.266 18.2584 -0.515087
305.718 45.1951 -0.107288
294.26 7.66019 0.528874
379.226 11.7386 -0.202672
512.265 24.6499 -0.308796
71.5832 42.4238 -0.400307
261.12 7.75895 0.195347
390.272 9.43745 0.447324
279.299 54.1922 0.453259
22.0246 26.7621 -0.511927
27.4498 6.96575 -0.474836
384.833 47.9335 0.591074
362.351 51.2949 0.159855
22.0036 41.5953 0.451192
83.2004 33.2502 -0.221201
264.422 34.0434 0.528068
411.908 30.9027 0.1548
341.383 79.5996 0.245483
481.119 10.1098 -0.514685
475.607 6.59139 -0.226158
292.225 55.9413 0.134781
421.708 64.3474 0.117321
205.669 18.7846 0.545355
259.464 7.0104 0.634549
91.0038 34.3576 0.360344
101.439 28.8337 -0.348252
372.645 56.4981 -0.0674642
255.532 36.1558 0.525772
454.43 37.8985 -0.167089
449.278 101.524 -0.104238
351.087 61.8019 0.398753
500.895 51.6053 0.306955
320.868 40.3752 -0.239974
230.861 34.8549 -0.38419
456.198 86.2122 -0.344688
230.824 40.3812 -0.483743
404.627 13.0173 -0.461436
272.506 64.6178 0.19473
348.088 20.7071 0.431958
286.286 38.153 -0.0990571
322.148 32.6708 0.113679
259.116 67.8069 0.446388
163.856 31.9628 -0.115826
484.831 79.8027 -0.153779
510.178 25.0483 -0.374494
5.75745 13.2318 -0.471761
323.765 39.9049 -0.469768
34.1934 24.7974 -0.106751
294.578 36.1691 -0.575488
299.372 38.3271 0.301412
67.1734 12.8411 0.560154
46.2495 33.8326 0.522543
196.448 15.9339 0.467312
402.824 66.999 0.473331
400.914 26.7116 -0.438561
66.4873 23.5675 0.524112
479.102 95.5234 -0.414262
493.401 2.45395 0.633598
439.706 93.3355 -0.465363
448.667 2.3705 -0.608674
383.215 30.3515 -0.513582
383.409 72.9894 0.523232
356.835 25.9563 -0.594864
511.165 5.5527 0.43484
193.002 26.3298 0.210442
111.125 43.9269 -0.215656
212.922 8.89329 0.605794
82.8122 4.94109 0.266701
57.3617 12.0689 0.336416
228.273 49.5469 0.301313
14.5421 25.5518 0.59822
387.428 21.6205 -0.526943
399.562 76.6047 -0.20867
339.912 56.3431 -0.335423
511.216 92.5976 0.368986
319.546 9.36446 -0.217541
321.021 59.442 -0.471065
373.212 3.13004 -0.190335
19.4834 25.8351 -0.479281
407.477 4.223 0.672984
380.378 4.06102 -0.280107
178.604 10.9616 0.504142
318.797 32.6336 -0.226591
247.017 9.05141 0.368313
304.88 21.8126 0.397838
459.783 52.5362 0.184299
166.228 26.84 -0.529698
495.358 16.5713 -0.408931
462.145 49.6976 0.380137
301.003 11.0726 0.248923
466.979 2.17024 0.468954
412.615 39.4766 0.571732
482.219 22.0643 -0.643782
300.362 74.0657 -0.263145
347.845 27.4909 -0.44479
332.792 83.5456 0.220266
335.611 23.5966 -0.181357
443.518 94.0774 0.256028
442.368 89.7301 0.292613
167.345 41.774 -0.389435
506.049 19.984 -0.230665
384.167 74.4055 -0.272055
10.7029 18.6739 0.191581
303.752 38.8132 0.387152
161.85 23.4785 0.46925
83.1714 44.3437 -0.270863
499.774 65.4763 -0.458843
434.75 95.7127 0.221492
266.68 50.2823 -0.35559
372.031 10.9442 0.559555
73.6229 48.0423 -0.22187
210.265 31.7563 -0.509966
390.974 27.6315 0.470923
361.283 60.5933 -0.406551
224.821 0.905571 -0.435274
377.693 66.6586 0.472606
375.739 49.5218 -0.674351
352.625 76.6978 0.371399
349.432 8.3227 -0.642968
452.452 20.5144 0.467151
154.389 13.0844 -0.186649
372.845 81.4769 0.413151
384.246 56.6722 -0.148108
65.6044 0.96979 0.389496
218.603 7.80919 0.18988
509.216 30.4141 -0.297346
507.534 21.2689 -0.465264
513.16 31.9233 -0.697625
248.457 15.6286 -0.233382
480.801 37.5919 0.560419
305.563 67.7876 0.331372
338.903 0.776652 -0.684475
430.484 84.0394 0.425459
23.1796 33.4171 0.386072
271.138 70.5237 0.484159
219.706 6.11796 0.465197
497.55 86.4031 -0.188189
479.013 105.711 0.224093
243.354 26.2316 0.22382
450.806 85.1258 0.084537
392.21 2.4368 0.378371
378.423 7.73468 0.527735
86.6004 18.9493 -0.61176
246.386 0.977204 0.300562
268.862 2.03203 -0.505979
12.586 7.85858 -0.621712
4.32586 32.2973 0.259148
139.972 22.1226 0.413072
60.8954 44.8494 0.24364
58.958 32.0493 0.299448
319.759 29.4556 -0.586264
288.814 41.9118 0.534785
478.854 67.0208 0.136921
18.1423 4.39331 -0.268484
62.9359 7.09822 -0.159023
409.008 72.9408 -0.145158
241.608 0.893262 -0.486303
285.746 19.5269 -0.183278
205.433 5.18261 -0.404743
443.209 72.0513 -0.224191
334.527 16.9091 0.536936
482.065 38.7006 0.640546
419.198 66.8844 -0.286814
455.077 57.543 -0.0950569
315.145 42.8687 0.566898
88.5285 53.2056 0.303388
387.388 92.8603 -0.0438792
485.681 18.5157 0.232175
202.082 37.1203 -0.237989
28.6866 19.2505 -0.21049
265.015 16.3578 0.529575
93.46 46.7852 -0.575645
219.885 57.1291 0.184066
333.401 4.47118 0.384312
503.866 75.9102 0.409916
444.103 0.688365 0.686141
260.561 4.56607 0.439638
249.673 45.9343 -0.202132
333.99 79.6352 0.215612
72.4644 9.94363 0.585527
171.639 49.2212 0.440022
490.239 64.8364 0.365128
367.776 83.9519 -0.0637003
174.018 43.663 -0.274921
141.189 49.5959 0.505975
515.667 57.7938 -0.556926
511.502 26.3858 -0.612991
424.824 20.8634 -0.665538
165.048 25.5073 0.184192
384.977 31.7866 0.188675
386.943 31.9985 -0.289012
323.795 6.53688 -0.256811
345.945 2.42903 -0.729816
476.482 70.0955 -0.533749
77.189 33.896 -0.249007
448.267 68.8102 -0.453183
234.687 21.3623 -0.359854
8.28214 2.5835 -0.35742
110.52 45.9672 -0.183705
60.1549 25.3505 0.619963
448.084 41.3711 0.357873
496.802 94.7298 0.182603
160.715 29.3853 0.197361
506.833 27.1975 0.433723
40.5681 39.6297 -0.270153
82.0752 31.6017 -0.155823
433.927 52.579 0.460555
310.956 32.3526 -0.628082
364.41 21.764 -0.13222
202.938 35.2929 0.195115
430.715 18.0831 -0.617182
512.974 26.3803 0.375255
25.5742 34.29 0.30686
231.142 12.401 0.374507
193.939 16.8122 0.271181
1.03921 37.1466 -0.0727726
197.24 17.1327 -0.371475
184.735 11.0006 0.155664
185.74 27.2327 -0.450587
115.547 34.7325 0.12752
383.949 16.6024 -0.452842
143.332 15.6841 -0.354659
491.983 83.3358 0.258361
149.605 3.79604 0.536053
42.2931 40.4217 -0.346433
464.452 71.8327 -0.4978
234.351 44.7773 -0.430254
460.651 71.8523 -0.425679
508.853 79.1953 0.460159
247.979 18.9718 0.174755
472.04 37.4641 -0.444513
259.659 2.53142 0.502642
311.931 39.832 -0.362502
435.964 21.1998 0.502883
94.5585 12.5297 -0.560493
347.237 5.25924 -0.59095
482.409 40.2698 -0.30479
78.4209 8.22637 -0.317446
238.061 27.7727 -0.206732
320.826 26.4236 -0.223417
512.026 2.21363 0.589122
314.396 1.75069 -0.634921
155.248 41.4937 -0.332832
487.673 19.1961 0.350255
113.081 44.5589 0.222033
221.856 38.2299 0.433628
314.775 22.2464 0.306501
406.162 15.3981 0.502809
304.148 10.2794 -0.579151
332.829 65.7709 0.484153
480.11 81.3986 0.488145
42.5736 12.0522 -0.302952
245.832 58.3942 -0.261703
298.702 30.8891 -0.443614
307.379 33.1174 0.333637
384.009 81.8585 0.368986
474.942 64.9209 -0.258546
448.14 90.8201 0.348245
191.488 39.4463 -0.433468
11.9117 34.5164 0.192516
440.339 89.7787 -0.120015
382.967 84.9344 0.412966
193.094 45.2253 -0.143391
465.164 82.9281 -0.114068
131.208 12.4355 0.299808
288.726 24.8087 0.31757
333.942 81.7169 -0.0981695
311.297 33.7897 0.325542
483.376 93.1432 -0.292671
329.199 14.3238 0.663117
43.7523 26.4668 0.318347
344.755 72.6374 0.335724
322.027 66.2354 0.345408
497.128 78.7924 -0.245984
471.507 34.6607 -0.323935
380.349 22.1044 -0.205207
490.11 74.9742 0.416242
241.179 8.72585 -0.565307
298.272 35.3197 -0.551325
24.9605 41.5572 -0.331993
466.73 43.1232 0.256849
415.653 45.1197 0.584967
338.822 4.61156 -0.621668
111.939 6.42588 -0.375978
315.488 59.7448 0.143762
10.7339 0.866249 -0.308454
509.728 6.92796 -0.379595
[...]
POINT_DATA 13483
TENSORS Strain_matrix float
0.00367615 6.21925e-06 0.304286 
0.0470137 -0.0264803 -0.416435 
0.000723047 -0.00214398 -0.0143545 

0.0278695 0.129312 5.67601 
-0.0156601 -0.0743127 3.19923 
0.0183659 -0.00835659 -0.406115 

-0.0769884 0.0717703 0.169952 
0.0586794 0.117901 0.311365 
0.0387299 0.00779754 0.0387108 

-0.176372 -0.0498204 0.131719 
0.0857103 0.0150962 -0.0916342 
0.027755 -0.0146848 0.208106 

-0.116502 0.00400871 -1.42016 
-0.0840679 0.0247368 4.52558 
0.00807656 -0.0079235 0.396149 

0.024735 -0.262141 26.3507 
0.13356 -0.138873 24.7562 
0.00400405 -0.00149726 0.117912 

-0.0475642 0.0772969 0.436106 
-0.0880589 0.053178 0.501161 
-0.0219789 0.0177671 0.00619248 

0.01832 -0.0099268 -0.0404816 
0.0158824 -0.0227754 0.0252234 
0.0058202 -0.00253445 0.0135367 

0.01057 -0.00650923 -0.097557 
0.0699396 0.00925156 -0.0213775 
0.00355397 0.000815235 0.0269481 

-0.0253439 -0.00411233 -0.00875754 
0.00295644 0.000768768 -0.0043148 
0.00154973 0.00230249 0.00382348 

-0.00274129 -0.00691222 -0.0137452 
0.00190223 -0.0110861 0.0168863 
0.00175526 -0.000801927 0.0222425 

0.0364875 -0.257112 -0.0290752 
0.178271 0.0279231 -0.0950952 
0.00635266 -0.00780586 -0.0348584 

-0.0119689 -0.0271193 0.0215864 
0.0575901 0.00742556 0.0025073 
-0.0144841 0.0130733 0.00748413 

-0.0138752 -0.0494247 -0.0230324 
0.0581821 0.0121366 -0.00470072 
0.00199787 0.000448053 -0.000204246 

-0.0205047 -0.0160991 -0.149718 
-0.0128739 -0.0314167 -0.475832 
0.0331864 -0.0637046 -0.135388 

-0.339048 -0.498214 -1.89995 
0.532361 0.431347 0.389021 
-0.012553 -0.014387 0.488328 

-0.00348634 -0.0243638 0.0167748 
-0.0186563 -0.0242359 0.00665185 
0.00106995 -0.00280902 0.0331377 

-0.965174 0.0820165 2.05838 
0.996001 0.544189 -0.686861 
0.0770321 -0.101592 -0.107238 

-0.220391 0.0214 2.00165 
-0.206126 0.00917128 2.39748 
-0.0449293 0.0324661 1.06967 

0.00304981 0.0491005 -0.0450147 
0.00121685 0.0352566 0.00792599 
-0.0134751 0.0154057 0.00114707 

-0.0315695 0.00633222 0.0201773 
-0.0400403 0.0252199 0.00117202 
-0.0354775 -0.0132272 0.279989 

-0.25872 0.561512 -0.194354 
-0.56335 0.470968 -4.68215 
-0.0366906 -0.0436268 -0.115898 

-0.000913966 0.00581632 -0.00584801 
0.00742206 -0.0122688 -0.0362183 
0.000256409 -0.0010494 -0.0116201 

0.0139314 0.0601076 -0.708193 
-0.0171795 -0.0140648 -0.275004 
-0.00816207 -0.0205147 -0.286965 

0.0127716 0.0123453 -0.00934259 
-0.0105043 -0.00468207 0.0115068 
-0.00300205 -0.0030128 -0.0191672 

-0.380516 0.234744 0.406147 
-0.0391648 0.598049 -0.77182 
0.0354768 -0.0104323 1.2947 

0.0174679 0.0418072 0.165858 
0.0579791 0.0117089 0.147206 
0.00492356 0.00121255 -0.0423795 

-0.317227 0.120435 -0.0360052 
0.0914907 0.157553 0.443675 
-0.0555135 0.0706667 0.239738 

-0.171413 0.013599 0.635429 
-0.00809972 0.0703078 -0.00772321 
0.00994578 -0.0242151 0.0837197 

-0.024652 0.0337079 0.232748 
-0.0380498 0.0849234 0.190723 
-0.0255517 -0.0538443 0.0678557 

-0.536453 0.428775 -0.955422 
-0.746014 0.539933 -0.245375 
0.17881 -0.0913884 0.132452 

-0.00810127 -0.00773782 -0.0156706 
0.0244215 0.00315051 -0.00988574 
0.000788967 0.000603493 0.0093233 

-0.0225779 0.0683959 -0.294661 
-0.0112586 -0.0265203 0.820021 
-0.00300927 -0.00780973 0.0902391 

-0.0398106 -0.163681 2.72663 
0.00778902 0.0656612 0.968457 
-0.00224073 -0.012638 0.40741 

-0.00301236 -0.0130967 0.0465442 
0.0423183 -0.0162057 -0.11389 
0.0124354 0.0565948 -0.134389 

-0.106771 0.759616 -3.4495 
-0.692328 0.938873 -1.83515 
-0.0484411 -0.0593844 1.13404 

-0.0168881 -0.0295618 -0.181415 
-0.0244826 0.0270893 -0.10433 
0.000615136 0.00882732 -0.0282858 

-0.0490468 0.0322109 -0.0264494 
0.00389035 0.0120979 0.0093693 
0.0288188 0.0104059 0.141358 

0.0185105 0.0201976 -0.00389078 
-0.0432357 -0.0215418 0.0116988 
-0.00147398 -0.00122659 -0.00849758 

-1.75789 0.746144 18.2716 
-2.16878 1.10451 20.9787 
0.0130201 -0.044452 2.3692 

-0.157275 -0.192846 0.0928499 
0.0320539 0.149259 0.0333514 
-0.0212365 -0.00335228 0.0655225 

-0.00841185 0.0549999 0.0117719 
-0.0441051 -0.00164576 0.117299 
0.00135099 -0.0136645 -0.00251649 

-0.0168588 -0.0169322 0.0145783 
0.00407293 0.0183129 0.0138178 
-0.00332818 0.00199549 0.00474097 

-0.0330418 0.00427849 0.142882 
-0.00552929 -0.00771319 -0.14716 
0.00634558 0.00107805 0.0433604 

-0.00993024 -0.0319096 0.0296997 
0.0215451 -0.00912837 0.0116189 
0.000178009 0.000779489 0.0276285 

-0.0490516 0.0102898 -0.0453814 
-0.0204351 0.0912032 -0.124952 
-0.00294626 0.0165088 -0.0364444 

0.000608451 0.113273 -0.197678 
0.00721263 -0.0673083 0.167754 
-0.0199019 -0.00620292 0.0856723 

-0.00633075 -0.00627872 0.0023725 
0.0309074 0.014048 -0.0070562 
-0.000200201 0.000526027 -0.00119976 

-0.195703 0.121173 -5.4805 
-0.0624059 0.096087 -5.20929 
-0.012286 0.0361809 0.169717 

-0.00884719 -0.0563957 0.195736 
0.0919674 0.0150823 -0.0818012 
0.00122951 -0.00585176 -0.100619 

0.00117094 0.10223 -0.989692 
-0.107771 -0.0396579 -0.223437 
0.0402019 0.00878964 -0.244496 

-0.0423769 0.0188148 -0.00620338 
0.00825869 0.0282305 0.0635217 
0.000399353 -0.00155918 0.02644 

-0.00432118 -0.0296664 0.123427 
0.0366809 0.00977568 -0.137969 
-0.0547803 -0.0122208 0.486809 

-0.00815819 0.0124969 0.00512002 
-0.0317335 0.0191283 0.047152 
0.00287593 0.000739786 -0.00803917 

-0.0515603 -0.0116392 -0.0760994 
0.0175483 0.0749737 -0.0704232 
-0.0135183 -0.00165583 0.124938 

0.0277825 0.00440439 -0.140582 
-0.00729603 -0.0535651 0.107173 
0.00275295 0.00314754 0.0274133 

0.0330656 0.074039 0.383375 
0.0646709 -0.0292124 0.38283 
0.000871711 0.00608125 -0.0264784 

-0.00166974 0.20789 0.198227 
-0.00770635 -0.0206743 -0.0387513 
-0.00218964 -0.00436825 0.0262061 

-0.064785 -0.0481123 -0.555744 
0.0379715 0.0894296 0.162367 
0.00193126 -0.00718108 -0.021404 

-0.0253784 -0.0101089 0.1754 
-0.0271594 -0.00611002 0.0124911 
-0.00473035 0.00203711 0.0790158 

-0.184429 0.652898 -0.838492 
-0.200514 0.249168 1.31738 
-0.0356622 -0.125597 1.60392 

0.0321964 0.0158013 0.0846311 
-0.0339722 0.00234938 -0.0808899 
0.00111391 -0.00608598 0.13154 

-0.00685222 0.118735 -0.0656225 
0.00812498 -0.0111319 0.0586759 
0.00116875 -0.00264442 0.0283815 

-0.0185824 -0.000777168 -0.00175602 
0.00178535 -0.00704483 -0.0275411 
-0.00180991 -0.00102823 -2.29798e-05 

-0.0385952 -0.0624495 -0.000983743 
0.0460051 0.0186171 -0.033073 
-0.00281175 -0.0125637 0.0647139 

0.000363569 -0.0611132 0.0683944 
0.0766153 -0.0344101 0.112099 
0.0195531 0.0128022 0.0503676 

-0.023088 0.0181453 -0.0307988 
-0.00888842 -0.00466545 -0.00955257 
0.00643472 0.00309012 0.0127113 

-0.00265444 -0.0440093 0.074566 
0.033374 -0.0180205 -0.228012 
-0.00943037 0.00304042 0.0354868 

0.00960101 0.114625 0.0695564 
-0.0702057 -0.0724547 -0.20538 
-0.0133456 -0.00369739 0.112553 

0.0269375 -0.0159533 -0.0905877 
-0.00245438 -0.0150665 -0.0354924 
-0.00177192 -0.000775675 -0.0152346 

-0.205586 -0.0487545 0.113818 
0.349328 0.248019 -0.936512 
0.00804392 -0.113903 -0.00780423 

-0.025353 0.078236 0.267763 
-0.0134631 0.0315461 0.155046 
-0.00472809 -0.00636974 0.0586242 

-0.00890306 0.0613732 -0.129378 
0.0699792 -0.0027572 0.113594 
-0.00301636 -0.00535758 -0.0103089 

0.0164121 0.0425517 0.0211787 
0.0233067 0.014312 -0.0268729 
-0.0234553 0.0133292 0.0122231 

0.0638133 -0.183333 -0.052891 
0.160016 -0.00367764 0.0771345 
0.0255058 -0.000618448 -0.166281 

-0.0120488 -0.00431639 0.00430075 
0.0177354 0.0144765 0.0301983 
-0.00155154 0.000204239 -0.00287173 

-0.00797891 0.0636063 -0.0683651 
-0.000825527 0.0123856 -0.0222911 
0.00269808 -0.00188487 -0.0451012 

0.0244623 -0.0771959 0.0306094 
0.0960125 0.00680038 0.0105801 
-0.0069002 0.00617747 -0.0554839 

-0.173637 0.044025 -0.185948 
-0.243388 0.141089 2.15106 
0.00562694 -0.0146545 -0.0468535 

-0.0241626 -0.0265868 -0.223977 
0.0437875 -0.00712721 0.10255 
-0.00274707 -0.00136016 0.0296915 

0.0286068 0.0201931 -0.0188048 
0.0604257 0.0246734 -0.0195658 
-0.00314766 0.0113457 -0.0142471 

0.0053677 0.00967159 0.0775875 
-0.0108398 -0.0184632 0.449749 
-0.0013869 -0.000406553 0.0255061 

-0.00549714 -0.195637 -0.201708 
0.218068 0.0775612 -0.291367 
-0.0343266 0.0270015 0.110771 

-0.0112089 -0.0312013 -0.0365927 
0.0329865 0.00438205 -0.0162555 
0.00102774 0.00171095 0.016708 

-0.0169093 -0.0705722 0.0159739 
0.0506032 0.0137707 0.0537298 
-0.000572776 -0.0026238 0.0270251 

-0.00359461 -0.000755168 -0.00211165 
0.0032835 0.000352147 0.00193434 
7.28934e-06 0.000444024 0.0032967 

-0.114135 0.0834248 -0.0267696 
-0.00977603 0.236022 0.297224 
0.0434987 0.0282877 -0.0457982 

0.0255225 -0.153614 0.0643099 
0.153638 0.0117429 0.0156936 
0.00114094 -0.000122444 0.00364541 

0.0353576 -0.0370137 -0.0149016 
0.0357279 -0.0123109 0.0115038 
-0.000848055 0.000137683 -0.0291161 

-0.016584 0.00143412 0.0131731 
-0.00604548 0.00204034 -3.02734 
-0.00180667 -0.000538167 -0.746119 

-0.000251114 0.00899054 0.00511607 
-0.0225591 0.00218729 0.00793689 
-0.00086181 -0.00258871 -0.0087397 

0.0178789 -0.0228639 0.0258231 
0.011815 -0.00647121 -0.0637713 
0.0108713 -0.00353124 -0.00908895 

0.000559708 -0.00039595 -0.0787538 
0.011118 -0.00218953 0.0523613 
0.000661134 -0.00108127 0.0260568 

-0.00442651 0.0380866 -0.0155667 
-0.0354519 0.00249909 -0.0174085 
-0.000739807 -0.0015963 0.030352 

-0.0165196 -0.056368 0.429341 
-0.0170954 -0.00673051 -1.53064 
-0.0117278 0.00798859 -0.070051 

-0.0072025 0.0430853 -0.0155777 
-0.00516774 -0.00744994 0.0281289 
-0.0129617 0.0694513 0.0448064 

-0.0319672 -0.0501213 0.197609 
0.0198275 0.0164384 -0.14924 
-0.00526376 0.00264411 0.0437067 

-0.0682902 -0.171705 0.155162 
0.270996 0.0427036 0.0211292 
-0.00340259 0.00100921 0.112967 

-0.0104824 -0.00563157 0.00188679 
0.00609338 0.00385424 0.00253275 
0.000492722 -0.000869245 0.00692772 

-0.0608769 0.049068 0.160619 
0.0218235 -0.0151411 0.0243015 
0.00380236 0.0083043 0.119476 

-0.0841669 0.053871 0.740507 
-0.0795954 0.100615 0.291327 
-0.0337389 -0.0371809 -0.108826 

-0.352221 0.0816117 0.475121 
-0.271309 0.370252 -0.71932 
-0.0433007 -0.0252923 -0.0206083 

-0.00662422 0.0463605 0.226436 
0.00544659 -0.0212098 -0.216059 
-0.00260376 -0.00117706 0.0104101 

-0.00582748 0.0124453 -0.0765648 
-0.0262072 -0.0304092 -0.129085 
0.0671503 -0.0169754 0.397188 

-0.045419 0.0702666 0.0492776 
-0.0452356 -0.00458362 0.0302458 
0.0303111 -0.00074441 0.102204 

0.0112904 -0.0136052 -0.00384475 
-0.0059445 -0.00837385 0.0189361 
0.00347316 -0.000454416 -0.0132224 

-0.013176 -0.125872 -0.00366114 
0.38346 0.128474 0.0347837 
-0.0241227 0.0194079 -0.0285529 

-0.0403419 -0.105695 0.26726 
-0.0683338 0.0427206 0.161047 
-0.00444372 0.000983102 0.132065 

-0.0251774 -0.0700863 -0.0924708 
0.0906938 0.00707176 -0.00381974 
0.0193523 -0.00376286 0.085433 

0.0241031 -0.011378 -0.0132048 
-0.00164121 -0.00447043 -0.00250998 
-0.00327818 -0.00174665 -0.0244267 

-1.32258 0.672672 1.96003 
-1.7127 1.22476 9.31039 
-0.0137379 -0.0268929 -0.318012 

-0.00393067 -0.021673 0.140173 
0.011527 0.0118093 -0.251564 
0.000588466 -8.23164e-05 -0.0212973 

-0.0660549 0.0322872 0.158515 
0.0252559 0.0282267 1.00926 
-0.00833712 -0.00055772 0.0825008 

-0.0840714 0.0981671 0.0118238 
-0.114069 0.122171 0.0152482 
0.0216121 -0.0121326 0.0429246 

-0.183992 0.532309 -1.02202 
-0.48985 0.0971126 -0.303081 
0.015023 -0.00342709 -0.165682 

-0.00811385 -0.0340919 0.00818237 
0.0349134 -0.0034957 0.106487 
-0.0016853 0.000653341 0.0382516 

-0.0314042 -0.0219788 0.0863137 
-0.0867585 -0.0273706 0.155332 
-0.0150456 0.0392625 0.127239 

-1.18732 1.77147 2.95272 
-1.25087 1.7853 0.634109 
0.0105952 0.0280486 0.443227 

0.00500845 -0.0101661 -0.0172977 
0.0055622 -0.00207377 0.010098 
0.000496836 0.00187064 -0.00532495 

0.00448016 0.00745845 -0.0514456 
-0.0150941 0.0055509 -0.0595139 
0.000622989 0.000272404 -0.00983775 

-0.0472661 -0.0401196 0.00677821 
0.0331845 0.0203607 -0.046872 
-0.00663032 0.00535716 0.0246465 

-0.0213474 -0.00646349 0.0138393 
-0.00703867 0.000450396 0.00524176 
-0.00212585 -0.00132253 0.0121471 

-0.107137 0.0194779 0.512531 
0.133515 0.0336247 0.114201 
0.00936199 -0.0128301 0.181027 

0.00731857 -0.0252791 0.0114525 
0.0384465 0.00342779 0.0173947 
-0.00173956 0.000498064 -0.0320898 

-0.151433 -0.23403 0.353657 
0.127482 0.106433 0.665837 
0.0100795 -0.00207677 -0.256699 

-0.024109 -0.0715712 0.22967 
0.14486 0.0190583 0.0610184 
0.0037954 0.00484401 0.259254 

-0.0713114 -0.137795 -1.38492 
0.218509 0.208183 -1.28732 
0.0380631 -0.0345685 0.26582 

-0.0346583 -0.116073 -0.354916 
0.181688 0.0412426 0.096233 
0.000545352 0.00559239 -0.00188194 

-0.391047 -0.155239 -1.12005 
-0.00700868 0.114387 -0.808786 
0.00614229 -0.0119034 -0.0543871 

0.0311569 -0.0397682 0.239413 
0.0477283 0.0686742 -1.57463 
-0.006562 0.000747804 0.0755511 

-0.0434425 -0.151261 0.809304 
0.156745 -0.0243966 -0.809212 
0.0231424 0.00939085 0.0409629 

0.0454724 -0.0380788 0.0681428 
0.0404332 -0.05586 0.00361333 
0.0387632 0.0582163 0.137732 

0.0084095 0.00776953 -0.00985956 
0.00736692 0.00449694 0.0280039 
-0.00123616 0.00119964 -0.0220916 

-0.000320506 0.0180263 0.0118376 
0.0106428 0.00758858 0.016624 
-0.00316524 -0.00044402 0.00717285 

-0.00915832 0.036259 0.0198378 
0.0127109 0.0183436 0.0442931 
-0.00300395 0.00102934 -0.0325751 

-0.143902 -0.460418 1.19741 
0.330707 0.322929 0.524177 
-0.00564367 -0.00428357 -0.00492041 

-0.0250572 -0.02856 0.0421221 
0.0405329 0.0107365 -0.00725524 
-0.00318953 0.00491006 0.0127599 

-0.0133456 -0.188418 -0.18193 
0.198307 0.0485362 0.682654 
-0.0155788 -0.00157433 0.209265 

0.0176133 0.03838 0.108503 
0.000991818 -0.0798625 -0.149842 
0.00532752 -0.00114526 0.0591564 

-0.00956596 -0.104923 -0.0566075 
0.0872212 0.0126573 -0.0553665 
-0.0115213 0.0059984 0.108129 

-0.218338 0.142877 -0.702487 
-0.809856 0.510075 0.681648 
-0.0591613 -0.0960832 -0.0225236 

-0.0483243 0.0194725 -0.0672572 
0.0413798 -0.00113152 -0.0460978 
0.00927934 -0.00351833 0.099745 

0.0120078 0.0419301 -0.00456957 
0.0683696 0.0152642 -0.110843 
0.00236367 -0.00449966 -0.0988043 

0.0135901 -0.0866232 0.464872 
0.130881 -0.02807 -0.288827 
-0.00163614 -0.0025755 -0.0026514 

0.00495681 0.0457702 -0.0289545 
-0.0242889 -0.00242395 -0.0355729 
0.00264829 -0.00541341 0.00213262 

0.0116093 0.0104208 0.0386706 
-0.0473693 -0.04941 0.623381 
0.0262489 -0.00237495 0.0160055 

-0.0782135 -0.0740486 -0.0400476 
0.234529 0.165466 -0.453968 
0.0135698 0.0115644 -0.00611595 

-0.00114717 -0.00337084 0.00918907 
0.0121505 -0.00760857 0.0324563 
-0.000718369 -0.000150892 0.00682349 

-0.00213093 0.0501362 0.00627415 
0.00928913 0.0155412 -0.00155379 
-8.62387e-05 -0.00156437 0.000699813 

-0.0347935 -0.0725698 -0.0220441 
0.0319723 0.0318617 0.103086 
-0.0443308 0.03302 0.0920651 

-0.24199 -0.0614802 9.70303 
0.121849 0.230844 -8.39088 
0.0144379 -0.0240836 -0.480244 

-1.37663 0.0382889 -0.0157704 
1.06039 0.649441 -0.151741 
-0.0152601 0.00957812 -0.312749 

-0.0359831 0.0747114 0.126755 
-0.0922433 0.00366393 0.170622 
-0.0175728 0.00311678 0.12344 

-0.101313 0.0115242 3.21033 
0.00619789 0.0475062 -0.447193 
0.0080298 -0.0159302 -0.270351 

0.00928999 -0.0548745 -0.104862 
0.0174906 -0.0130055 -0.173229 
-0.00665641 0.00453536 0.0490252 

-0.14673 -0.0245213 1.02212 
-0.136455 0.0426453 -0.238431 
-0.00351043 0.0142903 -0.394684 

-0.235631 -0.167341 -0.697795 
0.407435 0.129666 0.786752 
0.0171775 -0.029766 0.175959 

-0.00851996 -0.0103086 0.0983725 
-0.0205444 0.012158 0.0814237 
-0.00288849 0.000449373 -0.0767109 

0.0523123 0.128014 -0.355291 
0.0164556 -0.0833121 0.449206 
-0.00104107 0.000957119 0.00586308 

-0.070784 0.00794551 0.158208 
-0.0484789 0.0634604 -0.0099411 
0.00625547 -0.00425495 0.00078094 

-0.0158529 -0.0519761 -0.115881 
0.0530577 0.0109078 -0.0660638 
-0.0011741 -0.00320982 -0.152793 

-0.0396119 -0.0105086 0.0194871 
0.000636995 -0.0143917 -0.00768212 
-0.0012477 0.0123651 0.0405789 

0.0559182 -0.10178 -0.771624 
-0.0434076 -0.0217496 -0.610655 
-0.0124415 -0.00068371 0.0656993 

-0.395606 0.154295 3.14811 
-0.376738 0.327977 7.92885 
-0.0112215 -0.000284921 -0.10112 

0.0197837 0.0185513 -0.237262 
-0.016993 -0.0118575 0.187145 
-0.00058996 -0.00213588 0.0337072 

0.071992 -0.130846 -0.0790469 
0.254311 -0.0209786 0.0653129 
0.00208933 -0.0242663 0.0201049 

-0.109246 -0.0366372 -0.347933 
-0.0105421 0.0157516 0.418336 
0.0057726 -0.00379133 0.161506 

0.00526799 0.00338069 -0.0266973 
-0.00964696 0.000299067 -0.0190705 
0.0148617 -0.0537769 -0.125136 

-0.174994 0.00286276 -3.44618 
0.199622 0.138454 0.433071 
0.0232212 -0.0063095 0.344858 

-0.0111562 -0.00323454 0.00263753 
0.00203976 -0.000172726 -0.0042924 
0.000675436 0.000845579 0.0179367 

-0.0135716 -0.0236327 -0.00545724 
0.0214851 -0.00210762 -0.0327651 
-0.00739774 0.00240183 0.00152397 

-0.117338 0.0251456 0.744822 
0.100283 0.192217 0.461577 
-0.00411607 -0.0119452 -0.139763 

-0.00661731 -0.0172139 0.0217874 
0.0250852 0.00447705 -0.0595429 
-0.000849931 -0.00115028 0.00195284 

0.0130544 0.0113332 0.15223 
0.00830887 -0.0156997 0.0408745 
0.00108864 0.00139395 0.0316598 

-0.0350391 -0.0814524 -0.00484718 
0.0306845 0.000180028 0.0208443 
0.00411075 0.000812036 0.0397534 

0.0151555 0.0107983 -0.0363963 
0.00581606 -0.000767569 -0.0514152 
0.0303357 0.0170011 -0.00780299 

-0.00103742 -0.0269088 -0.0530821 
0.0153509 0.0101299 -0.038886 
-0.0200782 0.0039161 -0.073938 

-0.104012 0.0852011 0.027434 
-0.0299419 -0.00479484 -0.173206 
-0.00804672 0.0138572 0.167745 

0.00398 0.033987 -0.144896 
-0.0021784 -0.00513336 0.0515902 
0.00856701 0.000300737 0.0320269 

0.0163574 -0.00500538 0.0185768 
-0.00114581 0.0146611 -0.0148945 
-0.00421936 0.00473242 -0.00201638 

-0.00125555 -0.0160585 0.00277181 
0.0245286 0.00454173 0.0195926 
0.000514336 -5.01365e-05 -0.00430117 

-0.122799 -0.0176253 -0.174622 
0.0807766 0.0766214 -0.552684 
0.00187569 0.00884934 0.151921 

-0.0116583 0.00250439 -0.0522393 
-0.00314634 -0.00418816 0.00593349 
-0.000123496 0.00754081 -0.0229886 

-0.0059082 -0.0123578 -0.110134 
-0.00138974 -0.00900706 -0.038198 
0.000318662 -0.00054455 0.0182928 

0.031762 0.0821764 -0.0346221 
-0.0324156 0.0383527 -0.0815767 
-0.00309594 0.00348143 -0.039545 

-0.374382 0.416852 -0.525711 
-1.2088 0.586865 -0.709739 
-0.0287772 0.0753031 0.0563124 

-0.0255247 0.0211764 0.00903371 
0.00777368 0.0247996 -0.0117525 
-0.00197095 0.000460816 0.00826315 

-0.014988 0.0440538 -0.0561203 
-0.0881941 -0.00783653 -0.0810112 
-0.0028511 0.00184449 0.0167344 

-0.0131937 0.0597569 -0.449026 
-0.081684 0.00047191 0.172511 
-2.30588e-05 0.00662502 0.00993983 

0.00973663 -0.055244 -0.0135777 
0.0498936 0.0256157 -0.141682 
-0.000552642 -0.00319045 -0.00627832 

-0.0370723 0.0911335 -0.0240467 
-0.0802148 0.0345678 0.0645466 
0.00127187 -0.00337997 -0.00029054 

-0.0102121 0.0615158 -0.0254631 
-0.00189088 -0.00921345 0.00880594 
-0.00355115 0.00389503 0.0104764 

-0.0201917 0.00810662 -0.00175511 
0.00213887 -0.000620089 0.0077398 
0.00533265 -0.00137968 0.0327482 

0.0070259 -0.0190083 -0.124246 
0.0218608 -0.0164482 -0.0229211 
0.00131711 -0.000821981 -0.000306937 

-0.1243 -0.0441307 0.0104179 
0.156671 0.0240447 -0.516081 
0.0368277 0.0288553 0.145261 

-0.159834 -0.748627 -0.177081 
0.138708 0.0354069 3.4275 
0.00279799 -0.0182291 0.0652083 

-0.0832249 0.111902 0.660316 
-0.38897 0.1826 0.012042 
-0.0118251 0.00738237 -0.0800067 

-0.0356036 -0.00443033 0.220412 
-0.28212 0.0720044 1.09451 
-0.019589 0.0212036 0.142851 

-0.286759 -0.138368 -0.166388 
-0.206763 0.203659 -0.143317 
0.000304201 0.0067812 0.0652179 

-0.0214284 -0.0610661 -0.000527373 
0.0595429 0.019563 0.0581239 
-0.000208979 -0.000663329 0.013818 

-0.0127355 -0.0509619 -0.0224567 
0.0519614 0.0118948 0.0168648 
0.000990954 0.00046779 0.00831877 

-0.0186145 0.00904446 -0.04451 
-0.0321376 -0.00287534 0.0561742 
0.0105175 0.00204797 0.0242096 

0.0334573 0.0672604 -0.04168 
0.0168413 0.00313057 -0.0874713 
0.01303 0.0161064 -0.00109597 
