# vtk DataFile Version 3.0
Output file generated by Yade's KinematicLocalisationAnalyser
ASCII
DATASET UNSTRUCTURED_GRID

POINTS 13483 float
614.388 28.1145 0.578822
763.525 69.0052 0.474471
119.801 6.06308 -0.475952
794.57 8.00559 -0.27913
502.641 7.90638 0.276517
315.837 35.1232 -0.469494
156.583 6.98355 0.434621
575.996 10.3041 0.152508
499.054 23.8448 -0.198456
730.111 12.1597 0.544769
210.726 8.82618 0.122478
257.738 6.30261 -0.257462
662.141 32.3376 -0.204625
642.102 14.9165 -0.17444
137.118 17.2642 0.424994
221.711 34.6986 0.407358
218.069 12.9871 -0.287272
289.837 9.70052 0.3975
342.487 32.7734 -0.48055
527.834 8.58845 0.34895
412.821 36.8619 0.0981389
597.996 46.5406 0.279898
791.917 39.5445 -0.476726
708.037 46.0754 -0.479112
461.461 16.3301 -0.358249
241.528 44.3163 0.138325
493.985 27.8694 -0.493662
593.161 20.3399 0.233059
44.9917 15.9507 -0.390544
726.162 29.844 0.547868
485.367 4.98623 0.314907
16.3469 23.3866 0.323412
776.639 72.218 0.254846
498.548 2.61305 0.477243
78.0843 44.7925 -0.10028
525.498 30.756 0.388545
534.556 16.6262 0.42988
345.349 22.6612 -0.228985
537.874 25.5411 -0.314993
351.871 33.5132 0.476016
241.664 14.6944 -0.30528
436.57 35.6971 0.079455
684.908 7.0677 0.159128
192.808 6.25497 0.3442
55.237 7.06702 -0.131679
68.5104 8.98133 -0.298156
699.851 9.9395 -0.668757
23.3798 12.0405 -0.307415
618.027 45.9381 0.453851
688.239 26.7528 0.391075
172.708 32.4996 0.32278
763.233 53.4178 -0.121497
34.7138 28.475 0.125626
538.357 3.0017 0.322197
142.151 7.42757 -0.510367
601.981 33.8845 0.493529
507.443 27.2377 -0.17267
175.271 0.935509 -0.271883
32.5212 2.36437 -0.313119
350.414 17.9216 0.274318
627.885 50.2287 0.137106
464.695 33.844 -0.184828
401.619 1.02634 0.200799
710.553 9.35627 -0.37563
26.5943 43.5808 -0.234884
257.171 30.7107 0.284887
731.28 7.01184 0.497876
680.1 51.0439 0.402097
419.994 8.7254 -0.502601
576.789 3.67177 -0.351383
750.873 39.4864 -0.477145
130.78 7.72597 0.282726
501.62 26.2216 0.165809
481.038 14.9575 -0.165701
296.025 16.7479 -0.347289
20.4546 13.9056 0.29669
786.758 65.707 0.32666
334.624 39.0377 -0.299461
685.677 22.1087 -0.379575
700.285 13.5254 -0.229115
785.605 13.6891 -0.33062
468.142 34.6902 0.184122
92.5044 38.9703 0.299665
695.327 38.0242 -0.230991
658.22 40.8773 0.100847
798.83 49.4579 -0.131037
778.996 2.76755 -0.677973
292.775 28.8168 0.458465
631.433 6.79287 -0.123348
24.4336 5.60833 -0.605009
133.636 38.33 -0.158101
517.454 15.0399 0.216563
783.447 52.7597 -0.510036
196.345 29.0344 0.227857
44.2399 34.7037 0.300463
497.413 1.37503 0.132976
237.04 8.94235 -0.379761
747.198 52.3938 -0.294581
770.787 47.9118 0.256885
363.995 21.1127 -0.268919
164.46 26.936 -0.476869
556.679 38.5144 0.431017
383.034 15.7085 -0.450669
417.001 29.8676 -0.0904911
381.09 4.52682 0.411322
554.628 10.989 -0.0938474
799.154 13.1363 -0.196405
80.4145 39.7005 -0.413362
338.076 5.00051 -0.210732
569.371 9.61352 -0.362335
363.262 43.9104 0.451939
25.5403 25.2029 -0.514506
30.3306 5.8401 -0.309637
577.702 32.4836 -0.292879
510.31 24.8032 0.138428
26.0966 37.3267 0.426444
93.3296 30.9089 0.248059
327.907 16.0532 -0.276622
611.005 18.7165 -0.1907
480.231 38.1961 0.317
747.862 8.51687 -0.402788
739.871 6.16355 -0.252862
390.905 37.2539 0.095803
646.632 27.4561 0.184807
240.156 17.1248 0.48896
333.47 3.8918 0.455856
103.901 31.7424 0.385921
116.966 24.5997 -0.296034
551.907 38.7588 -0.0947318
309.21 18.9515 0.45932
722.395 36.0076 -0.116489
684.417 49.9185 -0.122695
486.452 20.7064 -0.427065
781.655 35.4688 0.294636
433.788 23.5075 -0.252588
279.435 24.4353 0.294773
686.771 33.4131 0.331528
281.758 28.4711 -0.440437
587.456 12.444 -0.200848
335.767 35.7754 0.210471
511.725 11.5513 0.483065
371.041 31.6762 0.0970664
435.749 16.8749 -0.102068
321.895 42.1597 0.430346
192.572 29.9814 0.137587
767.623 66.3985 -0.146921
796.996 15.491 -0.243567
6.05824 12.3825 -0.491311
439.915 22.5304 -0.43309
38.3219 22.8972 -0.0943475
381.264 31.3447 -0.331683
400.289 25.0666 0.260756
75.6268 12.0591 0.500959
52.1105 33.415 0.428904
228.457 13.5449 0.421339
629.812 40.1735 0.433881
589.668 21.5393 -0.514766
75.5799 21.0179 0.472856
710.71 48.9989 -0.473138
762.101 2.90867 0.63267
674.001 44.9058 -0.4831
706.629 2.44999 -0.459114
560.865 26.6855 0.424814
599.603 46.783 -0.456088
520.834 18.4903 -0.434134
793.555 4.43474 0.279478
226.285 24.9117 0.154369
129.143 35.26 0.200514
250.591 6.49432 0.389579
95.1425 4.47001 0.277587
64.823 10.2186 0.215917
279.778 36.0208 0.331729
16.4448 25.2688 0.412822
567.014 19.5385 -0.408221
618.024 41.0425 0.186561
470.309 21.2705 -0.382506
797.629 73.4014 0.353286
413.101 8.72025 -0.110725
443.086 36.4022 -0.386975
546.969 3.41575 -0.193079
22.7119 24.2996 -0.389188
589.821 4.5547 0.472472
556.916 4.3592 -0.310252
208.96 11.3195 0.488419
431.963 16.703 -0.20973
316.254 6.3201 0.364919
394.486 19.164 -0.321838
737.214 45.8595 0.135215
194.823 25.9207 -0.447528
771.205 11.627 -0.436251
739.154 42.2798 0.375741
389.691 10.2934 -0.155522
728.211 2.35658 0.492534
618.208 25.9732 -0.493872
750.422 20.9254 -0.411798
437.859 43.5113 0.26351
506.091 12.8953 0.383071
473.176 44.3428 -0.229848
453.343 8.6216 0.124975
677.79 44.5914 0.267173
675.371 40.2163 0.303917
195.072 39.1795 -0.281103
783.632 13.1421 -0.310031
601.801 47.0665 -0.243018
11.2686 16.9816 0.249729
414.474 25.4005 0.389329
189.914 23.3681 0.400596
94.1779 39.7909 -0.209238
782.533 49.4984 -0.46649
671.133 49.7094 0.239232
324.609 25.6291 -0.382216
543.845 10.2652 0.314049
83.3084 44.9826 -0.176512
251.683 25.9 -0.476534
569.679 23.8498 0.387097
496.187 18.9944 0.380423
267.162 0.886759 -0.345862
566.144 39.8646 -0.382455
545.261 40.9255 -0.473232
490.802 33.4541 -0.327803
509.619 1.6671 -0.664692
715.443 19.5646 0.499007
182.127 12.4015 -0.203346
510.362 36.9665 0.463349
578.484 40.1588 0.131589
73.8508 0.972845 0.276543
255.94 4.72225 0.185453
795.182 19.0909 0.155465
784.932 15.5815 -0.530104
800.016 20.7816 -0.702824
308.792 8.60873 -0.232176
754.03 29.8768 0.406779
414.61 41.6338 -0.311189
457.585 0.802595 -0.410489
663.28 39.5756 0.436356
27.243 31.0999 0.321512
336.644 41.7165 0.580316
256.792 2.85982 0.340618
781.194 70.1622 -0.188451
717.967 56.6259 -0.217897
292.381 11.0428 0.244456
681.151 33.1837 -0.105882
571.279 2.56732 0.270555
554.673 6.50762 0.436915
98.0009 18.6087 -0.504255
308.67 1.03769 -0.227627
349.387 2.24604 -0.371121
14.1179 7.62073 -0.45195
4.49472 31.2013 -0.278105
164.208 19.0324 0.387105
69.0029 42.0442 0.218256
67.4867 29.1379 0.370634
431.569 14.7971 -0.431532
373.996 35.1575 0.476778
760.31 54.9701 0.142972
19.923 4.12547 0.271269
71.582 6.99348 0.132864
638.038 39.9472 -0.164325
299.943 0.920242 0.370075
371.964 16.3351 -0.0953285
239.599 4.71306 -0.388417
668.501 24.3706 -0.250243
460.783 8.34128 0.43224
757.329 28.8883 -0.428044
645.465 30.7525 0.337801
684.488 20.4587 -0.164092
428.612 26.7511 0.551714
103.712 45.2651 -0.30524
555.559 42.3033 0.076276
751.799 15.2424 0.216367
242.051 30.6041 -0.263681
32.2818 17.4669 -0.208219
342.907 13.8354 0.51479
109.188 40.8164 -0.406076
272.636 42.3401 -0.215264
433.976 1.65319 -0.337788
786.928 59.6575 0.383368
700.274 0.734818 0.480364
338.585 3.45396 0.567443
305.797 26.5284 -0.15553
472.066 41.2018 0.229064
82.7409 8.27097 0.468457
201.271 45.3764 0.377601
772.186 51.281 0.364303
505.505 39.4598 -0.0858203
203.683 41.4271 -0.286885
163.327 42.5184 0.374843
802.474 44.268 -0.423172
798.577 14.8946 -0.663339
622.522 3.11263 -0.632094
193.518 24.7935 0.116861
562.673 27.615 0.113765
564.693 27.4011 -0.274564
417.674 5.74522 -0.135531
492.435 0.921049 -0.312359
758.313 58.2541 -0.51978
86.1718 31.2756 0.212046
673.499 21.3378 0.4266
279.594 15.6079 -0.35973
9.75016 2.34548 0.345767
127.721 37.0791 0.188092
68.0809 23.4433 0.520725
716.618 37.9852 0.332842
782.783 78.1046 0.179561
188.755 28.6688 -0.19586
792.331 16.9092 0.460916
45.6201 36.8314 -0.270521
92.2616 29.2855 -0.171302
650.93 13.1179 0.611421
422.06 18.73 -0.527479
531.242 16.6179 0.121667
242.562 28.5864 -0.184189
638.443 4.16483 -0.506025
799.873 14.9655 0.365951
29.9132 32.1079 0.29541
275.407 7.75164 0.196315
226.138 15.2117 0.253553
1.07083 35.7233 0.144712
229.457 14.5722 -0.376261
215.601 11.0946 -0.102933
218.285 26.4668 -0.265276
135.397 27.8549 -0.138594
561.289 15.111 -0.358786
170.094 14.266 -0.35504
775.334 69.0363 0.231453
177.286 3.79782 0.513858
47.8639 37.8378 -0.43956
738.328 55.3227 -0.426371
286.746 31.3847 -0.378548
692.695 25.2066 -0.525134
793.341 61.3611 0.449439
306.834 9.22193 -0.106489
742.945 33.7801 -0.012978
335.528 2.51371 -0.424372
425.015 24.33 0.346241
687.698 16.2382 0.430291
107.072 12.0218 -0.476757
494.139 3.81221 -0.535292
761.48 29.1409 -0.211288
89.5999 7.73641 -0.235205
287.337 14.8142 0.197882
432.311 12.0086 -0.206071
792.998 2.62956 0.465046
406.579 1.9947 -0.533123
180.015 39.0595 -0.316685
754.545 13.3655 -0.412211
131.002 36.3432 0.178588
268.263 31.4704 -0.396239
409.121 21.8554 0.22162
589.807 14.4433 -0.3011
395.526 9.81828 -0.501679
466.574 27.8481 -0.338115
764.037 67.8186 -0.369285
48.0849 11.4947 -0.16143
305.563 38.6274 -0.256487
387.86 27.1494 0.345126
418.602 21.2397 0.250487
533.98 45.0811 0.356473
755.834 53.4174 0.19324
680.347 39.9106 0.373633
230.121 34.3715 -0.384386
13.8594 31.9177 0.182167
673.631 41.2461 0.123622
520.959 41.6644 0.450769
234.083 39.38 -0.0917652
699.294 34.7092 -0.16758
153.829 9.32696 0.219149
374.453 21.5391 0.345052
473.858 42.277 0.104359
423.02 20.05 0.237308
759.734 72.4188 0.293169
435.402 3.90094 0.526581
50.4259 25.2869 0.245955
480.578 31.895 0.349155
444.197 42.9034 -0.375862
780.381 62.9584 -0.240363
741.17 31.3957 -0.305415
554.866 18.4881 -0.196308
773.118 60.6857 0.438199
299.506 2.20502 -0.464725
386.552 29.5946 0.504434
29.3084 39.1661 -0.322563
744.52 36.8013 -0.139937
626.291 20.002 0.553744
473.6 0.77527 -0.471296
128.206 4.57849 0.26858
436.13 40.1985 0.122
12.2379 0.897962 -0.316606
790.685 6.8905 -0.1175
378.219 39.3875 -0.435973
627.781 7.81028 -0.363695
[...]
POINT_DATA 13483
TENSORS Strain_matrix float
-0.0701695 -0.00825247 -0.213115 
0.00678128 0.052393 -1.47002 
0.00667517 -0.00286422 0.233077 

-0.143532 0.118507 24.3007 
0.121233 -0.0164927 -4.35456 
-0.00320203 -0.00378182 -0.331788 

-0.0132962 0.00258838 -0.0567276 
0.00218842 -0.00262392 0.0917877 
-0.000753139 -0.00147269 0.0631516 

-0.01259 -0.102558 -1.08352 
0.135798 0.219939 0.101148 
0.0252668 -0.0709337 -0.0960842 

-0.0475916 -0.0445619 0.0615805 
-0.00383743 0.0221991 0.0201852 
0.0237887 -0.00274509 -0.0245816 

-0.0187489 -0.0108483 0.0127396 
0.00958753 0.00349666 -0.149262 
-0.000525256 0.00228103 0.0274527 

-0.0202959 -0.0269278 -0.0270656 
0.0214654 0.00903468 -0.021566 
0.00134318 0.000507675 0.00615422 

-0.014266 0.0123223 -0.00757304 
-0.017074 -5.54406e-05 -0.012084 
-0.00256717 -0.000852064 0.0274713 

0.000178305 -0.0221097 0.000786458 
0.0168669 0.00882511 -0.00707569 
-0.000320549 -0.00244621 0.000890618 

-0.0831591 -0.0398273 -0.0293287 
0.0492919 -0.0278726 0.0124215 
0.00764248 -0.00252272 0.11745 

-0.0117277 0.00499223 0.00789703 
0.00465169 0.00220423 -0.00183632 
-6.84076e-06 0.000170773 0.0203909 

-0.0101991 -0.00847996 0.00888314 
0.0141339 -0.000238555 0.00202208 
0.00129165 0.000241387 0.00983594 

-0.0743609 -0.0335905 0.241106 
0.0430664 -0.0183232 -0.143706 
0.0195244 -0.009611 0.148371 

-0.131064 0.00613086 0.192378 
-0.0405612 0.0666075 -0.126677 
0.0231012 0.0336332 0.330014 

-0.0133298 0.00617656 -0.0208955 
-0.0116177 0.00184009 -0.0323159 
0.00100476 0.000562647 0.00971838 

-0.0119564 0.00581589 0.0181666 
0.00101706 0.00127594 0.0126381 
-0.000455323 0.00078879 0.0165164 

-0.00993576 -0.00224692 -0.00845387 
0.00859043 0.00747071 0.0253924 
0.00232686 -0.00139566 0.00339336 

-0.019466 0.000513446 0.0121882 
-0.00164434 0.00499763 -0.0187311 
-1.37839e-05 0.00078927 0.0221408 

-0.0349301 -0.00375684 -0.150752 
0.00840814 0.0285304 0.521888 
-0.00845355 0.00630599 0.0232211 

-0.0117143 0.00531761 -0.0360318 
-0.024907 0.0157459 0.153703 
-0.0191856 0.0112519 -0.0351839 

-0.00729519 -0.00582939 0.00311566 
0.0155617 0.000403864 -0.00340036 
0.000646204 -0.000108193 0.0165556 

0.0269503 0.0976156 0.06886 
-0.0466886 0.0451052 -0.182607 
0.00155774 0.00996468 -0.0445455 

-0.752643 -0.144958 -1.35759 
-0.783988 0.0828032 -3.05231 
0.00753197 -0.0282286 0.104726 

-0.00214945 0.0303931 0.205617 
-0.143553 -0.0152251 0.311537 
-0.00413445 -0.00432909 0.0269902 

-0.0385271 -0.0038863 0.211932 
-0.0226164 0.0223564 -0.0412099 
0.00265973 0.000747418 -0.0964108 

-0.0313328 -0.00330008 0.0351386 
0.00401769 0.0121169 -0.0342466 
0.000457125 -0.0003688 0.0130202 

-0.0139777 -0.0137385 -0.089794 
0.0138704 0.00639683 -0.0569279 
-0.000355462 -0.000302642 0.134272 

-0.0295592 0.0428024 -0.0711666 
-0.00746133 0.00948163 -0.0328827 
0.0387745 0.00868522 0.18333 

-0.0153851 0.00826175 0.0253128 
-0.00546655 -0.00860038 -0.0255327 
-0.00127724 0.00145073 0.0220026 

-0.59815 -0.269943 0.790759 
0.159038 0.233492 -0.84677 
-0.0452554 -0.0162234 0.26054 

-0.0108798 -0.00446617 -0.00940942 
-0.00317209 0.0054008 -0.0198799 
0.000341553 0.000855099 0.00153992 

-0.0122669 -0.00233708 0.0460224 
0.0181862 0.00996447 -0.0135185 
0.00123781 0.00280958 0.0178561 

0.0229882 -0.113536 0.0514018 
0.140282 -0.00980786 0.0436704 
0.00468545 -0.0122529 -0.0190565 

-0.0144546 0.0779024 -0.306758 
-0.0168788 0.0416715 -0.054778 
-0.00243239 0.00950365 0.00299566 

-0.00149832 -0.00826818 0.0234969 
0.00607546 -0.00232698 0.00359439 
-0.00013354 0.000916865 0.00516408 

-0.039138 -0.0306545 -0.202883 
-0.0172073 0.0260914 -0.571146 
0.0390574 -0.00201177 0.0396001 

-0.0239466 0.011723 0.00350099 
0.00241331 0.0240274 0.170205 
-0.00364807 0.00850645 0.0940617 

-0.0332764 0.00240405 -0.0175415 
0.0121506 0.0103851 0.00626297 
-0.000605764 -0.000231042 0.0185218 

-0.0123682 0.0061443 0.0377668 
-0.0323557 0.00930977 0.014759 
0.00234748 0.00116086 0.00101555 

-0.015687 0.00262782 0.671027 
0.00518799 0.00838909 0.458828 
-9.01499e-05 -0.000893632 0.0333223 

-0.0109876 -0.00685831 -0.00379426 
0.00619701 0.00138976 0.00116358 
0.000215052 -4.1105e-05 0.00849246 

-0.00635238 -0.0399877 0.0696036 
0.0019127 -0.0378965 0.0574803 
0.0188267 0.0199454 0.160522 

-0.0212769 -0.0326366 0.0224295 
0.0171782 -0.0990354 0.0018904 
-0.000516632 0.00874153 0.0944781 

-0.0162888 0.00743342 0.0956984 
-0.00557391 0.0150034 0.125979 
0.00777779 0.00973506 0.0253619 

0.00317658 0.0070013 0.000670777 
-0.0235013 0.000835652 0.00746618 
0.000745052 0.000481576 -0.0119395 

-0.00687584 -0.00105058 0.00278148 
0.000263259 0.00501167 -0.012362 
-0.000146242 -5.8778e-05 0.00240648 

-0.210049 -0.0372958 1.69109 
-0.105365 0.0537541 2.38965 
-0.000370926 0.006916 -0.0539854 

-0.00328605 -0.0245118 0.00279735 
0.0256069 -0.0123682 0.00192147 
0.00292257 0.0015999 0.0229573 

-0.0404246 -0.194214 -0.111152 
0.199641 -0.00278323 -0.173435 
-0.00810798 0.00331965 0.191748 

-0.0163521 0.0026032 0.310993 
0.0665737 -0.00924771 -0.682252 
-0.0664473 0.0255232 -0.147907 

-0.00635195 -0.0136843 -0.046459 
0.0108498 0.000658693 0.001496 
7.4143e-05 -0.000574224 0.015669 

0.0374428 -0.228124 -0.0119011 
0.231325 0.0575282 -0.0262956 
-0.0244638 0.00427532 -0.123467 

-0.00942026 0.000621774 0.0244479 
0.00574226 0.000294473 -0.0225356 
0.000124965 0.000456572 0.0107688 

-0.00669298 -0.00202881 0.00203465 
0.00279011 0.00217207 -0.00370756 
0.000221829 0.00052044 0.00356346 

-0.0120647 -0.00221174 -0.574595 
-0.00336069 0.000427732 -0.499107 
-0.000944491 -0.000397754 0.0920054 

-0.0776355 -0.0159717 -1.81377 
0.022932 0.0457163 1.68006 
-0.0115859 0.054675 -0.368944 

-0.0154686 0.00262565 0.0375296 
-0.000427994 -0.00910511 -0.00320686 
0.000750325 -0.00264411 0.0188176 

-0.0154724 -0.223025 0.227797 
-8.67604e-06 -0.03942 -0.0164654 
-0.000237216 0.00940565 -0.00336073 

-0.00150324 0.0211784 -0.0527273 
-0.0250453 0.011361 -0.080468 
-0.000407077 0.00147119 0.029723 

-0.010269 -0.0124288 -0.0113387 
0.0114853 0.00381493 0.00629277 
-0.00110362 0.000108089 0.0119168 

-0.0388138 -0.44207 -0.974575 
0.019949 0.232369 0.463581 
0.00201405 -0.0016872 0.377565 

-0.00380341 -0.0358457 -0.0179901 
0.00746395 -0.0114798 0.0178992 
0.00144521 -1.24093e-06 0.0188708 

-0.0115055 0.00509757 0.00305206 
-0.00262191 -0.00198294 -0.00242351 
0.000351554 0.000393159 0.0155706 

-0.123486 -0.0703316 0.0669831 
0.126345 0.0722876 -0.0435919 
0.0353189 -0.0270019 0.216356 

-0.0376393 0.00923267 -0.0308055 
0.00482613 0.00625706 -0.0400964 
-5.48861e-05 0.000378728 0.00526065 

-0.0211128 0.00508248 -0.0200549 
-0.0326586 0.0306188 0.0879744 
0.108563 -0.0999904 -0.197616 

-0.219252 -0.139945 0.418778 
0.134168 0.0176361 0.161491 
-0.0115455 0.0289766 0.194344 

-0.0567423 -0.0650149 0.390408 
0.0573556 0.0327701 -0.42666 
-0.0224085 -0.0366078 0.443349 

-0.0128332 0.0131458 -0.0699579 
-0.00791045 0.00934059 -0.190732 
-9.10691e-05 0.000478617 0.136122 

-0.0335745 0.0573694 0.0236928 
-0.0785406 0.0044577 -0.266963 
0.00541891 0.00189131 0.080867 

-0.0542547 -0.244413 -0.316705 
0.236822 0.109371 -0.291131 
-0.0491709 -0.0223515 0.0895389 

-0.0126403 -0.00672864 -0.0123344 
0.00187551 0.00518888 -0.00468285 
0.000606528 -4.25484e-05 0.00980281 

-0.0198248 -0.0357006 0.0407236 
0.0347775 0.00562337 -0.0126114 
0.00181291 0.000887084 0.0292295 

-0.0125995 -0.0112261 0.0833851 
0.00249545 7.65848e-05 -0.0678614 
-0.000583329 0.00160772 0.0169008 

-0.00941415 0.00310534 0.031139 
-0.0027379 0.00289167 -0.0247422 
-0.000392839 3.18151e-05 0.0277813 

-0.0180087 -0.0138365 0.0303236 
0.0141131 0.0070777 -0.0026514 
0.00136638 0.0020314 0.0186508 

0.134314 -0.257983 0.0462555 
0.0893656 -0.193156 -0.525713 
0.00884511 0.010908 0.0496026 

-0.0103096 -0.00553798 -0.036014 
0.00400599 0.00281275 0.00315381 
0.000174537 -0.000312391 0.0262858 

0.00744325 -0.0505044 -0.19763 
0.142486 0.0400109 -0.475666 
-0.0142314 0.0514515 0.0951066 

-0.0809955 0.0492213 0.0712524 
0.0530473 0.0443783 0.333204 
0.00236086 -0.0213936 0.185009 

0.0299131 -0.273287 0.191337 
0.00231794 -0.0551318 -0.0635926 
0.0190316 0.0170422 -0.0615756 

-0.00462416 -0.0234341 -0.0105475 
0.00181555 -0.00375864 -0.031988 
0.000876218 -0.000160824 0.0211376 

-0.011237 0.000402654 -0.0437864 
0.000213686 0.00445508 -0.0183382 
0.00225486 -0.00174475 -0.00738816 

-0.0425112 -0.0729824 0.0231159 
0.096746 0.033916 0.018413 
0.00671496 -0.0154766 0.0754896 

-0.0809843 -0.090057 -0.197738 
0.124239 0.00869609 -0.121108 
-0.00967457 0.0325987 0.142697 

-0.302517 -0.305626 0.713171 
0.150973 0.180582 -0.19163 
-0.0124978 -0.00725773 -0.0147374 

-0.317361 -0.216633 -7.87553 
-0.148616 0.332279 0.86587 
-0.00131429 0.0171702 0.461596 

-0.0203678 0.00159721 -0.00563027 
-0.00656785 -6.8572e-05 -0.0279336 
0.00151402 -0.000272164 0.0296008 

-0.153081 0.117576 -0.0432341 
0.0957687 0.112759 0.0452287 
0.00709874 -0.0480433 0.0698586 

0.00360868 -0.121508 127.06 
-0.00185284 0.0615546 -26.2826 
-0.000145022 -0.00360558 -0.264073 

0.000591326 -0.0189902 0.0402433 
0.0196901 0.00617447 -0.0858361 
0.00705773 -0.0345963 0.0681057 

-0.0656788 0.0548125 -0.061142 
0.000879058 0.0862752 -0.00348841 
-0.054182 -0.0493153 0.113216 

-0.00819498 -0.0653818 0.881984 
0.0132713 0.0725813 2.30658 
-0.00226693 0.00557473 0.0385702 

-0.0100241 -0.00452933 -0.0190364 
-0.0057749 0.00252303 -0.0223599 
0.00155454 0.000884284 0.0212967 

-0.0157137 0.00275966 0.0377349 
0.00252054 0.00128505 0.0175031 
0.0131352 -0.0215451 0.128905 

-0.0150069 0.00752681 -0.244084 
0.00204702 0.0434733 0.0432472 
-0.00168686 -0.00205586 0.0347337 

-0.0119219 0.0018642 0.0348339 
-0.000936661 0.00226254 -0.0229923 
-0.000709884 0.00010851 0.00985262 

0.0714098 -0.266747 -0.0553714 
0.236605 0.0131971 0.0868246 
-0.00015866 0.0011191 -0.0424696 

0.055724 -0.221017 0.00545569 
0.262411 0.0401182 0.0346769 
0.0021999 -0.0037217 -0.0841495 

-0.0112417 -0.00796107 0.000285288 
0.0011789 0.00381536 0.0321533 
0.00112004 -0.00104595 0.014877 

-0.0101388 -0.0175045 -0.00718576 
0.00936238 0.00181621 -0.788006 
-0.000291104 -0.000159714 0.251455 

-0.0119083 0.00179152 -0.0567784 
-0.00143004 0.000438552 -0.00549648 
0.000261259 -0.00101286 0.0221584 

-0.00850512 0.00038637 0.0775189 
0.000848081 0.00381619 -0.0643394 
-0.000223762 0.000547493 -0.00614781 

-0.0215134 0.00764237 0.00590312 
0.0103459 0.00201044 0.0146261 
0.0162752 0.0312073 0.211321 

-0.01362 0.00162732 0.0833799 
-0.00993962 0.0103209 0.0266848 
8.05081e-05 -0.000271673 0.0137728 

-0.00936759 -0.00490221 6.23621e-05 
-0.00391504 0.00338762 0.00415747 
-0.000734627 -0.00119093 0.00235315 

-0.119724 -0.010945 0.156955 
0.1138 0.0905812 0.255365 
0.00134356 -0.0093849 0.02962 

-0.0182271 0.00329625 0.00207653 
0.00210983 0.00526664 0.0967394 
0.000132856 6.32227e-05 0.00257741 

-0.0187331 0.0211967 0.00405786 
0.00746449 -0.00253967 -0.0216377 
-0.00183854 0.0040415 0.0671714 

-0.0190435 -0.00339562 0.0420108 
0.026053 0.00581495 -0.0444944 
-0.00272553 7.57541e-05 -0.0256132 

-0.0143539 0.00450443 0.160708 
0.00156704 0.00420582 0.438994 
-5.33354e-05 -0.000396045 0.00507002 

-0.0137903 -0.00116804 -1.3967 
0.00953012 0.00490279 -0.284654 
0.000501697 -4.75396e-05 0.290972 

-0.0088198 0.0460224 -0.059366 
-0.0643461 0.0238601 -0.0725023 
0.0112473 0.00393556 0.0301963 

-0.0231998 0.0272374 -0.00644131 
0.00962118 0.00742683 -0.0292593 
-0.000522787 -0.00054172 0.0198071 

-0.0133363 0.0201892 0.0309787 
-0.0159832 0.0181413 0.00642873 
0.00514903 0.0123074 -0.0268988 

-0.0137815 -0.00373003 -0.00726869 
0.00773009 0.00539816 0.0278111 
-0.000785716 -0.000570211 -0.0104912 

-0.0211518 0.00900736 0.0385375 
-0.00530609 0.00831178 0.0288462 
0.000326881 0.015623 0.0486636 

-0.0389397 0.00159386 -0.0634219 
-0.0041449 0.0209442 0.057999 
-0.0465235 0.00874335 0.252095 

-0.0223757 -0.0122292 -0.0103698 
0.0179328 -0.00191418 0.00696836 
-0.000771786 -0.00244864 0.0533259 

-0.013053 -0.0218503 -0.0626108 
0.0109151 0.00555617 -0.0090159 
0.000707838 -0.000273349 0.00246267 

-0.0315887 -0.139937 0.0158155 
-0.0225898 -0.0410991 -0.18429 
-0.0230504 0.0887709 0.187774 

-0.0586067 -0.0508512 -0.221579 
0.0123032 0.0039714 -0.066844 
0.00168414 -0.00741298 -0.00530446 

-0.00575535 -0.00268764 -0.00759943 
0.00652774 0.00184337 0.00486687 
-7.54863e-05 0.000399831 0.00719787 

-0.0298567 -0.170881 0.0868678 
0.159385 0.0167703 -0.0261506 
0.00385229 0.0116694 0.075553 

-0.0152528 -0.00316758 0.0588275 
-0.00266109 0.00636041 -0.134869 
9.99138e-05 -4.38889e-05 0.10509 

-0.029691 -0.0191565 -0.080482 
-0.00493918 0.0300825 -0.017392 
0.0279817 -0.0858023 0.231718 

-0.0101939 0.00352157 0.0269589 
-0.0116886 -0.00108804 -0.0165585 
-0.000296996 -0.000761071 0.0215498 

-0.00818033 0.00089677 0.00681435 
0.00868243 0.00390428 -0.00819415 
-0.00180752 0.00168268 0.00424908 

-0.00931188 0.00132402 0.0120981 
0.00404775 -4.59239e-05 -0.00223768 
0.000461183 -0.000148856 0.0163138 

-0.0210779 0.00262917 0.0197564 
0.0027879 0.0046819 0.0662737 
0.0401045 0.0299411 -0.318616 

-0.944226 0.273392 -1.82762 
0.249058 0.519479 0.975819 
-0.0277591 -0.0192221 0.743498 

0.00140393 0.162991 0.113882 
0.129841 0.0201423 0.436481 
-0.0141629 -0.0549978 0.0920087 

-0.0163569 -0.0198169 0.196397 
0.0112543 0.00648076 0.0867249 
-0.00652869 -0.00241123 -0.169328 

0.0817755 -0.469543 0.0745882 
0.329411 0.0531841 -0.120003 
0.0710814 -0.0262606 0.110754 

-0.0147862 0.0238525 -0.0438953 
-0.0117582 0.00538561 -0.0342562 
0.000678154 -0.00143107 0.0282234 

-0.0129107 0.016042 -0.0105502 
0.00791688 0.00633787 -0.093819 
-0.0025136 7.08027e-05 0.00997991 

-0.0719927 0.120251 0.254692 
-0.0651579 0.033378 -0.204373 
-0.00890892 0.003291 0.201938 

-0.0136461 -0.000292319 -0.0945603 
-0.00347492 0.00288475 0.0176458 
0.000443077 -0.000170247 0.0140802 

-0.0140184 0.00428969 0.0452258 
0.0343052 0.00613914 -0.0108604 
0.00388542 0.00286193 -0.00613328 

-0.0086356 -0.0128939 -0.0118116 
0.0128678 -0.000467999 0.0254546 
0.000786299 -0.000830831 0.0172941 

-0.0202923 0.0166391 -0.0234936 
-0.0192363 -0.00197168 -0.024012 
-0.000238711 -0.00289909 0.0390624 

-0.00666023 -0.000536974 0.0151022 
-0.000922797 0.00366734 0.00599032 
-0.00014983 0.00080787 0.00929737 

-0.0108216 0.018177 -0.000154999 
-0.0147552 0.0030801 -0.00242413 
-0.00215728 0.000180052 0.00913353 

-0.0133067 -0.0136146 -0.0472569 
0.00958052 -0.00468287 -0.177001 
-0.00414047 0.00101464 0.0269896 

-0.00864103 -0.00145775 -0.00921706 
-0.0062135 0.0032578 -0.0137657 
-0.000678504 0.0018929 0.0149867 

0.0879065 -0.140841 0.195681 
0.231303 0.016679 0.0821641 
0.0431203 0.037754 0.041511 

-0.146962 -0.040028 -0.247715 
0.0347683 0.0514378 -0.0968259 
-0.0197539 -0.00607339 0.0620606 

-0.0112849 -0.0232039 -0.131897 
0.0179621 5.73033e-05 0.296177 
0.00360014 -0.00168693 0.190368 

-0.0168779 0.0355634 -0.0640915 
-0.0289775 0.00546233 -0.0551515 
-0.00218209 -0.000665941 0.00977265 

-0.023282 0.0204397 0.0539749 
-0.00902948 0.00739638 -0.00151627 
-0.0126145 -0.0506311 0.178154 

-0.00814273 -0.0081821 0.00878754 
0.00479202 0.0050739 0.00394674 
0.000947395 -8.85562e-05 0.00288041 

-0.0128341 -0.00408974 0.0124031 
0.00774715 0.00384349 0.0199228 
0.00103544 -0.00383971 0.0111345 

-0.0130692 -0.0048457 0.337229 
-0.000212083 0.00404247 -0.251491 
0.0130987 -0.00316716 -0.160673 

-0.0132593 -0.00520201 0.107577 
-0.0144354 0.006295 0.0859777 
-0.00226998 -0.000143562 -0.0718211 

-0.0202587 0.018208 -0.0347039 
-0.0027798 0.013974 0.0878044 
-0.00108755 -0.0199542 0.0488651 

-0.230711 0.0900268 2.19714 
-0.0587941 0.271387 0.788628 
0.0313993 -0.00855031 -0.457038 

-0.0367909 0.0244505 -0.0397668 
0.00255855 0.0116 0.246909 
0.00182494 -0.000766211 0.047235 

-0.024879 -0.000520013 0.0227886 
0.00452192 0.0148102 0.0786867 
-0.0046558 0.00580873 -0.051869 

-0.170497 -0.647009 4.15661 
0.0982506 0.394216 -7.33712 
-0.00798057 -0.00108404 -0.867415 

-0.153026 -0.112625 0.162779 
-0.0982434 0.0199051 0.0857805 
-0.0252156 0.0310532 0.202998 

-0.0274083 -0.0706858 2.18696 
0.0817234 0.0273023 -2.4908 
0.00281147 -0.0114955 0.684158 

-0.0490409 -0.113875 0.714627 
0.146539 0.0716583 0.257967 
-0.0110758 0.00705967 0.0894568 

-0.00751 0.000396186 0.0424244 
0.00925206 0.000849719 0.0300276 
0.000835017 -0.000826161 0.0198913 

-0.040786 -0.0747632 -0.0727948 
0.0386302 -0.0463623 2.69164 
0.00405456 0.0333352 -0.0692236 

-0.0792645 0.00223622 0.313615 
-0.0552512 0.0361585 0.676251 
-0.0581215 0.0987136 0.128158 

-0.0161196 -0.0855533 0.182027 
0.0776516 0.0955543 -0.0312057 
0.000699488 0.00331291 -0.174428 

-0.0134333 -0.00667409 0.00765003 
0.0116766 0.000722016 0.0129704 
0.000607045 -0.00127451 0.0253332 

0.00167923 0.0164942 -0.0307451 
-0.00682883 -0.00195638 0.00319333 
-0.000575135 -0.00058688 0.0110138 

-0.0126864 0.00833067 -0.0286796 
0.00116108 0.00686063 -0.136167 
0.000207796 -0.00028622 0.0329353 

-0.0116681 -0.0103663 0.0361317 
-0.00342513 0.00343817 0.0198289 
-0.00024595 -0.000131437 0.0285342 

-0.00705253 0.00152699 0.00931859 
0.0045837 0.00554229 -0.000659079 
0.000598072 -0.00111978 0.00612427 

-0.0146702 0.00323017 -0.0158778 
0.00221112 0.0022027 -0.0252623 
-0.000414199 -0.00114885 0.0247602 

-0.0204699 -0.00563491 0.0298122 
0.0121766 0.0141364 -0.0764635 
-0.00930723 0.00763464 -0.00447733 

-0.00966369 0.00509984 -0.0137713 
-0.00152206 0.00400287 0.0103387 
1.9212e-05 -0.000575726 0.0238429 

0.0247427 -0.108926 0.264437 
0.144616 0.0218982 -0.165204 
-0.030254 -0.0591361 0.078859 

0.00107512 -0.0285752 -0.0858201 
0.00106844 0.000447607 0.0186935 
-0.00196099 0.0014347 0.0975256 

0.153743 -0.316031 -0.469675 
0.357911 -0.0150926 0.374661 
0.0118353 -0.0169572 0.128937 

-0.00736526 -0.00379978 -0.00349252 
0.00225592 0.00259273 -0.00531792 
0.000221254 -2.51269e-05 0.00613636 

-0.0424344 -0.0249506 0.0293397 
0.0233548 0.0317287 0.885809 
-0.00547394 0.00243656 0.36494 

-0.0110661 -0.00576887 -0.00718289 
0.00491508 0.00970019 0.00203882 
0.00202038 0.000748544 0.000761797 

-0.0106056 -0.00249321 0.0722379 
0.0042182 0.00732468 0.0409392 
-0.000679085 0.0171301 0.0219879 

-0.0227508 -0.00868292 -0.0695427 
-0.000616197 0.00927991 -0.0120606 
0.00112677 -0.0068961 0.033527 

-0.0132665 -0.00196229 0.00962716 
-0.00279151 0.0115395 -0.0296974 
0.00155257 -0.00725483 0.0303048 

-0.0120308 0.00652353 0.184625 
0.00321107 0.00394072 0.01133 
-3.98752e-05 -0.00516079 -0.0102742 

-0.0248397 0.0305583 0.0166881 
-0.0234013 0.0101798 0.010274 
0.00396156 -0.00125719 0.0289691 

-0.0220629 -0.00485007 -0.0225765 
-0.00345945 0.000193427 0.0418134 
-0.000311018 0.00136942 0.0514762 

-0.0155831 -0.0131949 0.0347228 
-0.000416037 0.00772496 -0.0313743 
-0.00327334 -0.000986552 0.00761431 

-0.0489455 -0.368658 0.197307 
0.267947 0.108226 -0.0242389 
-0.0659439 0.0554608 0.432513 

-0.0106699 -0.00146097 -0.153721 
-0.00673794 0.00341611 0.195187 
0.00102454 -0.00050328 -0.0325105 

-0.0263892 0.00980969 -0.17172 
-0.0606417 0.0857944 0.36089 
-0.0135407 0.0094289 0.106776 

0.0654292 -0.407423 0.139664 
0.441279 0.0894633 -0.0583633 
-0.00715915 -0.00552876 0.108351 

-0.013148 0.0101583 0.0178579 
0.00318744 0.00290118 0.00516125 
0.0016512 -0.000508334 0.0145714 

-0.0140143 0.022608 -0.108675 
-0.00908445 -0.0126083 -0.65907 
-0.00117226 0.000271307 0.0358726 

-0.0813058 -0.0171014 0.352736 
-0.0466326 -0.00178453 0.397861 
-0.050301 -0.0517421 0.321267 

-0.617766 -0.326944 0.387171 
0.245485 0.405556 -0.941661 
-0.126044 -0.122936 0.924937 

-0.199994 0.0397596 0.516445 
0.0274185 0.279371 0.358253 
0.0205413 -0.0300994 0.0120459 

-0.00971726 0.0203237 0.00733629 
-0.000897301 0.00416498 0.00332036 
8.27941e-05 0.000832897 0.00906672 

-0.0211582 -0.00657019 -0.0350874 
0.00821563 0.00415662 -0.0357285 
-0.00181579 -0.00020246 0.0220961 

-0.00903745 0.00656044 -0.00534739 