# vtk DataFile Version 3.0
Output file generated by Yade's KinematicLocalisationAnalyser
ASCII
DATASET UNSTRUCTURED_GRID

POINTS 13483 float
681.641 26.6781 0.411721
899.958 42.9726 0.445236
133.304 5.9455 -0.456613
954.347 4.22225 0.257716
553.754 7.37197 -0.3044
347.483 34.1614 0.426354
173.466 6.72974 0.396109
635.475 9.88823 0.133945
550.345 22.1012 0.140265
830.663 11.7546 0.349944
232.92 8.74074 -0.096423
283.803 6.25403 -0.271239
738.619 27.5305 -0.139886
713.547 13.6043 0.0751351
152.046 16.68 0.363319
245.085 33.8901 0.396004
240.699 12.6635 -0.262572
318.59 9.33414 0.380285
376.105 31.7631 0.180392
582.896 8.52847 0.338273
454.24 35.7031 0.0994871
662.316 42.2822 0.255355
949.621 27.996 -0.438627
799.201 39.6989 -0.429596
508.155 15.7631 0.28885
265.909 43.263 -0.124042
544.9 26.4531 -0.470423
655.814 18.3927 0.237397
50.0192 15.2159 -0.45857
825.003 29.5719 -0.312087
534.533 4.81577 0.315533
18.7593 22.4862 -0.282164
916.244 39.3872 -0.25803
549.13 2.49117 0.45671
86.7278 42.6848 0.100674
579.429 29.3118 0.323862
590.039 16.3259 -0.407545
379.798 21.9824 -0.175069
593.386 24.7142 -0.329853
387.336 32.3093 -0.258352
266.352 14.3855 -0.286418
480.462 34.3622 0.0658856
771.587 6.61962 -0.11518
213.748 6.11799 0.375838
61.3867 6.79566 -0.126504
75.7493 8.74937 -0.285036
791.473 8.3519 -0.422175
26.1897 11.5014 -0.301219
686.355 42.4082 -0.358713
773.397 21.6875 0.345208
191.446 31.4765 0.282499
893.907 31.8659 0.133064
38.7069 27.442 0.110957
594.237 2.92709 0.314088
157.827 7.39826 -0.453108
664.911 32.1617 0.364805
559.978 25.1234 -0.124382
193.677 0.913548 -0.267724
36.3398 2.44314 -0.266744
385.001 17.2603 0.266477
699.27 43.0964 -0.13177
512.327 32.5685 -0.171339
441.354 1.03131 0.186559
804.898 7.34446 -0.323263
29.3837 41.6747 -0.234895
283.388 29.6029 0.291467
830.751 7.17229 0.19055
764.099 41.7007 -0.346628
461.984 8.46104 -0.457463
636.436 3.46208 -0.333049
868.016 27.4342 0.353948
145.301 7.43604 0.279604
553.375 24.3812 -0.121314
529.839 14.6604 -0.110977
325.512 16.3701 -0.29971
23.0158 13.2884 0.226566
923.407 29.7281 0.319696
367.731 37.7832 -0.263761
770.486 18.6284 -0.310682
791.25 12.1462 -0.219314
935.6 10.5233 -0.177409
516.098 33.5019 -0.166151
102.587 37.0157 0.267162
784.427 31.7564 -0.204584
734.855 35.8469 0.0995357
958.106 34.1294 -0.100125
926.83 1.18092 -0.46555
322.085 28.1961 0.42154
701.23 6.16504 0.0949502
27.0839 5.20284 -0.420522
147.567 36.8234 -0.14208
570.799 13.9669 0.181733
912.815 22.5744 -0.495915
217.207 28.0072 -0.224894
49.5082 33.4443 0.262692
547.908 1.16392 0.094722
261.403 8.78087 -0.339571
871.228 36.4606 0.255447
898.355 24.246 0.244908
400.25 20.2156 -0.255079
182.512 26.1394 -0.453781
614.577 36.6862 0.416287
421.329 14.9427 -0.435388
458.927 28.6793 -0.103132
419.327 4.43404 0.408016
612.257 10.6634 -0.0917535
959.91 11.051 -0.1485
89.3336 37.8674 -0.389653
371.696 4.70668 -0.176424
628.324 9.19935 -0.311039
399.214 42.6053 0.442746
28.8255 23.974 -0.255681
33.9507 5.6817 -0.322341
637.778 30.5972 -0.392288
563.335 22.9126 0.149996
29.37 35.9524 0.149147
103.573 29.6409 0.223262
360.44 15.4693 -0.306319
676.159 18.0818 -0.119677
529.511 36.6406 0.295343
851.956 7.47647 -0.351756
841.836 6.06857 -0.170494
429.891 35.9593 0.0955405
720.989 23.8969 0.0998682
264.895 16.8006 0.488839
366.425 3.62199 0.463575
115.648 30.5762 0.322984
129.679 23.2341 -0.249998
609.454 37.2339 0.0739905
339.838 18.419 0.434409
819.028 32.4529 0.105545
769.052 40.7654 0.110194
536.504 19.8245 -0.375989
903.245 8.47014 0.254108
477.752 22.4337 0.223702
307.549 23.7307 0.318861
771.559 28.6197 0.0260026
309.981 27.7099 -0.3884
648.559 11.3183 0.166677
369.028 34.5368 0.184457
564.525 11.1366 0.408857
408.154 30.3258 0.0856524
480.377 16.0874 -0.105608
354.019 40.699 0.429425
212.904 28.9175 0.118851
905.904 40.9938 -0.149333
954.664 11.4873 -0.261277
6.71086 11.7611 -0.4673
484.731 21.7306 -0.390697
42.6919 21.7847 0.0866515
419.038 30.2245 -0.453711
440.268 24.1104 0.255519
83.6359 11.6929 0.326476
58.0437 32.1913 0.42284
252.169 13.0133 0.343426
700.707 36.7504 0.320544
651.54 19.4214 -0.427493
83.7882 20.5093 0.26492
802.113 43.2003 -0.405994
887.596 2.39372 0.404691
755.423 37.8537 -0.448732
799.563 2.3238 -0.374615
619.194 25.4617 0.387068
663.909 42.7396 -0.445592
575.275 17.7596 -0.353817
951.008 2.8695 0.207735
249.812 24.2331 0.108185
142.886 33.8251 0.192128
276.123 6.30194 0.350444
105.922 3.97617 0.232884
71.7675 9.67532 0.20273
307.702 34.9276 0.295438
18.9657 24.2458 0.34883
625.852 18.6397 -0.384553
686.153 37.3887 0.198684
518.248 20.5233 -0.334769
938.492 34.6613 -0.348064
454.555 8.30818 0.0914042
487.879 34.6457 0.360705
603.676 3.3958 -0.176859
25.7777 23.3976 -0.388743
651.556 4.2259 -0.376425
614.485 4.33991 -0.278241
230.942 11.1926 0.460385
476.009 16.041 0.180213
347.651 6.22545 0.303589
433.735 18.4829 -0.3314
856.671 39.6554 0.105203
215.278 25.1457 -0.396735
917.564 6.74456 -0.31538
855.686 35.8545 0.317169
428.666 9.84672 -0.198879
827.25 2.35511 0.380494
686.199 24.0561 -0.393388
861.197 17.3374 -0.373534
482.503 41.1035 -0.260965
557.939 12.0115 0.329294
522.064 42.7633 0.218134
499.417 8.48731 0.149142
759.286 37.1345 0.262257
756.781 33.657 0.29975
215.434 37.8511 -0.330597
933.198 10.3958 -0.108621
666.584 43.355 0.24187
12.666 16.4783 -0.165542
456.102 24.6614 0.346189
210.022 22.4989 0.394189
104.29 37.8662 -0.157188
910.456 20.104 -0.416358
751.529 41.2825 -0.225135
356.737 24.761 0.360343
600.14 9.98572 0.321627
92.2779 42.7171 0.1617
277.093 25.3892 -0.478618
628.746 22.5594 0.353856
546.749 17.8257 0.396828
294.084 0.889778 -0.341012
624.891 38.3122 -0.345949
602.117 39.5699 -0.381365
541.717 31.7753 0.376523
561.33 0.756146 -0.468886
811.93 17.5249 0.335532
201.65 11.5973 -0.173557
563.003 34.6027 0.409736
638.792 37.4925 0.109533
81.3936 0.951897 0.271892
281.873 4.66543 0.164986
953.913 13.3364 0.185824
935.946 12.4716 -0.354515
962.246 15.3728 -0.451925
339.533 8.38363 -0.226757
868.954 21.2708 0.397486
456.649 40.0497 0.307388
503.954 0.808751 -0.402593
742.752 32.8144 0.421678
30.6605 29.7782 0.294182
369.989 39.957 0.451283
282.783 2.81043 0.299813
919.503 36.659 -0.197791
823.784 44.2669 -0.218525
321.645 10.6171 0.156834
764.265 27.2236 -0.0845962
630.009 2.64395 0.222765
612.132 6.35192 0.412077
108.754 17.5142 -0.448844
339.307 1.03205 -0.21753
384.64 2.25831 -0.364312
15.7566 7.5478 -0.285579
4.83115 29.8117 -0.230342
182.044 18.4158 0.331395
76.6383 40.5354 0.212468
75.1537 27.7908 0.31468
475.377 14.3556 -0.357667
411.525 33.8448 0.459939
891.634 33.704 0.125158
22.072 3.84946 0.293493
79.0518 6.74365 0.135743
712.502 35.944 -0.136843
330.231 0.932288 0.315944
408.805 15.5641 -0.0977372
264.407 4.5802 -0.384814
747.817 20.1514 -0.173058
507.385 8.19232 0.389287
872.212 19.262 -0.345645
720.177 27.2957 0.30385
769.409 16.8056 -0.076759
471.625 25.6333 0.449024
114.673 43.1744 -0.302304
613.546 40.5099 0.0668562
858.02 12.9043 -0.178522
266.681 29.5703 -0.235464
36.3902 16.5784 0.154698
376.834 13.5241 0.467189
121.38 39.3603 0.0855844
299.949 41.2885 -0.18581
477.724 1.04652 0.195722
919.897 26.8069 -0.379635
791.302 0.794432 0.462636
372.322 2.99348 0.441453
336.138 25.8892 -0.139236
520.781 39.555 0.196249
91.5224 7.72054 -0.454183
222.633 43.6683 0.377944
901.312 26.4814 0.354845
557.764 37.3051 -0.0695411
224.818 40.4516 -0.2486
180.865 40.8479 -0.389115
961.948 30.2128 -0.37677
957.997 11.0061 -0.431312
689.628 3.37678 -0.429423
213.848 23.8923 -0.0971948
621.361 26.529 0.117031
623.457 26.2551 0.180661
459.487 5.49736 -0.139409
542.291 0.936495 -0.280588
889.307 35.7795 -0.468599
95.7571 29.7923 0.221801
753.868 17.4188 -0.413297
307.908 15.2783 -0.321636
11.2892 2.27007 0.331671
141.44 35.5346 0.190751
75.5625 22.3894 0.27218
810.997 34.26 -0.292713
926.807 40.3219 -0.160758
208.975 27.4966 -0.174261
948.752 11.1408 -0.292387
50.702 35.2463 -0.243936
102.476 28.0262 -0.153566
724.538 12.5049 0.353194
464.577 17.8311 -0.440028
586.566 16.2257 0.106928
267.307 27.6609 0.162211
709.065 4.44256 -0.419008
963.195 10.5827 0.300892
33.6838 30.8506 0.258584
303.126 7.67753 0.188594
249.636 14.6428 0.226371
1.18092 34.3761 -0.146673
253.161 14.137 -0.351033
238.005 10.8672 -0.111155
241.353 25.6953 -0.283017
149.929 27.0034 -0.131236
619.529 14.5533 -0.317994
188.447 13.7688 -0.331743
913.547 38.1635 0.214636
196.096 3.78833 0.453378
53.4631 36.3006 -0.34264
864.288 45.1928 -0.426517
315.297 30.6045 -0.372561
780.178 21.9181 0.405444
931.717 26.3045 0.483078
337.514 9.0158 -0.112788
853.566 27.8555 -0.320776
368.914 2.67308 -0.337335
467.718 23.2166 0.368874
776.643 15.3238 0.40338
119.113 11.7017 -0.340845
544.063 3.96777 -0.451305
876.286 16.9134 -0.189474
99.4825 7.49349 0.179233
316.115 14.3744 0.199469
476.246 11.4294 -0.196651
949.155 2.5095 0.361299
446.908 1.75841 -0.416299
199.429 37.7907 -0.266569
860.904 10.3138 -0.268694
144.848 34.9981 0.178168
295.338 30.6591 -0.378095
450.216 21.0796 0.207896
651.382 12.9962 -0.318066
435.26 9.92803 -0.388474
514.078 26.8035 -0.269139
901.28 42.9382 -0.361496
53.595 10.7311 -0.0893336
335.902 37.3269 -0.25411
426.517 26.135 -0.332569
460.297 20.4317 0.249441
589.786 42.9258 0.356894
881.37 33.9067 0.194259
763.133 32.7644 -0.345271
253.827 33.271 -0.385238
15.7925 30.1345 0.152785
754.869 34.3153 -0.123345
574.883 39.6258 -0.427677
258.117 38.0979 -0.0898132
788.845 29.2199 0.108059
170.56 9.00048 0.186865
412.063 20.4106 0.273642
522.584 40.6434 0.0983217
465.82 19.1421 0.18021
896.496 45.2368 -0.290982
479.167 3.31503 0.408045
56.2176 24.2273 0.165941
529.968 30.4192 0.349822
489.384 40.1956 0.351004
916.709 32.3339 -0.225141
850.622 26.9254 0.22648
612.344 17.8594 -0.15096
906.072 34.1682 -0.3728
329.274 2.04644 -0.434979
425.307 28.0836 0.182366
32.8048 37.6611 -0.292463
856.884 28.6824 -0.141194
695.372 19.1186 0.470949
521.936 0.794732 -0.458754
142.618 4.401 0.289194
480.54 38.6288 -0.104601
13.9258 0.90276 -0.314671
947.853 5.21488 0.107475
416.27 37.9325 -0.243582
[...]
POINT_DATA 13483
TENSORS Strain_matrix float
-0.044978 0.0047464 -0.00486418 
0.016199 -0.0493871 -0.401597 
-2.03044e-20 -2.80878e-18 1 

-0.055821 -0.0217973 -1.95653 
0.0105513 -0.0166466 -1.38924 
2.07897e-18 -4.70392e-18 1 

-0.0102807 -0.00191732 0.321042 
-0.00501347 -0.0974959 0.235509 
3.01111e-18 1.36171e-17 1 

-0.133067 -0.00563916 -0.202248 
-0.0104321 -0.00985227 0.0489236 
7.96967e-18 4.72977e-21 1 

-0.0247951 0.000226596 -0.0253986 
0.0371406 -0.101265 -0.00688621 
-5.33818e-18 -7.11757e-19 1 

-0.0218691 0.00335149 0.530487 
0.00597403 -0.0663678 -1.75256 
3.62665e-18 1.7508e-19 1 

-0.00101582 -0.0178943 0.0122479 
0.00466439 -0.10648 0.0011823 
-3.19407e-18 1.76498e-18 1 

-0.0348876 0.00891094 -0.0835769 
0.00512961 -0.0723418 -0.0532048 
2.34137e-19 4.89347e-18 1 

-0.0256906 0.0232229 -0.121751 
0.0213206 -0.0497094 -0.127053 
-1.60142e-17 4.96016e-18 1 

-0.101869 0.0256033 0.127854 
0.0302357 -0.029816 0.0820088 
-1.77208e-18 4.97398e-18 1 

-0.0145486 0.0217569 -0.158367 
-0.0322862 -0.0723966 0.00041441 
-8.32748e-18 -6.7067e-18 1 

-0.0360158 -0.0352768 0.00948222 
-0.0697614 -0.10052 0.00741098 
2.69514e-17 2.53636e-17 1 

-0.0394806 0.0500514 0.146575 
0.0136318 -0.0414692 0.0997919 
-1.87789e-18 -6.39281e-19 1 

-0.0803103 0.0259194 -0.276723 
0.00181362 -0.0517783 0.15938 
1.9019e-18 9.7665e-19 1 

-0.0421084 -0.0188236 -0.0791319 
0.0307446 -0.066563 0.0165729 
-2.97208e-18 9.27304e-19 1 

-0.00227735 -0.0254076 -0.0227358 
-0.0119023 -0.048561 -0.282867 
1.6467e-18 4.41041e-18 1 

-0.00320271 -0.0360614 0.121785 
0.00766584 -0.130483 -0.0412302 
6.45085e-18 6.27959e-19 1 

-0.0537017 0.0132517 0.00595541 
0.0207886 -0.0987194 -0.0572514 
-1.06822e-18 -2.41861e-18 1 

-0.0367361 -0.0552269 -0.0428254 
-0.0450967 -0.0488838 0.0728718 
8.23618e-18 -1.39557e-17 1 

-0.0286143 0.0242822 0.196601 
-0.0591953 -0.091966 -0.136639 
1.25736e-17 3.02403e-18 1 

-0.0077637 -0.000162023 -0.0964993 
0.047981 -0.04504 -0.0131808 
1.32545e-17 5.26631e-18 1 

-0.0388071 -0.0311684 0.371848 
0.042426 -0.0401804 -0.0285551 
3.31141e-18 -3.83931e-19 1 

-0.107106 0.00542782 0.181147 
-0.0115814 -0.0115071 -0.375806 
2.3089e-18 -3.62281e-18 1 

-0.0613159 -0.0121315 0.0636249 
0.00815765 -0.0279345 -0.197204 
6.66447e-19 -4.92654e-19 1 

-0.0144978 -0.0169829 -0.107435 
0.0693448 -0.0659566 0.0542771 
-6.03745e-18 -2.8397e-19 1 

0.000637429 0.0210551 -0.00908164 
-0.0652384 -0.0197807 0.187219 
3.93397e-18 -2.50344e-18 1 

-0.0314065 -0.00393361 0.289672 
-0.00591114 -0.0522871 -4.61799 
1.89777e-18 1.60999e-19 1 

-0.0408183 0.00161376 0.00847948 
-0.00712656 -0.0560517 0.0365439 
3.89982e-18 -6.58197e-19 1 

-0.0238984 0.00909197 0.456498 
0.0476016 -0.0901897 -1.55676 
7.85436e-18 -3.56482e-18 1 

-0.123162 -0.0220048 -0.0123737 
-0.0210664 -0.015545 0.103229 
2.62766e-18 3.36668e-18 1 

-0.0359789 -0.0356826 -0.0222311 
0.00917285 -0.159411 0.388946 
5.54204e-19 -3.60233e-18 1 

0.00811305 0.0111906 0.117456 
0.0537006 -0.118179 0.140783 
-7.50582e-18 -1.68881e-18 1 

-0.0704202 0.0318938 0.299773 
-0.0278564 -0.014889 0.104277 
-2.95667e-19 -8.12468e-18 1 

-0.00633096 0.00499227 -0.377536 
-0.0155854 -0.0120185 1.06019 
1.18301e-17 -2.66672e-17 1 

-0.0350846 0.0122575 -0.0203869 
-0.0312013 -0.0693261 -0.0229078 
4.43079e-18 9.91203e-18 1 

-0.0349138 -0.0263682 -0.093951 
0.00935488 -0.0464251 0.0374878 
9.0238e-18 1.33976e-18 1 

-0.0313149 0.00662431 0.258143 
-0.0101484 -0.0656935 -0.135927 
1.87545e-18 -9.98092e-18 1 

0.0408306 -0.00819896 0.106423 
-0.0352196 -0.172987 -0.0565343 
6.83226e-18 3.10634e-18 1 

-0.0211157 -0.0255671 -0.0707828 
0.0552647 -0.0646573 0.0586932 
-1.76533e-18 -6.0961e-19 1 

-0.00151162 -0.0105899 0.00922495 
0.0142164 -0.0746845 -0.0696454 
1.365e-18 5.62543e-18 1 

-0.0237982 0.0158051 0.0308793 
-0.0645565 -0.0672214 -0.0814024 
-5.61764e-18 8.03183e-18 1 

0.0262471 0.00299482 -0.0222877 
-0.0721358 -0.0533818 0.0809787 
-1.73375e-17 -4.85933e-18 1 

-0.0622751 -0.0296145 -0.0304359 
0.00299008 -0.0728577 -0.0236284 
-3.84817e-18 8.34184e-18 1 

-0.0217407 -0.0243472 0.119786 
-0.00535597 -0.0943298 -0.240107 
-2.5757e-18 -1.62265e-17 1 

-0.00904898 0.0149722 -0.0052854 
-0.0194113 -0.126806 0.156669 
5.32457e-18 -2.94132e-18 1 

-0.00867518 -0.00385199 -0.0778166 
0.0316353 -0.0935022 -0.0200423 
-8.70999e-18 -3.13168e-19 1 

-0.0869101 -0.00752891 0.128906 
-0.0067489 -0.0775604 -0.0883115 
-5.61209e-18 -2.35267e-18 1 

-0.0126053 0.011044 0.1212 
-0.0164119 -0.131325 0.0190375 
-1.16671e-17 -8.46947e-18 1 

-0.0668086 -0.0123362 0.0814405 
-0.0269787 -0.0297295 0.0824398 
3.44481e-18 5.22024e-18 1 

-0.04732 0.0195707 -0.0243492 
0.0183542 -0.06169 -0.0515354 
-3.85669e-18 -7.63063e-18 1 

-0.024408 0.0160711 0.00937684 
-0.0329836 -0.0408023 0.0479448 
3.3143e-18 -1.94715e-18 1 

-0.0500032 -0.0330862 -0.00818934 
0.0226401 -0.0461063 0.0434105 
6.55908e-18 -2.0453e-17 1 

-0.0229456 -0.00824059 0.106874 
-0.00239641 -0.0370891 0.168829 
-1.97233e-18 5.87502e-19 1 

-0.0426253 0.0138849 0.0184233 
0.0107267 -0.0684907 -0.157987 
8.22161e-19 3.98748e-18 1 

-0.027093 -0.00798289 0.670238 
0.00781461 -0.102257 -0.431742 
7.66234e-18 -4.72087e-19 1 

-0.0319824 0.00970712 -0.383349 
-0.00454749 -0.0418831 -0.202984 
1.19095e-17 -2.41491e-18 1 

-0.0471653 -0.0319603 0.0388781 
0.00722524 -0.0652125 -0.163513 
1.79115e-17 -8.85626e-18 1 

-0.0178382 0.0722357 0.100107 
-0.0218022 -0.165476 -0.0355905 
-1.41099e-17 -3.96708e-17 1 

-0.0164362 0.00450945 0.0958642 
0.021602 -0.142042 -0.145038 
1.68534e-17 -1.02938e-17 1 

-0.0260312 0.0104099 0.0408531 
-0.0459324 -0.0849242 0.105733 
2.54245e-18 5.76703e-18 1 

-0.0247532 0.0901658 0.0336735 
0.00672886 -0.0327861 -0.132923 
1.20414e-18 3.61962e-17 1 

-0.011064 -0.0316133 0.217839 
0.0442184 -0.0280937 0.211294 
-1.14356e-17 -6.31506e-18 1 

-0.0286247 0.00469689 -0.0637687 
0.00152212 0.00989734 0.0503336 
-9.06998e-18 -2.60083e-17 1 

-0.0422376 -0.0108289 0.185443 
0.0047594 -0.0834379 -0.0889871 
2.96282e-19 4.16441e-18 1 

0.0124293 0.0592999 -0.153064 
0.0070174 0.00643835 -0.00177 
-2.45935e-19 -2.33638e-17 1 

-0.0307477 -0.0294343 -0.0406972 
0.0377473 -0.0928672 0.00708602 
2.04922e-18 -4.22604e-18 1 

-0.0792578 0.0210437 -0.038805 
0.0499825 -0.0895618 -0.0437307 
7.7903e-18 8.67197e-18 1 

-0.0182596 -0.0100476 0.413405 
-0.0415891 0.0268324 0.140978 
-5.62286e-18 4.30164e-18 1 

-0.0346391 0.00243541 0.390574 
-0.0362487 -0.0998271 0.0505345 
-3.39855e-18 -9.36428e-19 1 

-0.0636153 -0.023696 0.0971126 
-0.00638303 -0.109403 0.0887496 
1.09391e-18 1.80892e-18 1 

-0.0620102 0.0133677 -0.241439 
-0.00623065 -0.0465479 -0.0861874 
-1.14155e-18 -1.30495e-17 1 

-0.00608702 0.00970327 0.0621752 
-0.00246144 -0.0987535 0.0744686 
-2.72536e-18 -6.04425e-18 1 

-0.0180643 0.0158391 0.192172 
-0.0199008 -0.0907328 0.0530701 
-2.57827e-18 -2.6726e-18 1 

-0.0173005 -0.0106462 -0.0204146 
-0.0233689 -0.0708141 -0.107449 
-2.41676e-18 1.17481e-19 1 

-0.0362317 -0.0105975 -0.103269 
-0.00308163 -0.0554992 -0.236559 
2.4297e-19 -3.82014e-18 1 

0.00223282 -0.000641733 -0.00904865 
-0.0207753 -0.110256 0.00577538 
1.16602e-17 4.48469e-19 1 

-0.0515765 0.00937316 -0.0614237 
0.0246244 -0.0564032 0.0855234 
-6.90522e-18 -6.72816e-18 1 

-0.0353041 0.0187581 -0.215165 
-0.0346459 -0.071054 0.0958919 
-2.1935e-17 3.83661e-18 1 

-0.0727823 -0.0224992 5.44037e-05 
0.0485668 -0.056829 0.159336 
3.65903e-18 3.41421e-18 1 

-0.0426864 0.012514 0.0898734 
-0.0012209 -0.0509802 -0.0121614 
-1.33683e-17 4.39958e-18 1 

-0.0932563 0.0324462 -0.0794407 
-0.0151456 -0.0714722 0.212031 
-2.8521e-19 7.87232e-18 1 

-0.00928187 -0.0177198 0.079084 
0.0180821 -0.0266333 0.0442932 
-5.94138e-18 -5.73865e-18 1 

-0.0179538 0.0203585 0.0317552 
-0.0191645 -0.04074 0.0912141 
-5.95785e-18 -3.01284e-18 1 

-0.0243269 -0.00357534 -0.123851 
0.015734 -0.0547917 -0.0135857 
-7.02829e-18 -5.8492e-18 1 

-0.033563 -0.0013661 -0.109287 
-0.0251354 -0.0372534 -0.0283153 
1.84732e-18 -7.69297e-18 1 

-0.0457579 0.00423328 0.00571269 
-0.0245059 -0.0123241 0.0671676 
1.04887e-17 2.75703e-18 1 

-0.0932028 0.0166015 -0.691464 
0.0088782 -0.0630089 0.370564 
-4.50922e-18 -1.32372e-17 1 

-0.0159436 0.00438712 -0.187619 
0.0337016 -0.0705524 0.0835769 
6.45708e-18 -6.66016e-18 1 

-0.0417615 -0.00470692 0.0150841 
0.0473586 -0.0854725 -0.0908781 
-4.63695e-18 3.95361e-18 1 

-0.0363825 -0.00494875 0.0738077 
0.0078536 -0.0906133 -0.246277 
2.59076e-18 -2.47446e-18 1 

-0.044226 -0.037712 0.095163 
0.00733678 -0.0531096 -0.0163247 
-5.07907e-18 4.06326e-18 1 

-0.0175032 0.00872824 0.0234327 
0.0181769 -0.0757855 0.104873 
3.13901e-18 -4.94632e-18 1 

-0.0975706 -0.0165454 2.76929 
-0.00449899 -0.033043 -1.80066 
3.21827e-18 -5.9242e-19 1 

-0.018401 -0.0109867 0.0923941 
0.00195563 -0.0723855 -0.064704 
-1.16396e-17 -7.05591e-18 1 

-0.0216878 0.0142724 0.0183916 
-0.00242592 -0.0330487 -0.145404 
-4.66783e-20 5.04126e-18 1 

-0.021589 -0.0258453 0.123063 
-0.0208371 0.00513743 -0.284508 
-6.13318e-18 -4.08816e-17 1 

-0.0390356 0.00431156 -0.0388971 
-0.0133712 -0.0623413 -0.00694694 
-1.33502e-18 -3.45534e-18 1 

-0.0629888 0.00675736 0.0802578 
-0.0179372 -0.0371631 0.0801619 
-1.70209e-18 -1.17394e-17 1 

-0.0790885 -0.00766911 -0.00496415 
-0.0112377 -0.0208459 -0.0357531 
2.66665e-18 -5.69877e-18 1 

-0.00509731 0.0193803 0.116053 
-0.0422595 -0.0794098 -0.0488133 
3.56067e-18 2.60537e-18 1 

-0.0207703 -0.0121373 2.13248 
-0.0109078 -0.0561068 -3.69793 
5.06898e-18 1.11027e-18 1 

-0.0331668 -0.00073582 0.0669134 
0.00187715 -0.0472805 0.46814 
-3.73506e-18 -2.81089e-18 1 

-0.0165013 0.0202993 -1.15604 
0.0208043 -0.105261 1.57701 
6.7584e-18 3.23121e-18 1 

-0.0264713 0.00746225 0.000345438 
-0.0407661 -0.0599994 -0.00947933 
6.9207e-18 2.11588e-18 1 

-0.021807 -0.0190991 0.017856 
0.0212028 -0.094538 -0.142544 
2.63642e-18 7.91161e-18 1 

-0.0305132 0.0116101 0.226437 
0.0345843 -0.0828978 0.0448269 
-3.81133e-18 -9.26426e-18 1 

-0.0663887 0.0202773 0.0265856 
-0.016149 -0.0483336 0.0134267 
-8.88213e-18 -2.88937e-18 1 

0.000622597 -0.00500059 0.233563 
-0.011874 -0.0577256 -0.269001 
2.60249e-19 5.16884e-19 1 

-0.0336382 -0.0164137 -0.0500414 
0.00371647 -0.0928358 0.075326 
-2.84212e-18 -3.29889e-18 1 

-0.0466778 0.0264318 0.273971 
0.0229407 -0.0962193 -0.501134 
4.15902e-18 1.11974e-17 1 

-0.0210233 -0.00518108 0.0299659 
0.0233892 -0.0576507 0.626991 
-3.21138e-18 2.90407e-18 1 

0.00917495 0.053115 -0.0921345 
0.000443102 -0.0772402 -0.0636031 
-1.14258e-17 4.42071e-19 1 

-0.0235536 0.0105528 -0.0694154 
0.00152419 -0.121886 -0.04271 
3.64557e-19 -9.72153e-19 1 

-0.0123239 -0.00153238 -0.465584 
0.0178817 -0.0521538 0.338895 
-1.25664e-18 1.61967e-17 1 

-0.0417323 -0.0307057 -0.0226282 
0.0266099 -0.0620588 0.152767 
-4.97106e-18 -4.26539e-18 1 

-0.0302757 0.0282277 0.0761475 
-0.0244824 -0.020957 0.00178259 
-8.18463e-18 -3.63392e-18 1 

-0.00112311 -0.00963 0.059381 
0.0532896 -0.0889665 -0.168055 
6.38828e-18 5.11576e-18 1 

-0.0269959 0.0123184 -0.0632498 
0.0458276 -0.0695625 -0.0796959 
2.8393e-18 -9.29225e-18 1 

-0.0371889 0.038736 -0.0256246 
-0.0440709 -0.0778062 -0.0186196 
9.6564e-18 -3.67863e-18 1 

-0.0461067 0.0315564 -0.00556384 
-0.0147573 -0.0149754 -0.0966284 
-8.76149e-18 -4.19885e-18 1 

-0.0676737 0.014309 -0.0747084 
-0.000629797 -0.119666 -0.105166 
-8.30264e-18 -6.26934e-18 1 

-0.0578832 0.0220964 0.0445849 
-0.036612 -0.0595015 0.0209346 
-5.72741e-18 -1.97732e-18 1 

-0.0249172 0.00360855 0.0705998 
-0.0285241 -0.0220463 -0.0393225 
4.62954e-19 4.04815e-18 1 

-0.0424729 0.024958 -0.130662 
-0.0338243 -0.0466165 0.0757742 
-2.88207e-18 -7.87934e-18 1 

-0.0169709 -0.00650322 -1.0617 
-0.00325971 -0.0806574 -0.620936 
7.38643e-18 -3.72927e-18 1 

-0.0270976 -0.00520675 -0.0966137 
-0.0114755 -0.128861 0.262 
4.091e-18 8.34792e-18 1 

-0.0459483 -0.0147698 0.0596627 
0.039799 -0.0503878 -0.0610896 
-9.30092e-18 -3.36381e-18 1 

-0.0567457 0.0312859 -0.0390724 
-0.0062487 -0.0587057 -0.0266093 
2.25141e-18 1.63033e-17 1 

-0.0246147 0.00418264 -0.0688499 
-0.039745 -0.0425721 -0.150998 
2.51689e-18 -5.26546e-18 1 

-0.0218532 0.00191763 0.435467 
-0.0104315 -0.0704356 0.326158 
-1.9467e-18 -2.14056e-19 1 

-0.0413528 -0.0347668 -0.111865 
0.0284552 -0.0168898 0.0389177 
-6.38819e-18 -1.6878e-17 1 

-0.0826318 0.0255477 0.0845346 
-0.00588937 0.0292107 -0.012959 
-5.46645e-18 -5.5488e-18 1 

-0.0220066 0.0131984 -0.238719 
-0.00780706 -0.0653545 -0.392193 
7.64234e-18 -1.96517e-19 1 

-0.0891631 -0.00913891 0.0517959 
0.0430083 -0.0661548 0.00632226 
8.10054e-18 5.86223e-19 1 

-0.0175879 -0.00336719 0.0460357 
-0.024325 -0.0403374 -0.0230698 
-1.19593e-17 -3.94112e-18 1 

-0.0156701 0.00235778 -0.190197 
-0.0162297 -0.0460417 0.415815 
-1.39023e-17 8.49047e-19 1 

-0.0724701 0.000757765 0.00256749 
0.0249734 -0.0193998 0.0704792 
2.51836e-18 -2.31123e-18 1 

-0.0494074 -0.0129777 0.0275749 
0.0379702 -0.0643388 -0.0123047 
4.45162e-18 3.87294e-18 1 

-0.0321007 -0.00164805 -0.0136783 
0.0161923 -0.0763122 0.0882168 
4.30997e-18 3.20689e-18 1 

-0.0312291 0.00892939 -4.29903e-05 
-0.0773971 -0.0333295 -0.196986 
-1.02987e-17 -1.53888e-18 1 

-0.0312167 -0.0202986 -0.0204626 
0.00358418 -0.0642985 -0.0232706 
5.43339e-18 -2.84785e-18 1 

-0.0195152 -0.0145413 -0.0252723 
0.045905 -0.0547658 0.0435395 
-6.25313e-18 2.25656e-18 1 

-0.0084515 -0.00045224 -0.0509774 
-0.0161001 -0.0559566 -0.0942029 
-7.7217e-18 9.93601e-18 1 

-0.00782838 0.0166473 0.409509 
-0.00708773 -0.0328198 -1.43824 
-7.69359e-18 -1.63171e-17 1 

-0.0133462 0.0269871 0.0286994 
-0.0142292 -0.0440921 -0.0954793 
3.25569e-18 1.64955e-17 1 

-0.0322223 -0.0296408 0.116322 
-0.00564606 -0.0064308 0.104183 
4.19337e-18 -3.87333e-18 1 

-0.0782207 0.00809059 -0.000952453 
0.0110008 -0.0658756 0.0265398 
8.72586e-18 1.35251e-17 1 

-0.012948 -0.0100201 0.717116 
0.012998 -0.138057 -0.708515 
9.25334e-18 1.11318e-18 1 

-0.0329113 -0.0134332 0.0950871 
0.00086234 -0.0758094 -0.210115 
6.38076e-18 -2.18769e-18 1 

-0.0064081 -0.0182074 -0.0289893 
0.0113915 -0.0611682 0.0629893 
-2.40486e-18 -3.83378e-18 1 

-0.0133861 -0.0109262 -0.403969 
0.0180856 -0.0576302 1.69021 
4.80261e-18 -4.26236e-18 1 

-0.0315419 0.0352934 -0.00189911 
-0.00632292 -0.0659698 0.0277314 
9.49708e-18 5.20292e-18 1 

-0.0290064 0.0154947 0.0889965 
-0.0023181 -0.07214 0.0922841 
1.09101e-17 5.58348e-18 1 

-0.00862901 -0.00774418 0.339536 
0.0112571 -0.0599241 1.6477 
2.34079e-18 -7.26528e-18 1 

-0.0284444 -0.0335714 0.0412194 
-0.0113053 -0.0681808 0.0410477 
9.42059e-18 6.58003e-18 1 

-0.0696265 -0.0150083 0.152454 
-0.00586549 -0.00872655 0.169844 
-3.09323e-18 -6.75627e-18 1 

-0.0426264 0.0059595 -0.145665 
0.0253051 -0.0578794 0.225133 
-3.28967e-18 3.81702e-18 1 

-0.03247 -0.0205932 -0.117524 
-0.00970056 -0.0533979 -0.0512812 
-1.47383e-18 -3.9637e-18 1 

-0.0467687 0.00806298 0.0210902 
0.0258961 -0.0330609 0.00106768 
4.6165e-18 -2.03208e-18 1 

-0.0913149 0.027228 -0.197295 
0.0295413 -0.118053 0.0832195 
4.89761e-18 -6.4355e-18 1 

-0.0425218 -0.00993338 0.31461 
0.00529642 -0.0313318 0.866602 
-1.21189e-17 -2.17426e-18 1 

-0.040127 -0.00927592 0.114784 
-0.0139221 -0.0971516 0.000673268 
5.66745e-18 -1.16716e-17 1 

-0.0335031 0.00129796 0.128689 
0.0135473 -0.0650404 -0.259648 
3.92973e-18 3.09467e-18 1 

-0.0335863 -0.0701889 4.34171 
0.0179027 -0.0805603 0.842731 
1.06544e-18 1.69637e-17 1 

-0.0198808 -0.0213487 0.0645014 
0.0583357 -0.0949567 0.22147 
7.50385e-18 -5.09853e-18 1 

-0.0958019 0.096397 -0.141476 
0.00829453 -0.0943203 0.207593 
-6.98264e-19 -6.56368e-18 1 

-0.024615 -0.00256643 0.000182769 
0.0217412 -0.0524654 0.0272707 
-1.13811e-17 -4.5922e-18 1 

-0.040844 -0.00168465 -0.146286 
-0.00192365 -0.0329045 0.154148 
1.80013e-18 2.6903e-18 1 

0.00631476 -0.0824158 -0.275773 
0.0132839 -0.129608 0.0169175 
-1.42609e-17 -1.0256e-17 1 

-0.0186598 -0.00246519 -0.0304546 
-0.0182622 -0.132316 -0.421883 
-4.15923e-18 -6.64321e-18 1 

-0.0226355 0.00298596 -0.097317 
-0.0195441 -0.0836441 0.0489783 
4.89901e-18 4.77551e-18 1 

-0.00575724 -0.0102894 -0.0149876 
0.00832653 -0.0582021 0.039127 
-1.88859e-18 8.76561e-19 1 

-0.00656912 -0.015749 0.0684082 
0.0289143 -0.112917 0.0992128 
-3.7789e-18 -1.27249e-18 1 

-0.0517629 -0.00980088 -0.287295 
-0.00162859 -0.0428377 0.159134 
3.96171e-18 -2.65293e-18 1 

-0.0295845 0.0188074 0.00301675 
-0.0368306 -0.0242046 -0.0379107 
1.26743e-18 7.86247e-18 1 

-0.0528133 0.00693813 0.0458766 
-0.0119417 -0.0859881 0.0441308 
-6.80518e-18 -2.42561e-18 1 

-0.0794314 0.0323001 -0.0130147 
-0.00996963 -0.00757491 -0.156946 
6.64817e-18 -1.21017e-18 1 

-0.0302271 0.00646671 0.0189132 
0.0129461 -0.0697154 -0.131295 
7.0913e-18 -5.32769e-18 1 

-0.0328852 0.003192 0.264736 
0.0180156 -0.0291579 -0.156394 
-1.23408e-18 -4.96678e-18 1 

-0.0301705 0.0362647 0.0296728 
-0.0275711 -0.101145 -0.0321072 
-2.16829e-18 -6.01812e-18 1 

-0.0431706 -0.003004 0.0632436 
-0.0661695 -0.0947167 0.0707147 
1.36113e-17 -1.84815e-17 1 

-0.0410946 -0.0282064 -0.0536963 
0.0364641 -0.110602 0.0280266 
1.53498e-18 2.64107e-18 1 

-0.0229121 0.00278502 -0.081913 
-0.0380062 -0.0721533 0.0476208 
-4.75264e-18 -4.47845e-18 1 

-0.0281528 0.00477288 -0.508063 
0.0210806 -0.087042 0.12481 
-1.07388e-18 -7.54717e-19 1 

-0.0356608 -0.00946634 -0.016462 
0.0507703 -0.0502106 -0.144074 
3.69919e-18 2.47205e-18 1 

-0.0435062 0.0132236 0.0168872 
-0.0735648 -0.0670711 0.128639 
-1.59894e-17 9.54203e-18 1 

-0.0254147 -0.00676459 0.0488629 
-0.0124883 -0.0733598 0.177184 
4.13059e-18 -1.89477e-18 1 

-0.0806143 -0.0586368 -0.196311 
0.0319723 -0.0308353 -0.00495977 
1.49277e-19 -7.50979e-18 1 

-0.016452 0.0154786 -0.182135 
0.00915212 -0.0968787 0.0349636 
-2.0861e-18 -1.07678e-17 1 

-0.0401187 0.0651732 0.157885 
-0.0308798 -0.0689432 -0.0111737 
1.41745e-18 0 1 

-0.0539025 -0.0298303 -0.084376 
0.0462301 -0.0333797 0.029599 
-4.40632e-18 -1.13387e-17 1 

-0.0190799 -0.0320984 -0.13959 
-0.0241647 -0.0888091 -0.0445964 
4.66916e-18 -3.00161e-18 1 

-0.0638419 -0.00215043 -0.051068 
-0.0132092 -0.0636661 -0.341561 
3.80146e-18 -5.07383e-18 1 

-0.0478545 0.00696808 -0.309311 
-0.0120176 -0.0495096 -0.213159 
-5.26081e-18 3.15042e-18 1 

-0.0804123 0.0412872 0.0416291 
-0.0254571 -0.0730968 -0.0107465 
1.14389e-17 1.3194e-17 1 

-0.0416027 0.0170297 0.125909 
-0.0168076 -0.0269015 -0.030689 
1.45488e-18 -1.63647e-17 1 

-0.0229722 -0.0162075 -0.128042 
0.0342245 -0.111123 -0.166983 
6.79813e-18 -3.19375e-19 1 

0.00401156 0.0804157 -0.0478854 
-0.0562659 -0.116093 -0.0462212 
-1.62362e-18 4.36347e-17 1 

-0.0142498 -0.0176925 0.00274057 
-0.0307456 -0.100583 0.201654 
-6.67157e-19 5.15101e-18 1 

-0.0359209 0.0110355 0.0355357 
0.00743296 -0.0286512 -0.026242 
6.90576e-19 -8.7473e-18 1 

-0.0415381 -0.000763583 0.0370901 
-0.0058764 -0.0651454 -0.0288278 
-1.32633e-18 -2.8024e-18 1 

-0.0297338 -0.00388292 -0.00228976 
0.0357979 -0.0521684 -0.10178 
1.13939e-17 -6.07323e-18 1 

-0.0953559 -0.00372282 -0.0134321 
-0.00308576 -0.0404051 0.186208 
-1.10145e-17 1.83329e-18 1 

-0.0353695 -0.0326609 0.281564 
0.00901266 -0.0446167 -0.558414 
-2.36804e-18 1.7205e-17 1 

-0.0231869 -0.00187885 0.00651746 
0.0383077 -0.0850155 0.0100314 
-4.38975e-18 7.87888e-18 1 

-0.0274946 0.00858684 -0.0583784 
-0.0231671 -0.0615454 -0.207731 
-1.60154e-18 4.29432e-18 1 

-0.02318 -0.00901006 -0.017163 
0.00379586 -0.0649324 0.493552 
3.85171e-19 -7.0101e-18 1 

-0.0426962 0.0169961 0.190233 
-0.00688593 -0.0338808 -0.119203 
-7.1929e-18 -1.28659e-17 1 

-0.0989327 -0.0151587 0.157016 
-0.0209939 -0.0430719 -0.466192 
3.8617e-18 6.66896e-18 1 

-0.0268305 -0.00770655 0.0624714 
-0.0151671 -0.0309055 0.106437 
-1.13393e-17 -1.79608e-18 1 

-0.0226104 0.0118448 -0.175384 
-0.03991 -0.0609209 0.479235 
1.49778e-17 -2.31315e-18 1 

-0.0667303 -0.00430747 -0.0343159 
0.0180989 -0.0680949 -0.480617 
-2.70871e-19 -4.53709e-18 1 
