# vtk DataFile Version 3.0
Output file generated by Yade's KinematicLocalisationAnalyser
ASCII
DATASET UNSTRUCTURED_GRID

POINTS 13483 float
481.972 47.1898 -0.509729
562.997 78.237 0.581171
109.547 5.85686 -0.606563
592.465 12.3811 -0.350985
415.343 10.3726 0.448618
287.11 40.3106 -0.524403
142.61 7.42793 0.456397
469.553 10.3481 0.157699
426.204 48.9603 -0.141937
543.068 12.2965 0.59486
193.823 8.82407 0.148361
236.878 6.94886 0.319993
509.828 73.8472 -0.156388
500.106 47.492 -0.0990733
125.26 18.7428 0.541471
202.958 35.452 0.412917
200.995 13.1942 -0.304715
265.674 11.1624 0.515407
310.269 40.8527 -0.458351
432.885 9.09899 0.564936
365.573 45.1705 -0.114398
455.798 72.1436 -0.282734
588.765 48.0498 -0.543698
553.47 88.8189 -0.42967
401.659 27.6625 0.426164
220.888 47.032 0.133691
420.878 53.8924 -0.502298
477.216 23.8074 0.403918
41.0765 16.5761 -0.349982
536.933 32.8836 0.507537
410.585 9.93749 -0.338596
14.8203 23.8922 0.493503
573.992 82.9777 0.274994
416.492 2.3173 0.704454
72.02 47.2537 0.105716
432.958 43.9618 0.338411
437.595 18.5155 0.531594
312.256 24.9246 0.252027
440.159 29.8984 -0.320006
314.115 38.5157 0.521483
222.146 15.3318 -0.301106
379.422 43.1453 0.074629
504.913 7.61968 -0.167316
176.889 6.25232 0.425905
50.7699 7.4401 -0.08416
62.2311 9.08519 0.239287
516.606 10.1934 -0.64402
21.2274 12.8935 -0.314784
470.188 77.5857 0.366675
534.816 69.1247 0.350818
157.494 32.999 0.367878
563.33 61.6884 -0.137474
31.5954 29.8728 0.133699
440.128 5.54909 0.647896
130.7 7.59871 -0.461751
475.337 47.7935 0.499693
431.206 54.8731 -0.141166
160.269 0.935955 -0.288634
29.1897 2.27563 -0.384131
315.635 20.0243 0.337999
476.337 88.5432 -0.134276
392.056 55.4135 0.170181
356.72 1.03281 0.225404
526.645 8.99775 -0.571165
25.1717 45.8485 0.258235
236.258 32.5837 0.290304
543.185 7.59197 0.334439
524.561 95.7947 0.354873
373.244 10.0607 -0.567371
470.025 3.63797 -0.62279
552.215 46.2548 -0.5004
119.802 7.91548 0.276947
426.556 52.7302 -0.131413
411.928 37.5122 -0.106812
271.432 17.3709 -0.372605
18.6582 14.856 0.348441
584.346 78.1596 0.32556
301.909 44.939 -0.326092
533.051 58.3637 0.346197
516.404 13.9188 0.380446
587.034 16.3232 0.43128
395.09 57.7895 0.172124
85.4213 40.8501 0.310843
540.115 83.32 -0.250566
502.875 80.2256 0.112237
594.476 59.1604 -0.241738
581.493 3.66459 -0.731293
267.892 30.9053 0.481254
503.205 30.8718 -0.127203
22.3847 6.5345 -0.670243
122.893 41.5816 -0.205019
426.722 19.4658 0.280347
582.47 64.1962 -0.51139
180.016 29.4359 0.259229
41.0477 35.8873 0.302879
415.828 1.07541 -0.214842
218.186 9.11939 -0.465898
547.785 59.1025 -0.335416
570.62 57.2443 0.301858
325.601 24.8247 -0.320835
149.921 27.5576 -0.426368
445.861 57.4504 -0.420333
342.182 18.7015 -0.470828
366.993 32.631 0.126982
340.361 7.82636 0.424009
452.004 11.2563 -0.238779
594.45 19.4457 -0.288701
74.1206 41.3485 -0.467173
304.621 6.83819 0.214711
463.03 9.60759 0.439427
324.289 50.9859 0.521722
22.7099 26.6486 -0.512521
27.7521 6.13753 -0.297792
458.427 45.4113 0.504332
427.023 38.5083 -0.19129
23.3902 39.3052 0.446944
86.1017 31.7976 0.231492
296.942 19.7738 0.379425
485.567 29.7637 0.158064
404.508 64.3034 0.304059
557.34 10.1347 -0.492967
551.43 6.64572 -0.217994
348.554 43.4453 0.0982311
497.777 62.3003 0.153584
220.635 17.6329 0.585216
302.859 6.08662 0.655062
95.2744 32.6108 0.345795
107.574 25.7761 -0.31923
445.462 53.6217 -0.0710606
282.16 19.6241 0.602981
531.222 38.8435 -0.138885
529.348 95.8839 -0.104818
413.468 46.1787 0.401084
582.021 46.9359 0.375491
382.714 27.7045 -0.257451
256.109 25.1497 -0.31082
534.484 79.4901 -0.33538
257.455 30.5121 -0.434796
477.62 13.1922 -0.345726
303.622 41.9669 0.209774
420.679 17.5796 0.548238
331.227 37.8784 -0.113853
383.228 19.9541 0.103076
292.117 49.0761 0.478133
176.502 30.5895 0.169551
566.864 75.362 -0.166288
592.041 20.782 -0.380528
5.85041 13.192 -0.466188
385.48 26.8774 -0.490437
34.9933 24.088 -0.106223
340.13 35.5384 -0.59878
356.132 31.2173 0.341957
69.2372 12.4747 0.543995
48.2393 34.2494 0.429476
210.588 14.8381 0.603026
478.618 66.8155 0.448406
474.287 25.9812 -0.479872
68.8075 22.7077 0.524859
557.388 89.7216 -0.41759
569.682 2.47809 0.622798
518.744 88.991 -0.46451
523.531 2.53942 -0.614979
455.766 30.7055 -0.48831
457 71.2159 0.554638
428.358 23.2594 -0.548172
592.308 5.71656 0.451764
208.322 25.7468 0.157652
118.467 38.7152 -0.206188
230.049 7.03834 0.462117
86.3599 4.82401 0.258728
59.0838 11.5774 0.253006
256.032 38.4568 0.302894
14.9231 25.7589 0.46501
459.88 21.6072 -0.488657
473.528 73.0412 -0.0518374
402.759 40.7164 -0.348116
593.081 87.7092 0.362761
366.965 8.93241 -0.129472
383.956 46.2789 -0.523626
446.493 3.17994 -0.257736
20.0631 25.8435 -0.474667
481.144 4.25403 0.53011
453.526 3.91676 -0.308799
192.287 11.2541 0.495003
380.116 20.4331 -0.261421
288.736 6.30367 0.442921
351.254 22.058 0.386306
539.406 50.2667 0.167871
178.843 26.3234 -0.493134
573.757 14.0051 -0.376065
542.271 47.6143 0.485626
347.305 11.6169 0.260053
542.592 2.11586 0.457786
486.448 38.3575 0.559492
558.727 22.6764 -0.503303
368.997 60.9562 0.258949
417.12 21.5941 0.383414
396.081 69.6023 0.0307003
397.832 13.1194 0.237032
522.632 89.2006 0.254808
520.951 85.136 0.29043
179.337 39.7781 -0.330979
585.217 16.7849 -0.299013
457.749 72.5968 -0.271019
10.8989 18.6659 0.199217
364.277 28.1307 0.573919
174.097 23.6373 0.441715
87.0213 41.5094 -0.264936
581.628 60.8975 -0.455611
514.063 91.8491 0.220105
294.767 29.7309 -0.40774
444.418 10.1942 0.574405
77.026 46.8883 -0.201795
230.605 27.106 -0.504282
463.357 27.4395 0.484865
423.073 44.8084 -0.442632
245.276 0.920773 -0.381185
448.716 63.7994 0.374418
446.818 48.8916 -0.554188
414.838 60.9755 0.403127
420.656 8.07795 -0.685097
527.663 20.8627 0.450767
166.926 12.5889 -0.223304
434.393 64.8347 0.447656
457.093 54.9888 -0.164667
68.083 0.991039 0.334688
235.231 5.60166 0.209761
591.258 26.134 -0.272795
586.661 18.0845 -0.498815
594.959 27.3958 -0.689768
281.668 9.20512 -0.264512
558.687 34.175 0.459812
366.008 50.504 0.331003
396.167 0.803311 0.548774
508.306 81.0471 0.431662
24.3635 32.9462 0.349868
303.449 48.1014 0.516393
235.936 3.73259 0.46623
578.788 81.6057 -0.17896
556.921 99.7922 0.227097
267.71 12.6423 0.312366
528.859 79.5799 0.092767
465.224 2.50887 0.374644
451.467 8.00661 0.548756
90.1418 19.1794 -0.524932
281.94 0.995458 -0.297612
313.936 2.20037 -0.406701
12.864 7.82534 -0.595931
3.96222 32.1391 -0.248148
149.77 19.4474 0.399059
63.6772 44.1369 0.240001
61.522 31.4096 0.310616
380.572 17.2378 -0.592192
334.245 41.248 0.398831
560.408 62.797 0.150984
18.4843 4.33941 -0.264943
65.4963 7.21046 -0.159594
485.202 72.4435 -0.151385
273.95 0.996515 0.479288
331.344 19.3511 -0.120291
220.5 5.02771 -0.353686
520.111 67.4991 -0.23745
399.918 8.46998 0.634
560.949 35.8509 0.492079
495.12 65.034 -0.305879
534.086 55.0864 -0.122296
377.084 30.8336 0.537483
95.2842 47.7639 0.313707
445.318 76.0619 -0.067537
561.661 18.0369 0.250721
222.758 33.1883 -0.259762
29.1195 18.8107 -0.211155
309.373 15.4884 0.526355
100.274 42.4947 -0.498257
248.914 44.8439 -0.223353
385.066 3.19386 0.189673
585.765 71.3459 0.397362
518.841 0.693932 0.675224
304.204 3.89991 0.574462
278.317 29.8681 -0.197568
397.139 65.6698 0.212959
75.6361 9.58372 0.524994
184.15 46.759 0.416236
572.044 60.4983 0.357991
429.489 67.4638 0.0800573
186.844 42.1812 -0.288699
148.596 44.8916 0.502799
597.637 53.1092 -0.547891
593.726 21.0857 -0.652241
498.346 19.2599 -0.664916
177.562 25.233 0.126155
457.84 32.1567 0.164251
459.799 32.1472 -0.296109
371.676 6.64749 -0.140623
413.497 2.43042 -0.698982
558.061 65.8709 -0.531393
79.7354 32.9781 -0.271762
524.987 63.9744 -0.455793
256.034 16.1551 -0.461049
8.4794 2.55504 -0.353214
118.232 41.0429 0.219264
62.4258 24.7087 0.61823
525.596 41.3543 0.332971
578.474 90.3922 0.201723
172.806 29.3568 -0.214012
588.936 23.147 0.518846
42.5892 38.0483 -0.276504
84.8821 30.2538 -0.159176
508.584 50.102 0.470528
371.894 21.6171 -0.622227
436.028 19.5055 -0.178216
223.279 31.1989 -0.18868
504.697 17.566 -0.648854
595.006 21.3413 0.377971
26.9687 33.6408 0.309098
252.687 7.93477 0.197869
208.462 15.9094 0.312919
1.27672 37.5959 0.110929
211.39 15.2892 -0.58443
198.522 11.2114 0.135552
200.507 26.8763 -0.278596
122.909 29.7867 0.117562
456.351 16.5439 -0.453108
155.417 14.5134 -0.362994
573.274 79.6358 0.235642
162.23 3.79683 0.522843
44.7421 39.3702 -0.462012
545.388 68.3554 -0.542173
262.068 33.3507 -0.4442
537.333 65.2853 -0.407573
590.792 74.5389 0.458495
279.964 10.0706 0.170809
549.302 36.1999 -0.532011
302.737 2.59523 0.487527
373.812 27.7446 -0.368761
510.516 22.0862 0.509418
98.3104 12.6515 -0.546211
414.696 4.99547 -0.647601
563.727 35.8887 -0.175724
81.9526 8.01474 -0.395759
263.269 16.2128 0.186606
381.144 13.9736 0.266866
593.314 2.34541 0.59856
361.55 1.77346 -0.637768
164.43 39.9746 -0.322041
564.634 16.7264 0.471099
120.405 39.4245 0.191545
245.812 32.6877 -0.388966
361.499 22.1524 0.284445
479.29 15.8293 0.445397
350.985 10.2124 -0.612541
396.333 51.4615 0.501429
562.635 76.6336 0.494403
44.031 12.2215 -0.238048
277.659 42.9587 -0.331304
345.405 31.2931 -0.401841
368.35 22.9232 0.284645
447.467 70.6025 0.361428
556.436 60.6173 -0.212201
526.94 85.4543 0.349371
211.278 35.5714 -0.387831
12.2449 34.1873 0.203087
518.933 85.4047 -0.121733
443.027 70.4978 0.510267
214.15 41.2274 0.122135
543.763 74.9315 -0.112074
140.128 9.93366 0.292599
333.663 25.2689 0.283595
397.261 67.7633 0.102827
372.36 23.0079 0.312376
563.792 84.8678 -0.342792
384.548 6.70216 0.613274
46.1558 26.2834 0.208772
407.076 57.1422 0.336344
381.534 53.2627 -0.367954
578.856 74.1355 -0.245255
548.15 33.7493 -0.340499
452.747 22.08 -0.180575
571.914 70.8586 -0.405861
273.759 2.25923 -0.503028
344.921 34.2786 0.605679
26.596 40.8786 -0.300781
547.509 41.6455 -0.130543
489.694 43.9835 0.578948
404.448 2.63594 -0.545267
117.181 4.73596 -0.363906
376.759 46.693 0.114248
10.9585 0.878136 -0.307926
591.072 7.32726 -0.268232
338.253 46.8983 -0.564356
500.407 29.078 0.469274
[...]
POINT_DATA 13483
TENSORS Strain_matrix float
-0.0246983 -0.0266009 0.0997001 
0.0110333 0.0189047 0.188598 
0.00109011 0.0023967 0.00796086 

-0.0525427 0.106633 6.58693 
0.0251035 0.00248133 -0.815502 
0.00213055 -0.00542032 -0.16671 

-0.0116101 0.00946882 -0.156394 
-0.00672659 -0.0218277 -1.15881 
-0.000468531 0.000929134 0.152635 

-0.165134 -0.240711 0.215727 
0.229221 0.181914 0.696418 
-0.00662081 0.00468278 0.0872958 

-0.256863 -0.584661 0.0988091 
-0.0383142 0.264588 0.0386218 
-0.12955 0.0238717 0.410385 

-0.05097 -0.0407072 1.88714 
0.00665718 0.00509692 3.73793 
0.0213315 0.00426536 0.53474 

-0.00756431 -0.0266181 0.024925 
-0.0211868 0.0108767 0.105444 
-0.0398912 -0.0220981 -0.0314602 

-0.00905776 -0.0221813 0.00141873 
0.0061621 0.0149291 0.00521212 
0.00196657 0.000967491 -0.0172125 

-0.213031 0.305288 1.82529 
-0.189701 0.401545 0.251891 
0.0676944 0.0338311 0.1803 

0.00110978 0.0102671 0.0100691 
-0.0199212 -0.0133019 -0.0179972 
0.000653072 -0.00031978 0.00241068 

-0.0104522 -0.00654688 0.0113051 
0.00548446 0.00371664 -0.00752271 
-0.00057998 -0.000233229 0.0108525 

-0.00140509 0.0233474 -0.00809656 
0.00885755 0.0109433 0.0251534 
0.00121308 -0.000450749 0.0128064 

-0.00498395 -0.0558626 0.0376645 
0.0757994 0.00413329 -0.0235186 
0.00016629 -0.000281155 0.0122164 

-0.0209803 -0.0530953 0.0182154 
0.0546561 0.0175905 0.00734853 
0.00156401 -0.00112308 0.003905 

-0.105536 -0.0376188 -0.101141 
0.0725806 0.0384068 -0.287705 
-0.0111782 -0.00675384 -0.0592232 

-0.00402749 -0.0231134 -0.0395697 
0.0251827 0.00486913 0.0471651 
-0.000680306 0.000653023 0.00370822 

-0.0119349 -0.0011646 -0.00820712 
0.0030627 0.00265223 -0.00901277 
0.0011173 -0.000431834 0.0144081 

-0.0514776 0.0209342 -0.0429973 
-0.0154421 0.00858739 0.0637904 
0.00435567 -0.000325753 0.0919675 

-0.00196524 -0.0472401 -1.26143 
0.185373 0.164503 -0.11646 
0.0499516 0.0425074 -0.562989 

-0.185997 0.0915337 -0.154419 
-0.131605 0.104783 -0.0490629 
0.00160268 -0.0173685 0.278477 

0.0617747 -0.177171 0.00660617 
0.247197 0.00307305 -0.324029 
-0.0269012 -0.014575 0.464704 

-0.339638 0.750944 -0.307726 
-0.425745 0.348881 -0.367402 
0.0814486 -0.0211641 0.595023 

0.0121815 -0.00505466 0.375684 
-0.00208176 -0.00220091 -0.0269088 
-0.00047065 -0.00115694 -0.0459459 

-0.024199 0.0263759 -0.616438 
-0.0641793 0.0383831 0.207045 
0.00543517 -0.00421537 -0.235397 

-0.270027 0.292326 1.60058 
-0.0406158 0.0584737 -1.45022 
0.0114451 -0.0301259 0.138241 

0.00684765 -0.0136285 0.0040308 
0.0234481 -7.15489e-05 -0.00363221 
-0.000709011 0.000927638 -0.0149848 

0.0298281 -0.0983742 -0.311432 
0.0775323 -0.029811 -0.387807 
0.00799553 -0.00173334 0.0505142 

-0.0684867 -0.0385187 0.221023 
0.0691221 0.05218 -0.0526113 
0.0292539 -0.00908598 0.0829137 

-0.00126907 -0.0141784 0.0222821 
0.0184889 -0.0119739 -0.0248939 
0.00136775 0.000802869 0.0294391 

-0.0563153 -0.0481445 -0.0971428 
-0.158648 -0.102694 0.705347 
-0.01359 -0.0933139 0.000598509 

0.054644 0.183788 -0.362703 
-0.793504 0.556308 -0.637984 
0.0704943 0.0527483 -0.0460315 

-0.0156397 0.0002373 0.0108051 
0.00125858 0.000535596 0.00683049 
0.000406922 0.000718999 0.00818749 

0.0035178 0.0537242 0.0642117 
-0.0297872 -0.000290175 -0.0139938 
0.00247233 -0.000671927 -0.0128756 

-0.231406 -0.463228 62.9009 
-0.000399572 0.116412 0.583611 
0.00501132 0.0133369 -0.652831 

0.0196614 0.0178058 0.0408662 
-0.00858737 -0.00141689 -0.0454478 
0.00762779 0.0264092 -0.107416 

-0.748784 0.265127 -1.62892 
-0.577062 0.55739 -0.77738 
-0.131627 0.102054 0.145405 

-0.0191899 -0.00246556 -0.126659 
0.0142691 -0.012814 -0.0949062 
0.0245668 -0.00657912 0.253293 

-0.210242 -0.0192833 0.0981052 
-0.0847888 0.0857763 0.35336 
0.0123408 -0.0979692 0.178914 

-0.0182931 0.001977 0.11528 
-0.0234233 -0.0320085 -0.0102704 
-0.0098393 0.00604405 0.100825 

-0.474543 0.261986 1.46795 
-0.358907 0.451079 -1.37792 
-0.00677838 0.0317513 -0.0896337 

-0.0201062 0.00149382 -0.0478466 
-0.0237614 -0.00581511 0.0269311 
-0.00446207 0.00259681 0.0302202 

-0.0302185 -0.143005 0.0247222 
0.164023 0.0605669 -0.00218451 
0.0337086 -0.0295043 0.0593188 

0.00741663 -0.0171392 -0.00934281 
-0.00376813 -0.0573309 -0.00491053 
-0.000946044 0.000130017 0.0298261 

-0.0103433 -0.000479677 0.0110646 
-0.000993802 -0.000374543 -0.000984965 
3.68204e-05 0.000514735 0.0115536 

-0.0233991 -0.002167 -0.0608151 
0.0693506 0.0220496 -0.0167573 
-0.00225897 0.0133116 0.0112237 

-0.125154 -0.134044 0.193135 
-0.115489 0.0994547 -0.386161 
0.0214102 -0.0110064 0.76742 

-0.0655652 -0.124778 -0.00953106 
0.00643201 0.0735236 -0.0530713 
0.0171745 0.00289226 0.00570023 

-0.00477889 0.00461837 -0.00529908 
-0.0154984 -0.0097338 0.0124727 
0.000429575 -0.000867116 0.0146278 

-0.0220991 -0.0502611 0.125204 
0.0282485 -0.00604736 0.063479 
0.00670924 -0.0404387 0.250132 

-0.00467538 0.019253 -0.162035 
-0.0250284 0.00549351 0.221445 
0.0152568 0.00112849 -0.146805 

-0.0358382 0.037243 0.131151 
-0.00643951 0.00933117 0.0707858 
0.0144846 -0.00270451 0.0600129 

-0.00548165 -0.0118041 -0.0145831 
0.031899 0.00603121 -0.00232715 
-0.000351687 -0.000178652 0.00265398 

-0.00369513 0.00846193 -0.0620115 
0.00100621 0.000396988 0.122716 
0.00204191 1.74681e-05 0.0330245 

-0.0968662 0.0428872 0.0220013 
-0.0703239 0.0942627 -0.820921 
-0.00573236 -0.00762741 0.0712075 

-0.103885 0.119421 0.281763 
-0.0145569 0.105548 0.384882 
0.0119874 0.00139252 0.0461594 

-0.0664348 -0.0303878 0.489624 
0.00422526 0.0703933 0.157244 
-0.000691907 0.00191808 0.0768384 

0.0165059 -0.0495855 0.0817926 
-0.0960399 -0.0265726 -0.0957139 
0.0414364 -0.0223146 0.066212 

-0.00638448 -0.689942 -0.363072 
-0.00112778 0.169318 0.0329135 
-0.000419542 -0.00662728 0.00980411 

0.0106123 -0.00891619 -0.0432073 
-0.00529915 -0.00241424 -0.0112939 
-0.000796023 0.00222797 -0.00334533 

-0.108714 -0.0846229 0.27071 
0.0255128 0.0772805 0.225033 
-0.00875325 0.0043467 0.0976132 

-0.108402 0.0808196 0.807503 
0.0587859 -0.518593 -1.59509 
-0.000189534 0.000850055 0.00493327 

0.0526407 -0.0309945 0.207761 
0.0836355 -0.0151521 0.297786 
0.0142876 -0.0216228 -0.108864 

0.00617551 -0.0193114 -0.147763 
0.00486854 -0.0317728 -0.0141555 
0.0208133 0.115345 0.135632 

-0.0182944 -0.00488069 -0.0146134 
-0.00776829 0.0100383 -0.0134492 
-3.45625e-06 0.000465157 -0.00726947 

-0.0452732 -0.0633251 -0.291952 
-0.0173182 0.0048507 -0.120874 
-0.000406315 0.00784684 0.00800999 

-0.0281736 0.0532076 0.217953 
-0.0789801 0.0019946 -0.0568848 
-0.015925 -0.0147605 -0.000543885 

-0.00066108 -0.0024752 -0.00290389 
-0.0208887 -0.0147403 0.00911529 
0.00315322 0.000956914 0.00845834 

0.0493774 -0.00252686 -0.222091 
0.0571364 -0.00460975 -0.170056 
0.00386277 -0.0018954 0.0228407 

-0.0781788 -0.0849906 0.0972268 
0.188819 0.030686 -0.324572 
-0.0236287 0.0265195 0.186453 

-0.0137977 -0.0051141 0.0489249 
0.00528975 0.0201818 -0.0207802 
0.000554915 7.25672e-05 0.0067221 

-0.00772489 -0.0304374 0.0569448 
0.0397159 -0.00706938 0.0443649 
-0.0131722 0.0034029 0.0465085 

-0.0154906 0.00448293 -0.127074 
-0.000839048 -0.00920485 -0.0576894 
0.00297572 -0.00717269 0.0738558 

0.00919345 0.0901326 0.374188 
0.0330024 -0.0800751 -0.221846 
0.00716893 -0.0173701 -0.055553 

-0.17735 0.131588 -0.0180055 
0.0449805 0.172918 -0.0343645 
0.0157507 -0.0210579 0.194398 

-0.0882307 0.00386002 -0.338546 
0.0191022 0.0418694 -0.294481 
-0.00446265 0.0481629 -0.0572378 

-0.0118443 0.00523544 -0.0435441 
0.000226531 -0.00214083 -0.0474517 
0.0009639 -0.00105216 0.00831326 

0.055517 0.0474067 0.0595105 
0.0711151 -0.128115 -0.428635 
0.00233052 -0.00532905 0.0384501 

0.00185309 -0.165517 0.0220658 
0.20366 -0.0102987 0.423938 
0.00957187 0.0777262 -0.367043 

0.0104495 0.0335969 -0.00209933 
0.0808695 -0.00575236 -0.0661179 
-0.00774471 0.0132991 -0.00656361 

-0.0283981 -0.025192 0.191658 
-0.0175551 0.0160292 -0.144299 
-0.0129539 0.00739047 -0.000852164 

-0.329723 0.00864015 -0.0177932 
-0.265548 0.0950193 0.138265 
0.0288375 -0.00679293 0.128515 

0.026928 -0.0819419 0.12565 
0.0876557 -0.00147327 0.0201217 
-0.0191401 -0.0236211 -0.0845891 

-0.127477 -0.0128883 -0.0742144 
-0.0149941 0.0809462 0.0138751 
0.0375293 -0.0063837 -0.0905523 

-0.00735802 0.0403037 -0.182087 
-0.0303316 0.0142908 -0.00548827 
0.0162918 -0.0136759 -0.0660227 

-0.0144889 -0.0556066 -0.0051206 
0.0645374 0.00248325 -0.00116669 
0.000432119 -0.000190406 0.0206718 

-0.00391747 0.0164468 -0.0143593 
-0.0132388 -0.00899247 -0.0130128 
-0.000769862 -0.000149004 0.0183955 

-0.178993 -0.00176532 19.7596 
0.0232795 0.178417 -6.09913 
-0.0304413 0.0224817 -0.740872 

-0.065405 -0.00383216 -0.0555746 
-0.0364615 0.00918776 0.198684 
0.00567784 0.000527439 0.147077 

0.014507 0.0107419 -0.0198267 
-0.0180374 -0.0229421 -0.0259746 
-0.0059223 0.00336661 0.00383648 

-0.0143342 -0.0102181 3.9476 
-0.00144626 0.0104186 -1.43968 
0.000943653 0.00210881 -0.306555 

-0.134132 0.0847461 0.018626 
-0.154277 0.0318919 -0.0761518 
-0.0518581 0.106751 0.341368 

0.0307352 -0.133017 -0.127619 
-0.0104047 -0.0754 0.167818 
0.00638426 0.00225311 0.104602 

0.00767914 0.00983677 -0.0625587 
-0.000886946 -0.00111345 0.518125 
-0.00120164 0.00163396 0.0484358 

-0.0139758 0.00806942 0.00151021 
-0.00917117 -0.00230304 -0.00393247 
0.00198796 8.92666e-05 0.0406625 

-0.00703058 0.0604129 -0.117028 
0.0104545 0.0385082 0.44143 
0.0227501 -0.0357511 0.208164 

-0.301139 -0.443705 -0.585541 
-0.16064 0.307256 0.161462 
-0.0242182 -0.0238511 0.273877 

-0.0343877 -0.0516351 0.0539352 
0.0328229 -0.0348939 -0.466847 
0.0067795 0.00652718 0.152238 

0.000182931 -0.00817126 -0.0221962 
0.0695542 0.0191799 0.0020556 
0.00137216 -0.000447062 0.000114327 

-0.00353631 -0.0126623 0.00890177 
0.0389009 0.0113411 0.0130052 
0.00109753 -0.000152847 -0.0126985 

-0.110132 -0.157937 0.710349 
-0.00639621 0.189003 -0.08254 
0.0281328 -0.000817287 0.178241 

-0.013129 0.0103754 0.061754 
-0.0200617 0.0043138 0.0298354 
0.00071815 -0.00320417 0.0194693 

-0.765475 0.191012 0.512068 
-0.830731 0.39081 0.693871 
-0.0354366 -0.0154631 0.0604434 

-0.0471385 -0.0785606 1.97917 
-0.0139598 0.0596126 0.862212 
-0.0087654 0.00424583 0.0169778 

-0.273647 -0.0978525 0.299957 
0.100714 0.120005 0.567124 
0.0851607 -0.0772846 0.758668 

-0.0667587 0.0836472 0.0450351 
-0.102139 0.0234695 0.114491 
0.00520047 0.0553771 0.29169 

-0.00746162 0.0241998 0.00167146 
-0.0259992 -0.0142187 0.0020461 
-0.00161586 -0.00733514 0.0264846 

0.0573326 -0.0276565 -0.0386084 
0.0254579 -0.00318961 0.000102061 
-0.02529 -0.000510039 -0.0139508 

0.00878881 0.0132429 0.0614762 
-0.0181394 -0.00706974 0.689321 
-0.000514797 0.0027381 0.114129 

-0.381452 0.13113 -0.196308 
-0.541125 0.213512 -0.336416 
0.0170097 0.0675779 0.360417 

-0.0185183 -0.0263115 -0.000713637 
0.0116821 0.00101624 0.00364936 
0.000623916 0.00113212 0.0190986 

-0.0836441 -0.213915 -24.8963 
-0.0271372 0.179612 5.41219 
-0.00230043 -0.00815464 -0.759989 

-0.00668296 0.00527549 0.0600479 
-0.00758568 -0.00190056 -0.533447 
-0.000162838 0.000811007 0.103641 

0.00504317 0.0148922 0.00984209 
-0.0109586 0.00503042 -0.00389861 
-0.00164898 -0.000704284 -0.017218 

-0.0305486 0.0299292 -0.00942282 
0.0117726 0.00141759 -0.0171972 
-0.00966176 -0.00657582 0.0388344 

-1.29014 1.18632 0.612015 
-1.13661 1.0752 -0.399704 
0.0831089 0.098873 0.132748 

-0.0128926 0.012414 0.272259 
-0.00943825 0.0203337 0.403628 
-0.000180671 0.000733863 0.0411808 

-0.00672735 0.023892 0.00150589 
-0.0420112 -0.0107578 -0.00476772 
-0.00146713 -2.79958e-05 0.0260083 

-0.202095 0.111874 -0.246673 
-0.0809292 0.202099 -1.0752 
-0.00382614 -0.0106061 0.262815 

-0.00406775 -0.0190263 0.0015155 
0.0385906 -0.0125921 -0.0160436 
-0.000618959 0.00146304 0.00993141 

0.0436144 -0.0447224 0.0305155 
0.0688223 -0.0125638 -0.0738074 
0.00185225 0.000824404 -0.0212327 

-0.119103 -0.0699049 -0.144011 
0.133413 0.0701351 -0.133087 
-0.00687008 -0.000865368 0.0744738 

0.0045275 -0.00555019 -0.0380809 
-0.0124113 -0.0227056 -0.013405 
-0.00502851 0.000420818 0.00710577 

0.0358877 -0.0941002 -0.131277 
0.118023 -0.0013566 0.0306189 
0.0057522 -0.00256722 0.0399903 

-0.0363223 -0.0522965 -0.0186632 
0.062903 0.036788 0.0171848 
0.000417828 0.00344774 -0.0105407 

-0.0241167 -0.000436979 0.478552 
-0.0192482 0.0303963 0.312618 
-0.0259957 0.00678273 0.458903 

-0.453287 -0.0471827 0.269882 
-0.291231 0.208205 -1.21517 
-0.10942 0.14164 -0.191173 

-0.015421 -0.0470208 0.176822 
-0.0796832 0.0542702 -0.328042 
0.0151791 -0.0549263 -0.145085 

-0.0466833 -0.0341074 0.148377 
0.0919701 0.0310857 -0.0825077 
-0.012993 -0.00934916 0.0998703 

-0.0224165 -0.0394839 0.00682172 
-0.044235 0.00237445 -0.143533 
0.0168027 -0.00700634 0.0237272 

-0.107951 -0.0898004 -0.580807 
0.033707 0.141165 0.261511 
0.0134201 -0.0109207 0.506352 

-0.0168074 -0.109944 0.239885 
-0.0146633 0.0101334 0.119647 
-0.034849 -0.00480919 0.108487 

0.0359797 -0.0212438 -0.0877408 
0.00981215 -0.0283646 -0.0830918 
-0.00136522 -0.00385207 0.000925551 

0.0591141 -0.0203177 -0.393039 
0.00621854 -0.0547932 -0.17902 
0.0123154 -0.0165772 0.0250339 

0.0529868 0.338947 -0.0219374 
-0.35472 0.0415936 0.224939 
-0.0423614 -0.0334725 0.0362826 

-0.280041 -0.126064 0.386705 
-0.0339505 0.224604 -0.130214 
0.00336384 -0.0189055 0.0238179 

0.0346666 -0.0388299 0.149425 
-0.00193415 -0.039622 0.0824623 
-0.00629157 0.0609924 0.686833 

-0.13211 0.0624702 -0.0861015 
-0.418551 0.146744 -0.781443 
-0.0059557 0.00107444 0.00707474 

-0.126192 -0.124249 -0.088811 
0.181565 0.229498 0.313719 
0.0353037 0.00376579 -0.220153 

-0.0111265 -0.0143838 -0.00389601 
0.0112967 0.0180593 0.0040009 
0.00227772 0.000309446 -0.00509818 

-0.0193157 -0.178898 -0.0336078 
0.2013 0.0769909 0.0356374 
0.0267074 -0.115562 0.246571 

-0.102495 -0.267698 0.182518 
0.141045 0.2237 0.60882 
0.00988 0.0277299 -0.270456 

0.00229013 -0.0457842 0.0218713 
-0.036988 0.0156033 -0.0511258 
-0.00034245 0.0158963 -0.0568262 

-0.0265409 -0.00728785 -0.0739161 
0.0240369 0.0190562 0.352178 
0.0307855 -0.0084231 0.368784 

-0.148853 -0.0942556 -0.569755 
0.126183 0.218295 -1.18301 
-0.0117241 -0.0167161 -0.275466 

-0.0243593 0.00750446 -0.000985604 
-0.00153425 0.0107187 -0.0152904 
-0.0252554 -0.0584215 0.198903 

-0.0104481 0.0276786 0.00163991 
0.022493 0.0251783 0.0281837 
0.00144588 -0.00207357 0.0493649 

0.0138546 0.126344 -0.000979727 
-0.162197 0.0384459 -0.291451 
0.112556 0.063148 0.126718 

-0.0135534 -0.011374 -0.00831972 
0.0280275 0.0133084 0.0884654 
-0.00671903 0.00573891 -0.129553 

-0.119651 -0.0492244 -0.12738 
-0.0135275 0.176922 -0.762527 
-0.0036412 -0.0183314 0.123111 

-0.0320376 -0.00176528 0.0126711 
-0.0378737 0.0139485 0.0362244 
-0.000455766 0.00318911 0.0433588 

-0.0912705 -0.0365727 0.604237 
0.0435019 0.0370368 0.338121 
0.0044101 0.00969316 -0.380803 

-0.253713 -0.0544217 0.056861 
-0.0131126 0.192684 -0.756647 
-0.0183423 0.0303553 0.135594 

-0.0461321 0.00536871 1.17366 
0.0241402 0.0268345 1.9326 
0.00863631 0.0175172 -0.202878 

-0.0748382 0.0187834 0.699831 
0.0636314 0.0957563 -0.0558376 
-0.00394755 0.00712583 0.015206 

-0.0710107 0.00174311 -1.68653 
0.0153644 0.0392087 -0.515271 
0.00646436 0.00159467 0.18592 

-0.100065 -0.00306673 -0.163663 
-0.1341 0.0438988 -1.35266 
-0.0264645 -0.0207529 -1.65656 

-0.0778934 -0.0542084 0.00868573 
0.0311312 0.0746295 0.114192 
-0.0180166 0.0328455 -0.154604 

-0.077186 -0.0217162 0.199378 
-0.0597618 0.0702194 0.750109 
-0.00164082 -0.0681986 -0.89448 

-0.0587427 -0.0526627 0.302644 
0.0336935 0.0803621 -0.251537 
-0.0232166 0.00631323 -0.156506 

0.0085727 -0.00901966 -0.251472 
0.0384841 0.0184271 0.238551 
-0.00419773 -0.00563405 0.0226868 

0.0155381 -0.0400881 -0.526208 
0.0578507 -0.0137255 0.684354 
0.00149549 0.00185946 0.0165626 

-0.0125277 0.0103372 -0.0192126 
-0.0210759 0.0336554 -0.0747801 
0.000721223 0.00315606 0.0358699 

-0.122106 0.062617 0.334101 
0.0784069 0.0308162 0.198273 
-0.0302479 -0.0232273 0.126295 

-0.1386 -0.0115088 -9.43129 
-0.128395 -0.195062 -23.3883 
0.00109754 0.0023009 0.374614 

-0.0314499 -0.0758672 -0.141074 
-0.0324034 -0.0654564 0.270586 
-0.000765283 -0.00577175 0.118696 

-0.0775053 -0.214665 -0.0659982 
0.2478 -0.0783081 0.210358 
0.0615313 -0.028381 0.165074 

-0.00465458 -0.0163626 0.00908865 
0.0349414 0.00727282 0.00306576 
0.00144306 0.00127474 0.00752429 

-0.203809 0.402077 0.0396172 
0.0946767 0.200604 -0.228592 
0.00868681 -0.0724756 0.386522 

0.000146145 0.0185826 0.352801 
-0.00351241 -0.0109871 0.674387 
-0.0104891 -0.0076239 0.144206 

-0.0251372 -0.0301465 0.189057 
0.0205283 0.0186247 -0.195761 
-0.000246724 0.00505974 -0.00339946 

-0.123181 0.0407318 0.470468 
0.109108 0.0502553 -0.0662593 
-0.02514 -0.0555619 0.585594 

-0.0258948 0.0102369 -0.0339547 
-0.00826896 0.00241946 -0.0286071 
0.00837408 -0.00593291 0.0742279 

-0.0191424 0.00199074 0.0171262 
0.00330777 0.00163735 -0.00159174 
0.0014457 -0.000807335 0.0284451 

-0.10959 -0.0832588 -0.550404 
-0.0266216 0.19591 -0.219923 
0.00991681 -0.0254868 0.272029 

-0.0365598 0.0160163 -0.0488098 
-0.0190121 0.00560723 0.0172433 
0.00028858 0.00302573 0.0377445 

-0.637642 -0.225879 0.72469 
0.22046 0.450242 1.33883 
0.00058758 -0.0409443 0.377217 

-0.0467519 -0.0741062 0.00220075 
0.0595608 0.0153664 0.3822 
0.00326127 -0.00658593 0.672652 

-0.0315198 -0.102273 0.0482318 
0.0593655 -0.00286733 -0.0090644 
-0.0395865 0.0343298 0.262917 

-0.0912 -0.302266 3.62537 
0.088601 0.155051 0.718752 
0.00975755 -0.00128764 0.118557 

-0.00872553 0.0089909 -0.00775667 
-0.00936617 -0.0107566 -0.0177527 
-0.00287559 -0.00245134 0.0131227 

-0.0113729 -0.00413162 0.0159621 
-0.0061075 0.00255737 0.0315626 
0.00114253 -0.000483232 0.0200018 

-0.0247935 0.0021669 0.0565864 
-0.00139215 0.016944 -0.0940456 
0.00150874 -0.00164141 0.0333719 

-0.0180186 -0.0125721 -0.0219206 
0.0028416 -0.00412953 -0.0175193 
0.00585436 -0.00513258 0.0644583 

-0.00983613 -0.00245462 -0.000467991 
0.00690377 0.00229027 -0.0434176 
-0.000210373 -0.000429493 0.00770246 

-0.126401 -0.142529 -0.400221 
-0.1227 0.0243485 0.198653 
0.0100395 -0.00650146 0.0578368 

-0.0563807 0.0260581 -0.069229 
-0.0755138 -0.0431114 0.057843 
0.0225619 0.00204248 0.650136 

-0.217471 -0.0742033 -0.198559 
0.203221 0.283622 -0.0591515 
-0.0114811 -0.0180191 0.103291 

0.0184645 0.0483482 0.194368 
-0.0562072 -0.0170132 0.115905 
0.00537534 -0.00458634 0.0302828 

-0.0181578 -0.00719296 0.28006 
-0.00164544 0.000631434 0.24305 
-0.000677904 -0.000334866 0.061261 

-0.00948486 -0.104895 0.0588059 
0.0425511 0.0678269 -0.263123 
-0.0168977 -0.0166555 0.0105996 

0.017934 0.006605 0.16507 
-0.0265642 -0.0870918 0.0500793 
-0.00862405 -0.0163688 0.0412283 

-0.15773 -0.143255 -0.282252 
-0.00814754 0.234778 0.0666763 
0.0122996 -0.032722 0.0096492 

2.43853e-05 0.0112973 -0.0011363 
-0.0179243 -0.0106486 -0.0335735 
-0.00598093 0.00787034 0.0107409 

-0.0181223 -0.0272983 0.212482 
0.035552 0.00144881 0.105906 
-0.00184663 0.000375681 0.0488778 

-0.0941995 -0.248089 -0.137261 
0.315441 0.138179 -0.0587066 
0.024711 -0.020511 0.0333957 

-0.159014 0.0835866 15.1024 
0.0298768 0.44743 -9.27076 
-0.000882216 -0.0505669 -0.231214 

-0.428554 -0.0245556 0.770552 
-0.150557 0.382508 -0.293196 
0.0516077 0.00860692 -0.163176 

0.00748624 0.0800448 -0.656407 
0.232824 0.102534 -0.948154 
-0.0288892 -0.0400399 0.341365 

-0.753085 0.630672 0.436685 
-0.302118 0.50622 -1.25692 
-0.00822776 0.0248376 0.177979 

0.0650001 -0.00993557 -0.0964531 
0.0197486 -0.0701881 -0.103861 
-0.0130112 -0.0233886 0.0688622 

0.00123941 -0.0362359 0.0516316 
0.0688847 0.00448475 0.000190977 
9.54388e-05 -0.000657709 -0.00707416 

0.00696132 -0.00439521 0.0381374 
0.00882288 -0.00552076 -0.029202 
0.00067121 0.00112736 -0.00781779 

-0.0537937 -0.0760519 0.289761 
-0.133335 -0.0573437 0.270717 
0.067769 -0.0103974 0.128392 

0.23929 1.0818 -4.66553 