# vtk DataFile Version 3.0
Output file generated by Yade's KinematicLocalisationAnalyser
ASCII
DATASET UNSTRUCTURED_GRID

POINTS 13483 float
657.455 27.1978 0.399834
864.076 43.9039 0.482424
128.999 6.01124 -0.451881
914.404 4.45097 0.341964
535.031 7.54991 -0.305265
336.69 34.428 0.212711
167.999 6.78768 0.409624
613.715 9.99488 0.141338
531.845 22.4658 0.145906
798.481 11.9343 0.383738
225.676 8.81412 -0.0912262
275.138 6.27545 -0.267769
711.609 27.9986 -0.157894
687.901 13.7835 0.0752555
147.15 16.8756 0.424946
237.308 34.2113 0.392813
233.275 12.779 -0.274375
308.974 9.45364 0.389949
364.479 32.1434 0.1717
563.121 8.52102 0.345308
439.603 36.0361 0.110396
638.946 43.2568 0.253392
910.505 28.877 -0.490224
768.801 40.4212 -0.462186
491.234 16.0198 0.290284
257.768 43.6326 -0.122167
526.611 26.8626 -0.483057
632.794 18.8901 0.227067
48.4663 15.3281 -0.457889
793.245 30.0511 -0.312134
516.648 4.88986 0.315812
18.05 22.7979 -0.275714
879.565 40.1084 -0.273273
530.592 2.46521 0.486663
83.9789 43.4052 0.100298
559.833 29.602 0.344772
569.946 16.4367 -0.408559
368.076 22.2676 -0.177271
573.315 25.0123 -0.33686
375.302 32.7395 0.415297
258.22 14.5245 -0.292392
464.693 34.9113 0.0659438
742.315 6.83737 0.110399
206.961 6.16794 0.377118
59.5732 6.85926 -0.127134
73.4834 8.82434 -0.291713
761.193 8.58653 -0.460406
25.2854 11.6074 -0.297415
661.783 43.0894 0.359086
744.193 22.4227 0.348616
185.361 31.796 0.28442
858.636 32.3432 0.148627
37.5778 27.6152 0.114579
574.078 2.94153 0.322476
152.736 7.46329 -0.465813
641.805 32.9002 0.406785
541.043 25.7395 -0.141831
187.701 0.924004 -0.26091
35.1647 2.4226 -0.278508
373.272 17.5273 0.272768
674 43.8272 -0.139679
495.254 32.9599 -0.181983
427.476 1.0285 0.188203
774.035 7.54864 -0.340015
28.5171 42.3675 -0.234898
274.711 30.0541 0.296853
798.621 7.30809 0.181281
735.556 42.7462 0.358318
447.143 8.55319 -0.477691
614.559 3.48824 -0.344043
834.039 28.0014 -0.395148
140.591 7.55005 0.280925
534.781 24.8491 0.136225
512.076 14.7528 -0.133021
315.636 16.5276 -0.311358
22.211 13.4658 0.246397
886.263 30.4791 0.35438
356.372 38.1685 -0.279979
741.563 19.293 -0.334915
761.042 12.3923 -0.222878
897.454 10.825 -0.200772
498.882 33.9374 -0.161087
99.32 37.6301 0.271095
754.799 32.5837 0.207182
708.085 36.4569 0.100997
918.462 35.307 0.128503
889.779 0.82535 -0.459672
312.156 28.4532 0.423844
676.115 6.17728 0.0838742
26.1211 5.21893 -0.450795
142.901 37.3087 -0.147651
551.471 14.2296 0.198052
876.36 23.0665 -0.531148
210.333 28.317 -0.220304
47.7297 33.7054 0.270691
529.447 1.15867 0.114747
253.358 8.85994 -0.354764
837.131 37.1252 0.273829
862.989 24.552 0.281323
387.799 20.5626 -0.252425
176.671 26.4251 -0.462094
593.433 37.3007 0.416874
407.954 15.1606 -0.441204
443.997 28.9821 -0.102132
406.107 4.4551 0.408358
591.32 10.8096 -0.0910799
919.377 11.1121 0.198069
86.4503 38.5099 -0.389739
360.251 4.78145 -0.174049
606.761 9.35732 -0.329879
386.801 43.1204 0.44764
27.9515 24.3738 -0.454531
32.7796 5.70668 -0.324593
615.57 31.4304 -0.403034
544.296 23.4843 0.149157
28.4044 36.4346 0.349935
100.298 30.1301 0.222214
349.472 15.6778 -0.299695
652.463 18.4441 -0.134604
511.821 37.1487 0.305973
818.945 7.58801 -0.384818
809.225 6.05947 -0.181602
416.246 36.5242 0.0967835
694.67 24.4381 0.119839
256.763 16.9421 0.495387
355.201 3.68711 0.462041
111.955 30.9183 0.343757
125.584 23.6567 -0.255574
588.409 37.8634 0.0787394
329.463 18.659 0.446952
787.654 33.1563 0.11991
740 41.9794 0.115564
518.333 20.1767 -0.397829
867.468 8.65437 0.281747
462.038 22.9061 -0.227658
298.141 23.9093 0.313659
742.608 29.4727 -0.19675
300.521 27.9279 -0.402828
626.108 11.4464 -0.188867
357.602 34.917 0.189744
545.399 11.2959 0.442314
395.397 30.9519 0.0951128
464.42 16.4268 -0.106062
343.08 41.1488 0.342459
206.256 29.2105 0.124698
869.742 41.9656 -0.181379
914.852 11.7686 -0.302303
6.44274 11.967 -0.469014
468.722 22.0429 -0.406849
41.3939 22.081 0.074347
405.816 30.7332 -0.455844
426.122 24.5143 0.255485
81.0325 11.8194 0.446361
56.0932 32.4998 0.429679
244.356 13.2291 0.371992
675.474 37.4019 0.412863
628.883 20.0139 -0.448926
81.1085 20.7672 0.362478
771.687 43.9808 -0.405463
852.73 2.41147 0.413291
727.28 38.8779 -0.456818
768.997 2.33079 -0.380435
597.958 26.039 0.418447
640.556 43.5921 -0.451598
555.577 17.7175 -0.389465
911.593 3.12377 0.235467
242.097 24.454 0.123584
138.315 34.3014 0.193841
267.635 6.35778 0.360498
102.599 4.06352 0.251554
69.6028 9.91885 0.198914
298.426 35.2366 0.307914
18.2589 24.5703 0.356193
604.317 18.9657 -0.38938
661.561 38.0786 0.217031
500.942 20.8055 -0.36522
900.051 35.568 -0.354717
439.947 8.46414 0.0833007
471.752 35.2483 0.283472
583.072 3.42412 -0.18261
24.9716 23.6461 -0.387
629.023 4.29433 -0.361569
593.566 4.34692 -0.283611
223.773 11.2838 0.471412
460.245 16.2665 -0.190965
337.046 6.29015 0.323228
419.91 18.8029 -0.319517
823.226 40.0662 0.11812
208.541 25.3825 -0.405535
880.906 6.85357 -0.301311
822.302 36.2267 0.336148
415.021 10.0414 -0.18504
795.34 2.38577 0.39291
661.946 24.4792 -0.404002
827.591 17.5546 -0.416053
466.673 41.7425 -0.26982
539.152 12.2448 0.336693
504.6 43.3654 -0.219275
482.882 8.54936 0.133436
730.987 38.0074 0.27771
728.567 34.4677 0.333966
208.722 38.2768 -0.331174
895.234 10.7511 -0.134473
643.039 44.0455 0.241688
12.2655 16.5352 0.195741
441.148 24.9713 0.35255
203.394 22.7279 0.393835
101.012 38.4969 -0.196744
874.276 20.4751 -0.450572
723.765 42.7928 -0.226284
345.866 25.0494 0.354804
579.716 10.0894 0.321653
89.4001 43.4135 0.161606
268.694 25.5737 -0.478487
607.19 22.9115 0.362764
528.362 18.1391 0.405416
285.105 0.889887 -0.342776
603.331 38.9402 -0.350063
581.4 40.0831 -0.442959
523.53 32.2313 0.376794
542.413 0.771611 -0.485279
780.75 18.0255 0.330177
195.287 11.7768 -0.176896
543.972 35.4255 0.425143
616.615 38.4748 0.11707
79.0758 0.947512 0.27281
273.256 4.69041 0.170287
914.079 13.6374 0.208878
897.847 12.7897 -0.384502
921.773 15.3831 -0.52714
329.144 8.46994 -0.226927
834.953 21.756 0.417029
441.694 40.6901 -0.321351
487.201 0.811509 -0.398775
715.181 33.8796 0.537956
29.7368 30.045 0.296512
358.532 40.446 0.46958
274.146 2.83185 0.31081
882.545 37.1285 -0.258517
792.245 45.2114 -0.229295
311.816 10.8042 0.197625
735.537 27.8437 -0.0977445
608.478 2.65691 0.266538
591.238 6.3953 0.412613
105.266 17.865 -0.468516
328.99 1.03607 -0.222308
372.646 2.26203 -0.364662
15.1868 7.56641 -0.341788
4.75481 30.2167 -0.241348
176.217 18.61 0.35425
74.0914 40.9749 0.21157
72.709 28.2347 0.331167
459.79 14.4499 -0.396229
398.479 34.4593 0.468581
856.47 34.1809 0.166369
21.2547 3.94337 0.286248
76.7196 6.81304 0.128086
686.793 36.728 -0.159199
320.062 0.932057 0.318672
396.165 15.8635 -0.0923641
256.189 4.63161 -0.385901
720.187 20.6847 -0.216853
490.583 8.25349 0.4053
838.017 19.6434 -0.3721
693.953 27.8812 0.345117
740.451 17.4589 -0.0736852
456.157 26.0957 0.464079
110.948 44.0215 -0.304829
592.378 41.134 0.0689865
824.692 13.1762 -0.166632
258.578 29.9533 -0.244513
35.0851 16.7555 -0.16333
365.351 13.6429 0.481552
117.398 39.6599 -0.46153
290.834 41.6055 -0.186413
462.056 1.08351 -0.198201
882.988 27.3688 -0.404991
760.985 0.800083 0.468172
360.869 3.11276 0.484346
325.911 26.1423 -0.146058
503.389 40.2247 0.204943
88.7399 8.03783 -0.446691
215.714 44.4493 0.37769
865.717 26.9061 0.375919
538.925 37.9088 -0.0772265
217.951 40.8641 -0.250223
175.429 41.5404 -0.352105
921.724 31.7737 -0.467216
917.635 11.1669 -0.484016
665.238 3.54997 -0.494893
207.128 24.1541 -0.0956265
599.973 26.942 0.110993
602.026 26.689 -0.261857
444.719 5.57246 -0.135411
524.153 0.932022 -0.277831
854.25 36.2513 -0.499915
92.6016 30.3108 0.226612
725.989 17.8822 -0.423546
298.431 15.3647 -0.336036
10.7541 2.31117 0.338568
136.852 36.0766 0.19127
73.1583 22.8261 0.449057
780.149 34.8855 -0.322412
888.996 41.5571 0.167696
202.354 27.8347 -0.172417
909.316 11.6015 -0.29042
49.0471 35.7251 -0.257259
99.2091 28.5114 -0.155606
698.309 12.6909 0.379062
449.399 18.047 -0.471902
566.543 16.3817 0.117624
259.173 27.9961 -0.00749075
683.698 4.43522 -0.413827
922.382 10.5916 0.341746
32.5775 31.1791 0.260142
293.864 7.68667 0.185084
241.887 14.8428 0.237199
1.10952 34.7912 -0.146335
245.345 14.3257 -0.36032
230.709 10.939 -0.108332
233.843 25.9723 -0.286875
145.228 27.3774 -0.130661
598.275 14.8378 -0.333587
182.468 13.9383 -0.343178
876.793 38.8122 0.225548
189.923 3.76184 0.483832
51.6423 36.6171 -0.363618
830.501 45.8176 -0.426396
305.789 30.7846 -0.379212
750.812 22.6179 -0.409209
893.978 26.6557 0.585486
327.148 9.08781 -0.111903
820.35 28.1992 -0.340082
357.593 2.6251 -0.359589
452.439 23.5589 0.352066
747.131 15.7166 0.421055
115.249 11.867 -0.403999
525.892 3.95768 -0.459295
841.885 17.2106 -0.196523
96.4639 7.60671 -0.185239
306.498 14.5166 0.20107
460.601 11.6347 -0.19498
909.798 2.77734 0.403169
432.714 1.87947 -0.485784
193.06 38.1795 -0.274188
827.562 10.2568 -0.313125
140.214 35.4673 0.179411
286.357 30.9299 -0.38062
435.602 21.3696 0.210713
628.697 13.2071 -0.320594
421.19 9.70044 -0.453975
496.982 27.147 -0.32408
865.304 43.9361 -0.378263
51.9429 10.8302 -0.105841
325.776 37.9744 -0.254155
413.011 26.5211 0.345087
445.373 20.6855 0.25703
569.216 43.4773 0.356483
846.793 34.3416 0.237802
734.586 33.6545 -0.363967
246.035 33.6213 -0.386017
15.2472 30.5938 0.159233
726.803 35.3256 -0.138584
555.299 40.3465 0.427636
250.207 38.5245 -0.0914447
758.83 29.6798 0.132762
165.153 9.09043 0.196718
399.04 20.874 0.305954
505.202 41.2864 0.0998905
450.568 19.3602 0.195974
860.752 45.9312 -0.291016
463.579 3.41288 0.420987
54.3843 24.5133 0.140929
512.151 30.9145 0.354033
473.418 40.9424 0.353574
879.802 32.9931 -0.257902
817.553 27.2447 0.217674
591.557 18.2203 -0.178857
870.278 34.4874 -0.443857
319.135 2.04477 -0.427458
411.736 28.8481 0.454827
31.7372 38.1835 -0.296081
823.556 29.0893 -0.145277
670.746 19.366 0.502278
504.448 0.777975 -0.482769
137.97 4.46233 0.281308
464.64 39.2903 -0.10063
13.2987 0.902708 -0.317571
908.627 5.45184 0.192378
403.044 38.542 -0.395213
[...]
POINT_DATA 13483
TENSORS Strain_matrix float
-0.0352001 -0.050585 -0.138443 
-0.00627741 0.0160001 0.0728433 
-0.0101013 0.00560462 0.302281 

-0.0655742 -0.0102957 -0.0901467 
0.0174391 0.0319361 -0.892285 
0.00117913 -0.00320968 0.159567 

-0.0393245 0.00654297 0.634223 
-0.00507289 0.0227733 0.0746106 
-0.00170432 0.00225231 0.291368 

-0.0890834 0.061714 0.0945035 
-0.0728852 0.0368616 -0.0375296 
0.00856894 0.0083573 0.105615 

-0.0589046 -0.0219951 0.0721241 
-0.0386231 0.0239833 0.0366163 
0.0496626 -0.0396283 0.255046 

-0.035047 -0.0305197 0.013694 
-0.0221426 0.0207094 0.0295555 
-0.013477 0.0339717 0.0485711 

-0.0303228 0.0023072 -0.0063662 
-0.00478768 0.00737723 0.00131652 
1.89022e-05 -0.000256829 0.0263972 

-0.0224802 0.00477207 -0.0237207 
0.0106227 0.0027812 0.0229231 
-0.000183594 -0.00132768 0.0379318 

-0.037207 -0.00427908 0.03165 
-0.000606762 0.0169846 0.0364348 
-0.00317589 0.000251438 0.0342985 

-0.0557676 0.0256813 0.00898425 
0.0379434 0.000178024 -0.0195145 
-0.000182265 -4.73844e-07 0.0560533 

-0.0217264 0.00579408 0.0177522 
0.00520503 0.00780457 -0.0278007 
-0.00305106 0.000672145 0.018286 

-0.0236548 -0.00549361 0.0373177 
0.00303125 0.00397926 0.0156885 
0.000215491 7.38299e-05 0.00427035 

-0.0585809 0.0103812 0.0537932 
0.0134482 0.00738782 0.0580848 
-0.00301506 -0.0034612 0.0964189 

-0.0342771 -0.0492991 -0.0253249 
0.0165672 0.0070889 0.0118822 
-0.00109894 0.00133499 0.0323191 

-0.0254483 0.00228003 -0.0368071 
-0.00209826 0.0108798 0.0237429 
-0.00124671 0.000106365 0.00760727 

-0.0383772 0.0183116 -0.130787 
-0.0204785 0.0323263 -0.162582 
-0.0282901 -0.0348817 0.467797 

-0.032262 0.000878344 0.0171303 
-0.00423416 0.00959427 0.0193862 
0.000109256 0.000239641 0.0288339 

-0.0405444 -0.0168263 -0.0138032 
0.00465201 0.0142407 -0.0458491 
0.0421284 0.00385039 0.0261348 

-0.0325562 -0.0185029 -0.0787596 
-0.00807368 0.0213959 0.0864431 
0.0629106 0.00499083 0.15689 

-0.0323811 0.00546744 0.0414236 
0.00346252 -0.000814099 0.0475271 
-0.00829226 -0.0127187 0.0203021 

-0.0405795 -0.00410353 0.134216 
0.0103023 0.014246 0.0862231 
-0.00144154 1.21696e-05 0.0335521 

-0.0298826 0.0111878 -0.0757561 
-0.0432595 -0.00656942 0.0484417 
0.0012749 -0.00290337 0.0629268 

-0.0709951 0.00182449 0.371267 
-0.0117828 0.013315 -0.485651 
-0.00105673 0.00215554 0.321942 

-0.0448446 0.0206838 0.397642 
-0.00267987 0.0122158 -0.259506 
0.000149986 0.00128479 0.0460102 

-0.0171543 -0.0123757 -0.0683765 
-4.93627e-05 0.00676496 -0.0830409 
-0.00796652 -0.00528067 0.121474 

-0.0375399 0.0235098 0.0531327 
0.0012655 0.0529801 -0.138373 
-0.0275769 0.0562045 0.0817207 

-0.0354627 -0.00154808 -0.223998 
0.00302464 0.0118452 0.656426 
-0.000133207 -0.00624363 -0.0257845 

-0.042135 0.00474695 -0.0507877 
-0.0121436 0.0297554 -0.0943148 
-0.00471863 -0.0150106 0.0130072 

-0.021396 -0.00578241 0.0275977 
0.00339631 0.00902572 -0.143416 
-0.0018835 0.00188628 0.112716 

-0.0248453 0.00973942 -0.11972 
-0.000645107 0.00967411 -0.159511 
0.0069933 -0.0028105 0.00475834 

-0.026543 0.00795279 -0.0064118 
-0.00327652 0.00960552 -0.0570367 
-0.000714099 0.000941629 0.0266986 

-0.0491446 -0.00392231 -0.0473328 
-0.0228351 0.0222975 -0.0105254 
-0.00868578 0.00111978 -0.00600665 

-0.0501548 -0.0184082 0.202199 
0.0270583 0.0109295 0.0689558 
0.000345514 -0.000359991 0.0613004 

-0.067312 0.0198617 -0.220564 
0.00508635 0.0375022 -0.521722 
-0.000337991 -0.00452139 0.117381 

0.0164058 0.0151217 0.0495091 
-0.0292853 -0.00957008 0.0411416 
0.00528644 0.00288421 -0.0214016 

-0.0469043 -0.0014586 -0.0494086 
0.00869165 0.0302894 0.178256 
0.00460641 0.0377727 0.15953 

-0.0290625 -0.00629206 -0.0275961 
0.0128334 0.00709864 -0.0488661 
0.00176892 4.59459e-05 0.0102207 

-0.0169096 -0.0135859 -0.0335028 
0.00704733 0.0140134 0.0078106 
0.00397816 -0.00336074 -0.0174455 

-0.0349771 -0.00461397 0.033876 
0.025841 0.00976904 0.00136213 
-0.00178711 -0.00121483 0.0353373 

-0.0465384 -0.0126325 -0.0380654 
0.00866133 0.0394631 0.426148 
0.000611138 -0.000297974 0.130195 

-0.0324508 0.00380355 -0.0149852 
-0.00612993 0.00718557 0.0123756 
0.00446286 -2.89264e-05 0.0513331 

-0.0428398 0.00835728 -0.131994 
-0.0212396 0.0171447 -0.0692007 
0.022425 0.0112345 0.0276922 

-0.11859 0.0330613 -0.0130694 
-0.0214698 0.0531556 0.0481148 
0.000440731 -0.0815278 0.488752 

-0.0170337 0.00282269 -0.111352 
0.00226642 0.00719895 0.0115884 
0.000779854 -0.00114433 -0.0333015 

-0.0271281 0.00323146 -0.0151472 
-0.00561055 0.0104477 -0.00134584 
-0.00176194 -0.000606833 0.00621519 

-0.0310086 0.00981064 0.0241325 
-0.0253044 0.0188605 -0.0655858 
0.00198239 -0.000521665 0.0246551 

-0.0515286 0.00941623 0.0989727 
-0.000860347 0.030402 0.162183 
0.00154938 0.0103901 0.118929 

-0.0203234 -0.00153146 -0.00487218 
-0.00843626 0.0101933 -0.0150998 
-0.000544209 1.37804e-05 0.015658 

-0.0876301 0.0423582 -0.0295909 
0.0416164 0.0459104 -0.0612572 
-0.0567504 -0.0372961 0.345358 

-0.0187635 0.00553087 0.103899 
-0.0455321 0.0197997 -0.144776 
-0.0235278 0.0213842 -0.115067 

-0.0192195 -0.0297378 -0.0512846 
0.0237375 0.00634529 0.00228875 
-0.00712238 0.0117832 0.121427 

-0.0526635 0.00259887 -0.125076 
-0.0035903 0.00529827 -0.0481983 
0.00227776 0.00586712 0.0220499 

-0.0719315 -0.0178941 -0.220507 
0.0206109 0.027171 0.118878 
0.0501062 0.00203107 0.485026 

-0.0391196 0.0055727 0.0483639 
-0.0094243 0.00685668 0.0670645 
-0.000194831 0.000443431 0.0398674 

-0.0333199 0.00714936 -0.189301 
-0.00372752 0.0127315 -0.152802 
-0.00460291 0.00334918 0.00148809 

-0.0561345 -0.0135268 -0.292441 
-0.0130382 0.022321 0.0509994 
0.00836451 -0.00524795 0.0756873 

-0.0437945 0.00631783 -0.014615 
0.00432635 0.00689359 0.0127205 
0.000427342 0.00339654 0.0417937 

-0.0362253 -0.172083 0.0438091 
0.000390284 0.0360491 0.0206407 
0.00963881 0.0988188 0.162557 

-0.0147548 -0.00116849 -0.0278776 
-0.00550319 0.00461692 0.00970315 
0.00029839 0.0048774 0.0292596 

-0.0289572 -0.00410714 -0.126936 
-0.0186363 0.00979233 0.0166369 
-0.00474143 0.00431935 -0.00300371 

-0.0206051 0.096174 -0.054665 
0.0281528 0.0402505 0.0804566 
0.000334281 0.0493876 0.346237 

-0.0487032 0.00158273 -0.282169 
-0.00611716 0.031397 -0.10016 
-0.0264354 -0.00312574 0.359283 

-0.0358485 -0.0347028 -0.122024 
-0.00150816 -0.012318 -0.0477847 
0.00177236 0.0375039 0.0834707 

-0.0382831 -0.000289001 0.111486 
0.00726555 0.0133645 0.12809 
-0.00298325 -0.000116892 -0.0336827 

-0.0546648 -0.0686415 0.142211 
0.000831801 0.0187785 -0.126655 
0.0128838 -0.00178189 0.129714 

-0.043869 0.0145709 0.00915756 
0.00645599 0.0482099 -0.0188862 
-0.000462238 0.000654656 0.00940182 

-0.0475633 0.00793859 -0.00760137 
0.0149345 0.0130146 -0.0176348 
0.0011412 0.000125698 0.0348531 

-0.0507881 -0.0512878 -0.0298535 
0.0617926 0.0227021 0.166063 
0.0130622 -0.0489244 0.206901 

-0.0410438 -0.00959666 -0.345391 
-0.00392842 0.010722 -0.827582 
0.000450875 0.000690521 0.333464 

-0.0492603 0.00989485 0.0116328 
-0.0144917 0.0109288 0.0143901 
-0.000531498 -0.00182161 0.0573455 

-0.0667015 0.0260957 -0.165432 
-0.00718178 0.0247693 0.308036 
-0.00384521 -0.0166023 0.108061 

-0.0234049 -0.00790033 0.00148629 
-0.000914992 0.00826647 -0.00766578 
0.00902997 -0.00144573 0.0529896 

-0.037001 -0.0207566 -0.042325 
0.0192279 0.0317419 0.0261387 
0.00253849 -0.000870263 0.013837 

-0.0320214 -0.0193125 0.0364555 
0.00346113 0.011251 -0.063849 
-0.000907326 0.000126938 0.0431162 

-0.0331346 0.0108666 -0.185098 
-0.00124723 0.00858878 -0.050661 
-0.00013484 -0.00555858 0.155379 

-0.0288012 0.0135547 0.0111145 
-0.00760545 0.0124973 -0.015927 
-0.00558081 0.00538494 0.0508082 

-0.081645 -0.0337154 -0.135872 
0.0180662 0.0220603 -0.0816798 
-0.0234478 -0.0115011 0.281376 

-0.0290507 0.026805 -0.250739 
-0.013317 0.0143037 0.0182241 
0.0052162 -0.0238415 -0.0445338 

-0.0875908 0.00216159 -0.0966245 
0.011026 0.0409569 0.0434981 
-0.00684856 -0.0408024 0.430028 

-0.0355423 0.00386197 -0.0128461 
0.00916166 0.00340324 0.0119192 
0.0181542 -0.0071104 0.144045 

-0.070452 0.0159788 0.0415281 
-0.0240311 0.0119129 -0.00956311 
-0.00157198 0.0014462 0.094404 

-0.0265076 -0.015834 -0.0498274 
0.0260733 0.00300995 -0.0647131 
0.0508465 -0.000101579 0.313747 

-0.0231465 -0.00574441 -0.0406371 
0.0107521 0.0123465 -0.0159949 
0.00623208 0.0135477 0.128476 

-0.0483547 -0.00985094 0.0301637 
-0.0228388 0.023548 -0.114702 
-0.00751272 0.0384993 0.00885028 

-0.0439937 -0.0136813 -0.234391 
-0.0486525 0.0269023 -0.273208 
-0.0549769 0.0151556 0.369811 

-0.12406 -0.0877839 -0.356606 
0.103306 0.0402204 0.0259043 
-0.000261107 0.00431187 0.165107 

-0.0940207 0.480698 0.418625 
0.00107112 0.114028 -0.157846 
-5.60463e-05 -0.0469622 0.112084 

-0.0422836 -0.00389654 0.074268 
0.0116638 0.0048573 -0.0319751 
0.0237263 -0.00864173 0.224837 

-0.036519 0.0137334 0.00111818 
-0.0247598 0.00992079 0.000947611 
-0.00183427 0.000384559 0.0272782 

-0.033681 0.0138661 0.140208 
0.00430199 0.0116751 0.109266 
0.000821183 0.000191283 0.0221927 

-0.0147768 0.00103012 0.0110741 
-0.00402849 0.000761653 0.00971747 
-0.000813444 0.00138145 0.0582537 

-0.0369373 0.00232318 0.00230387 
-0.00153643 0.0128097 0.0171981 
0.000764197 -6.99893e-07 0.0286704 

-0.0695162 -0.0208458 -0.272851 
0.0190036 0.0121007 0.136934 
0.000964956 -0.000776561 0.2313 

-0.0464164 -0.0119911 0.0450528 
0.00872238 0.0151969 0.0107115 
-0.0251427 0.0207581 -0.0222511 

-0.0330305 0.0114049 0.244576 
0.00159562 0.021418 0.0823349 
-0.0301372 -0.00764911 -0.118249 

-0.0513917 0.0331297 -0.0502404 
0.00588085 0.0322627 -0.0188414 
0.000646632 -0.0137618 0.062871 

-0.0303826 0.0138925 0.011212 
-0.0108552 0.0081581 -0.0301795 
-0.00133741 0.000257516 0.0195867 

-0.0562654 0.0482501 0.0177217 
-0.018713 0.0471676 0.00659795 
0.00900937 -0.013109 0.0713414 

-0.0598074 -0.0126844 -0.0875936 
0.000960963 0.0132627 -0.0156709 
0.0372631 0.0224806 0.184389 

-0.0240782 -0.00407307 -0.15504 
0.00765243 0.0142133 0.0604494 
0.00277722 -0.000497751 0.00692464 

-0.0271268 0.000797553 -0.908123 
0.00100086 0.0106516 -0.412879 
-0.00234167 -0.00497039 0.348524 

-0.0362579 -0.0153632 -0.258711 
0.0035002 0.0101144 -0.565199 
0.0268756 0.00224419 1.4712 

-0.0523638 0.00333477 -0.549338 
-0.0156107 0.0312123 -0.261785 
0.00220441 0.00302535 0.130169 

-0.0364972 0.00202305 0.0474498 
0.00375845 -0.0066009 0.0315369 
-0.00909867 -0.0644694 0.181045 

-0.0327835 -0.0120841 -0.070428 
0.00417854 0.0213073 0.298242 
0.00491158 0.00436808 -0.124765 

-0.0507172 -0.0150077 -0.0123055 
0.00233202 0.0233827 7.84905e-05 
-0.00253921 0.00183953 0.0102843 

-0.12199 0.0576338 0.0725006 
-0.030979 0.0172375 0.0480294 
-0.0153463 -0.0215057 0.210096 

-0.0267841 0.0150435 -0.0209003 
-0.021222 0.00146118 0.478739 
0.00402314 -0.00566776 0.101715 

-0.0500368 0.0237667 0.0954014 
0.0102261 0.00524065 -0.045646 
0.0024423 0.00208092 0.0490438 

-0.0462528 0.00554111 -0.199474 
-0.00920593 0.0153915 -0.0375156 
-0.00306006 -0.000103533 0.0397309 

-0.0456541 0.0295911 -0.369189 
-0.00147843 0.0165198 0.711064 
0.00878323 -0.0141887 -0.183414 

-0.0427452 0.00452209 0.617627 
-0.00076877 0.0153335 -0.563044 
-0.0013683 -0.0043911 -0.204622 

-0.0215828 0.0114754 0.0154381 
-0.000620283 -0.00105989 0.00986847 
-0.000971751 -0.00106349 0.0342794 

-0.0608113 -0.0202546 0.108781 
0.0144566 0.0126783 -0.491744 
0.027373 -0.00908377 0.31378 

-0.0357015 0.0242369 0.021329 
-0.030274 0.017431 -0.02126 
-0.00169105 -0.000787348 -0.0308076 

-0.0283339 -0.0282029 0.0352013 
0.0179579 0.0170792 0.13145 
0.0113779 -0.0199856 -0.109405 

-0.0161138 0.0165077 0.0109528 
-0.0156273 0.00642891 0.0723131 
-0.010017 -0.00344175 0.0497143 

-0.0247176 0.00336294 0.0130889 
7.22188e-07 0.00783134 0.0151806 
-0.00326025 0.00663231 0.0344315 

-0.045519 -0.00802412 0.0172543 
0.034577 0.0101205 0.0213519 
-0.0236526 0.000132404 0.128242 

-0.0289215 -0.00541593 -0.036333 
0.00182534 0.00801484 0.134899 
0.00479208 0.00348106 0.0105177 

-0.0577327 0.0190465 -0.0587113 
0.0238035 0.00470708 -0.0173269 
0.00135816 -0.000235889 0.0901574 

-0.0413228 0.016357 0.0111783 
-0.0252662 0.0081137 -0.00959593 
-0.00457572 0.00638759 0.149321 

-0.0255243 -0.0106766 -0.0291044 
-0.00711992 0.00313856 -0.0661375 
-0.0248849 0.00207348 0.0427539 

-0.0337015 0.00458291 0.0353908 
-0.00922914 0.00642001 -0.0152051 
0.00194874 -0.0305155 0.183908 

-0.0277784 0.00226243 -0.689564 
-0.00266962 0.00907926 1.54805 
-0.00214269 0.00272657 -0.645714 

-0.0308321 0.0200387 -0.0427494 
-0.00293567 0.0116477 0.261507 
-0.000779716 -0.000515547 0.0440831 

-0.0328176 0.0133839 -0.0176136 
-0.0112297 0.00296755 0.0204693 
0.0261628 -0.0124655 0.109618 

-0.0298921 0.0112518 0.065612 
0.0107235 0.0236978 -0.0316317 
0.00776992 0.0522567 0.223131 

-0.0261953 -0.0186823 0.0636268 
0.00283329 0.00687276 -0.0033472 
0.0177167 0.00678662 0.139759 

-0.0322961 0.012591 0.0137987 
0.00498462 0.0144497 -0.0384639 
-0.0284706 -0.0215995 0.280239 

-0.0371939 0.00987403 -0.0822621 
-0.010479 0.00367212 -0.046116 
-0.000962439 -0.00100039 0.0933094 

-0.0676634 0.00205572 0.143647 
-0.0104826 0.0570436 0.0286538 
0.00128547 0.00630889 0.0974813 

-0.0355283 -0.00197929 -0.017679 
0.00689328 0.0204506 0.00652341 
-0.000928401 9.84905e-05 0.0698043 

-0.0505487 0.0247752 0.0171709 
0.0154469 0.0012377 -0.00594499 
0.00182831 -0.000257759 0.0832061 

-0.0478309 0.0132182 0.00133058 
-0.000629283 0.0190866 0.0977909 
0.00171067 -0.000217651 0.0643894 

-0.0220319 0.00919965 -0.0766254 
0.00187048 0.00993622 0.0213277 
0.00812529 -0.000534166 0.121986 

-0.0666156 -0.00322204 -0.0182094 
0.0194944 0.0157846 0.0141341 
-0.0248403 -0.0941625 0.65095 

-0.0243501 0.00742271 -0.0742253 
-0.00699322 0.00333385 -0.0424032 
0.000250183 0.000124292 0.0589165 

-0.0379681 -0.0216247 -0.0257963 
0.00774437 0.0236405 0.0133342 
0.000400504 0.0020368 0.0302716 

-0.00694822 -0.0444386 0.0084697 
0.0227934 -0.00647529 0.0318351 
0.00910268 -0.0129431 0.113243 

-0.0511313 0.00465312 0.0355335 
0.0171877 0.0180531 0.120656 
0.0050123 -0.018825 0.0515384 

-0.0287336 -0.021455 0.0538084 
0.0201517 0.0153458 -0.00617001 
0.0228346 -0.00554546 0.0903763 

-0.0459176 -0.0158079 0.0808759 
0.0176717 0.0143327 -0.0235508 
-0.0132601 0.0183025 0.109504 

-0.0508228 -0.0352963 -0.124253 
0.0112219 0.0103421 0.135778 
0.0129115 0.0150247 0.069097 

-0.0227846 -0.00178224 -0.100619 
-0.00406499 0.00996544 0.0488666 
0.00682572 -0.00476132 0.0577428 

-0.073671 -0.00374138 0.0539325 
-0.0397099 0.0421709 0.0864873 
-0.000400096 -0.00276389 0.0654837 

-0.076861 0.00713781 0.15715 
-0.0236564 -0.00205321 0.0428829 
-0.00473921 0.00468424 0.107666 

-0.0293577 0.00852174 -0.0792684 
-0.0239687 0.00967378 0.162653 
0.00904492 0.00121671 -0.00677283 

-0.0299491 0.0151691 0.0453581 
-0.0117085 0.0113286 -0.10503 
-0.00201952 2.8488e-05 0.062437 

-0.0316269 0.00292612 0.0485559 
-0.0158404 0.0191517 -0.0548507 
0.00142868 5.84163e-05 0.0152806 

-0.0445938 -0.00914205 0.145835 
-0.00239513 0.0172924 0.818589 
0.000534276 -0.00480046 -0.237503 

-0.0616617 -0.00943004 0.0308137 
0.0150245 0.0179966 0.0804923 
0.00950213 0.0103195 0.234842 

-0.0392062 -0.0315997 -0.154419 
0.0139166 0.0186441 0.105904 
0.000245822 0.00361382 0.081327 

-0.03338 0.000122865 -0.158618 
0.00315664 0.0123753 -0.0986312 
0.000826714 0.0167779 0.0334101 

-0.022108 0.00455637 0.0408604 
0.00425271 -0.000734962 -0.0363408 
0.000638729 -0.00259739 0.047084 

-0.040385 -0.0137951 -0.0270599 
0.00777604 0.0122257 -0.0968235 
0.032842 -0.0152233 -0.55951 

-0.0629512 -0.00857743 0.333322 
0.0216267 0.0336128 -0.444644 
0.00799966 -0.0130055 -0.710565 

-0.0311416 -0.00679903 -0.0575058 
-0.00850783 0.00930409 0.122086 
-0.00706263 0.00174107 0.273414 

-0.04947 -0.0311438 0.0247294 
0.0052232 0.0397969 -0.253884 
-0.00319777 0.00276463 0.000153118 

-0.0406968 0.0105557 -0.428932 
0.00106134 0.0114075 0.285495 
0.00279572 0.00183255 0.074415 

-0.0464658 0.00391135 0.109844 
-0.00427367 0.0320263 -0.0988365 
0.0265295 0.0157678 -2.83227 

-0.0312397 -0.0276968 -0.046323 
-0.00806696 0.00836294 -0.0703709 
0.00200842 0.00290002 0.0207305 

-0.0337393 -0.0277184 0.147065 
-0.0117348 0.0221508 0.201386 
0.0403545 -0.0941199 0.976622 

-0.0464578 -0.0384811 3.24068 
-0.00749206 0.0530937 -2.32835 
-0.00253989 -0.0134888 0.135574 

-0.0679021 -0.0211274 0.0087196 
-0.00516034 0.0262232 0.130498 
-0.0053277 -0.068833 1.12832 

-0.215273 0.0215022 0.0197803 
-0.0343537 0.136752 -0.0187823 
-0.00157885 0.000302636 0.127971 

-0.0363755 0.0149292 -0.0210225 
-0.0024528 0.00427957 0.0144552 
0.00602082 0.0131169 0.00740351 

-0.0164257 -0.0102506 -0.0246117 
-0.00967818 0.00460452 0.0224741 
-0.000204973 -0.00327386 0.048444 

-0.0219445 0.0119934 0.0716735 
-0.00202264 0.00919928 -0.0124424 
0.00093527 -0.00116185 0.0122605 

-0.0227201 0.0150058 -0.0414595 
-0.00417546 0.0164685 0.172896 
-0.000647783 0.000435193 0.0229732 

-0.0233517 0.00501219 0.0581153 
0.00783771 0.0134196 -0.0146031 
0.000277916 -0.000743718 0.0106872 

-0.022793 0.0202044 -0.056731 
-0.00837402 0.00973347 -0.0212756 
0.0183706 0.0341668 0.664895 

-0.0414086 0.00369282 0.165361 
-0.0154502 0.0267675 -0.110245 
-0.0469957 -0.0309573 0.819665 

-0.0422258 -0.0156352 -0.111926 
-0.00177633 0.00621411 0.110837 
-0.00191071 -0.000667226 0.0636602 

-0.0492978 0.00841959 -0.028095 
-0.0055872 -0.00314468 0.0628503 
-0.00479477 -0.0538743 0.383658 

-0.0417562 -0.00383455 0.0692579 
-0.0177147 0.0054442 0.0258591 
-0.00223909 0.00247539 0.0820835 

-0.0567175 0.0130322 0.00602971 
-0.0206607 0.00561487 -0.0173184 
0.00416781 -0.00402629 0.0820144 

-0.0411011 -0.0203353 0.0377544 
-0.0204719 0.00805606 -0.0257947 
0.00718711 0.00257485 0.0455781 

-0.0194051 0.00600778 0.074045 
-0.00967024 0.00760414 0.0859266 
-0.00658871 0.0164301 0.0369186 

-0.0529536 0.0207208 -0.0453129 
-0.00633702 0.0123856 -0.0137015 
-0.00722409 -0.00550737 0.0130754 

-0.0098318 -0.00463366 0.0706101 
0.0099221 0.0205089 0.00599888 
-0.0156684 0.0150945 0.123728 

-0.0334375 0.0100995 0.127443 
-0.0433443 0.000225758 -0.0605534 
-0.0010093 0.00254316 0.0521479 

-0.0231763 -0.00979275 0.0518752 
0.00201596 0.00773773 -0.023118 
-0.00126235 -0.000982686 0.0087707 

-0.0274713 0.00394414 -0.0378937 
0.000501471 0.00870893 -0.0934073 
-0.000904453 -0.000320178 0.00842252 

-0.0810636 -0.00593655 0.0368004 
0.0216526 0.0388515 -0.118242 
0.067485 0.0727973 0.343249 

-0.0309671 -0.00245232 0.0483277 
0.00194857 0.00711294 0.0138082 
0.00250923 -0.00197476 0.000618398 

-0.0435448 0.00338495 0.325608 
-0.00863343 0.019493 0.203982 
0.00232112 0.00267071 0.0755628 

-0.0507085 -0.0108742 0.00873004 
0.0310394 0.0109925 -0.0208228 
0.00242345 0.00126421 0.0590498 

-0.0323402 0.00300988 -0.0457755 
-0.00685394 0.00784893 0.00522778 
0.00110684 -0.00106398 0.112282 

-0.0800072 -0.00613262 -0.0212317 
0.0150308 0.0368226 0.00318194 
0.0173 -0.0103145 0.000409518 

-0.0216779 0.000259561 0.0100871 
0.0127121 -0.000812446 0.0237526 
-0.000872853 0.000670473 0.0513319 

-0.0486628 -0.0386945 0.0139672 
0.0412444 0.0158631 -0.00537033 
-0.000127284 0.00151067 0.0196359 

-0.0416185 -0.0174794 0.0310897 
0.00957062 -0.000712919 0.129688 
0.0011665 -0.00348513 0.0475339 

-0.0407913 -0.0364631 0.0686678 
0.00864182 0.0209025 0.0690374 
-0.0210606 -0.00373491 1.04203 

-0.0572997 0.0193839 -0.0738673 
-0.0305859 -0.00610325 -0.111097 
-0.000395037 -0.00390777 0.122556 

-0.0303557 0.0179759 -0.0834543 
-0.0200317 0.0175142 -0.0845517 
0.0259442 -0.00441332 0.208609 

-0.0272 0.038469 -0.00436033 
-0.0219937 0.0318523 -0.0212553 
-0.0266821 -0.0161423 -0.0739998 

-0.0382621 -0.0467505 -0.0625874 
-0.000580493 -0.0185567 0.00656659 
0.0190278 0.0537391 0.0941887 

-0.0456388 -0.00808122 -0.0602876 
-0.00681042 0.0223974 0.0582861 
-6.17171e-05 0.00182839 0.0210766 

-0.0508745 0.0117106 -0.011874 
-0.0032346 0.0134531 0.119911 