# vtk DataFile Version 3.0
Output file generated by Yade's KinematicLocalisationAnalyser
ASCII
DATASET UNSTRUCTURED_GRID

POINTS 13483 float
552.362 40.6511 -0.491678
644.555 75.334 0.4847
114.406 6.02067 -0.578857
674.436 10.9467 -0.366054
468.916 9.26148 0.367728
302.758 36.2857 -0.481766
149.541 7.29408 0.465394
532.208 10.5014 -0.123041
470.264 28.314 -0.154866
619.091 11.8649 0.595924
201.521 8.73114 0.140144
246.912 6.34268 -0.246292
583.861 64.1624 -0.139685
570.909 39.5075 -0.10082
131.327 17.9874 0.527252
211.516 34.8979 0.411056
208.8 13.0223 -0.300038
278.32 9.94172 0.412231
328.982 34.2588 -0.468005
490.459 8.33074 0.429033
393.529 37.9281 -0.0962286
525.78 60.3952 0.294648
669.768 45.4228 -0.546663
627.975 81.0325 -0.1551
439.137 16.9872 -0.399736
230.995 44.8164 0.137936
464.823 33.4583 -0.521564
544.345 22.2737 0.247673
42.4637 16.5355 -0.32059
613.156 32.1526 0.477961
456.006 6.18846 0.363841
15.2014 24.1024 0.407807
655.759 78.8263 0.269039
465.351 2.42759 0.717419
74.6302 45.3339 -0.111204
488.894 33.5552 0.410285
495.712 16.6435 0.512421
331.108 22.9179 -0.239692
499.478 26.0614 0.389372
336.499 35.8314 0.459921
231.45 14.7747 0.282744
414.98 36.7448 0.09778
579.378 7.46087 0.15021
184.345 6.2677 0.411212
52.4339 7.16435 -0.115421
65.2789 9.14699 -0.299338
591.62 10.082 -0.6642
22.4606 12.5561 -0.34541
541.517 69.8646 -0.184652
609.789 60.2548 0.334901
164.544 33.0999 0.302814
644.274 58.3347 -0.139663
32.6357 29.5663 0.135956
500.782 4.4783 0.589523
135.798 7.34915 -0.534148
545.124 42.193 0.442161
475.343 33.293 -0.155611
167.479 0.933589 -0.280174
30.486 2.26832 -0.38482
335.838 18.1332 0.283442
550.501 79.9358 -0.133386
438.399 41.1368 -0.177737
383.465 1.02997 0.205505
601.919 9.04596 -0.564294
25.2695 45.1062 0.250824
246.388 31.1337 0.288945
618.935 7.51829 0.381583
598.918 85.5407 0.376405
401.487 8.88105 -0.59263
532.356 3.67625 -0.610188
633.017 43.1897 -0.491281
124.851 7.86336 0.276682
470.392 31.7536 -0.174227
453.454 19.0807 -0.213181
284.447 17.0283 -0.350072
19.6024 14.2922 0.296914
665.766 73.6165 0.316139
321.18 40.4031 -0.303537
608.072 51.2033 -0.362676
591.531 13.681 0.359831
666.863 14.8768 -0.250921
441.718 42.0858 0.184633
88.8113 39.989 0.302427
615.069 73.7794 -0.262938
577.406 71.1397 0.107948
676.614 56.1288 -0.217936
661.723 2.65314 -0.695351
281.074 28.9669 0.449254
571.686 22.9509 -0.116553
23.51 6.35158 -0.653557
128.149 39.3286 -0.174451
482.094 15.6074 0.287829
663.177 59.827 -0.521156
187.7 29.4802 0.244418
41.9422 35.6283 0.304686
464.374 1.09004 0.161465
227.041 8.70043 -0.45065
628.957 56.1929 -0.348913
651.417 53.5194 0.314678
347.94 22.3344 -0.281253
156.891 27.2631 -0.434839
511.502 46.1772 -0.399124
366.128 16.4954 -0.462211
397.63 30.763 0.10406
364.527 5.89816 0.413816
514.062 11.0951 -0.227334
676.693 17.5535 -0.25565
76.8852 40.2404 -0.425716
323.676 5.07608 -0.201769
525.394 9.7251 0.372999
347.417 45.9902 0.536075
23.8974 26.0776 -0.515974
29.0974 6.04697 -0.308361
526.131 40.1966 0.413185
476.624 28.3102 -0.209348
23.9464 38.4958 0.42903
89.3652 31.2354 0.212315
314.98 16.9878 -0.287361
553.917 23.9182 0.159108
451.223 45.8993 0.360391
634.209 10.0752 -0.443137
627.456 6.46841 -0.247791
373.744 38.3664 -0.0987156
570.217 54.0837 0.127999
230.059 16.6387 0.546082
319.592 4.20147 0.445954
99.0977 32.2484 0.390583
111.817 25.3855 -0.295145
508.014 45.5939 -0.0846251
297.241 19.3281 0.480077
608.796 38.0669 -0.122695
603.528 85.4815 0.103437
457.248 26.3009 0.35829
663.171 42.8128 0.333728
413.452 24.2171 -0.325474
267.874 24.5734 0.301098
609.133 69.0744 -0.30246
270.168 28.6516 -0.447962
541.158 12.7852 -0.263543
322.279 37.1431 0.211135
476.377 13.1662 0.571159
354.807 32.9046 -0.107126
415.261 17.5508 0.119391
308.587 43.5386 0.437211
184.034 30.4572 0.143918
647.978 71.7682 -0.14972
674.3 18.9035 -0.476498
5.88537 12.3961 -0.517474
419.161 23.6065 -0.42717
36.3203 23.9943 -0.112516
364.764 32.3773 -0.465838
382.539 25.791 0.322027
72.2399 12.2264 0.504958
49.5406 34.131 0.428421
218.883 13.6691 0.42366
551.549 60.8746 0.392631
540.622 23.2239 -0.673942
72.2956 21.329 0.47672
631.049 82.6088 -0.430328
646.623 2.81465 0.633036
593.643 78.6718 -0.471655
598.324 2.41329 -0.542784
517.578 29.2308 -0.488174
526.843 61.5656 -0.470172
484.674 19.3252 -0.542702
673.556 6.16096 0.316054
216.476 25.0768 0.169594
123.769 36.1937 0.200698
239.993 6.74317 0.441841
90.9534 4.50217 0.284747
61.6781 10.4416 0.222811
268.184 36.2496 0.369211
15.635 25.8688 0.439367
522.608 20.8397 -0.434012
544.869 65.3087 0.188807
443.979 25.5948 -0.377345
674.761 82.4113 0.359817
394.699 8.69019 -0.108459
420.785 38.3286 -0.469791
507.458 3.29944 -0.211937
21.1548 25.1321 -0.42484
543.354 4.29804 0.517745
515.014 3.90022 -0.325035
199.953 11.1751 0.48884
412.058 17.2741 -0.252136
304.025 6.47039 0.358328
377.033 19.7844 -0.291543
620.489 48.4184 0.145592
186.494 26.2865 -0.473059
653.484 12.8649 -0.45953
622.954 45.4267 0.397631
372.357 10.6158 0.193921
617.912 2.22736 0.562162
556.268 32.353 0.595515
635.835 22.1399 -0.535501
415.557 46.0932 0.290947
471.945 14.8974 0.525379
444.796 53.2768 0.252353
431.744 9.97994 -0.218181
597.49 78.9127 0.263115
595.697 74.6021 0.299155
186.895 39.5943 -0.330805
665.005 14.3171 -0.24133
527.508 63.1269 0.242277
10.7754 17.0567 0.299342
395.313 26.0986 0.540489
181.554 23.7341 0.407345
90.4255 40.9036 -0.228639
662.318 56.5243 -0.472315
589.318 82.119 0.218385
311.525 26.8123 -0.393439
505.037 10.6355 0.36107
79.6593 45.7547 -0.19241
241.099 26.2937 -0.502338
525.546 27.1842 0.413293
466.229 23.8813 0.583498
256.255 0.880353 -0.345442
515.172 52.461 -0.357889
505.274 45.0781 -0.613092
460.519 40.3903 0.37618
473.43 2.45376 -0.645407
603.524 20.8637 0.439332
174.244 12.5838 -0.21506
479.583 42.6405 0.449249
525.686 49.014 -0.140574
70.5623 0.987734 0.311287
245.248 4.83903 0.179469
672.879 23.5575 -0.303881
666.518 16.7924 -0.524364
677.158 25.4706 -0.708761
296.677 8.66596 -0.230828
638.539 31.5556 0.663189
395.126 42.8258 0.358732
434.429 0.761676 -0.503311
582.946 71.4475 0.431374
25.2736 32.2001 0.319258
323.081 43.1816 0.582268
246.082 2.97764 0.398313
660.504 77.678 -0.0736848
632.562 90.7588 0.221452
280.766 11.3652 0.26143
603.344 68.6855 0.0803594
527.534 2.56507 0.331008
513.479 7.37593 0.471139
93.8656 18.7938 -0.467877
296.504 1.07736 -0.231942
334.617 2.2438 -0.37604
13.7424 7.65847 -0.450733
4.05703 31.1712 -0.252001
156.882 19.2497 0.404417
66.2136 42.3213 0.230685
64.4354 29.508 0.383256
411.019 14.7295 -0.464391
357.649 36.4227 0.454784
641.447 59.5351 0.144326
19.4467 4.22653 0.273922
68.2928 7.20338 0.142559
558.176 65.5847 -0.130341
287.954 0.94697 0.38387
355.532 17 -0.152337
229.499 4.68573 -0.381424
594.298 57.0925 -0.287629
437.295 7.48575 0.513435
641.086 32.4557 0.358567
567.922 57.0864 -0.299352
609.844 50.1545 -0.0857926
408.49 27.1024 0.628992
99.2252 46.5905 0.310755
508.627 52.0994 0.0888233
638.442 16.6465 0.220754
231.692 31.1951 -0.276479
30.3865 18.5836 -0.206203
328.254 14.0522 0.506024
104.369 41.7488 -0.407907
261.521 42.7949 -0.220487
414.928 2.20438 -0.259931
666.341 66.8165 0.44538
593.611 0.705301 0.680866
324.2 3.5503 0.591707
293.657 27.2562 -0.202542
444.926 49.3156 0.227544
78.9708 8.6204 0.516103
192.309 46.1907 0.389062
652.889 56.7003 0.351802
475.004 45.6739 -0.0916898
194.635 41.6622 -0.284166
155.485 44.5018 0.45852
679.698 50.6023 -0.456388
675.984 19.17 -0.680232
565.468 12.1583 -0.640348
185.152 25.1995 0.112778
518.817 30.7143 0.158865
520.771 31.0712 -0.282876
399.294 5.87901 -0.144494
460.841 2.22705 -0.326043
639.251 62.7835 -0.519186
82.904 31.9719 -0.260778
600.512 53.9168 -0.495885
268.196 15.6926 -0.380727
9.37393 2.33133 0.350941
122.405 38.068 0.19297
64.9512 23.7012 0.561861
603.195 40.3863 0.328677
659.894 86.4089 0.189414
180.261 29.087 -0.203232
670.894 20.3643 0.465317
43.3506 37.6512 -0.297018
88.1983 29.6097 -0.15091
579.817 41.319 0.486874
402.527 19.1954 -0.588427
493.831 17.1301 0.127947
232.175 29.1645 -0.187075
575.474 15.1494 -0.56711
677.094 19.5096 0.419175
27.8533 33.2497 0.308927
264.175 7.76549 0.203559
216.56 15.2898 0.263086
1.37306 36.5689 0.144593
219.848 14.726 -0.381701
206.3 11.068 0.128829
208.595 26.4882 -0.278671
129.832 28.741 -0.156726
518.462 16.5768 -0.391193
162.6 14.4466 -0.365064
654.897 75.4523 0.244799
169.474 3.79141 0.519228
45.4207 38.7058 -0.456754
626.309 65.2693 -0.529579
275.09 31.547 -0.390676
612.546 56.5831 -0.442573
672.305 69.5615 0.451494
294.741 9.30437 -0.096824
628.394 33.9667 -0.386002
321.422 2.37873 -0.513794
404.949 24.696 -0.391985
583.897 19.842 0.674108
102.846 12.621 -0.544698
462.881 4.32527 -0.698473
644.394 32.7963 -0.189425
85.5449 7.86322 -0.278421
275.83 14.9883 0.202144
412.201 12.1986 -0.212848
673.226 2.40141 0.608844
388.301 1.98766 -0.54939
171.917 39.8938 -0.314599
641.277 14.7186 -0.472899
125.61 37.2754 0.181028
257.249 31.6679 -0.405339
390.517 21.9202 0.248203
543.031 15.2239 0.43145
377.686 10.239 -0.563757
440.695 35.3163 0.461394
643.343 74.2463 0.399429
45.509 12.1187 -0.210877
292.808 39.5918 -0.254847
370.861 28.6892 -0.459698
399.322 21.0771 0.342339
499.78 53.7351 -0.356151
637.49 57.5364 -0.23191
601.466 74.9975 0.361391
219.912 34.6392 -0.378538
12.4886 33.0894 0.193425
593.713 75.0572 -0.118224
489.625 49.6841 0.5003
223.613 39.7882 0.114642
618.973 66.4657 0.109598
146.979 9.65549 0.267625
358.002 22.3309 0.374372
445.63 51.2621 0.106701
403.248 20.4868 0.288582
643.764 80.4378 -0.295018
415.649 4.34916 0.642065
47.8423 25.979 0.161347
452.287 38.3818 0.344627
420.917 45.2417 -0.430082
660.029 70.0582 -0.231717
627.212 32.4222 -0.367745
513.668 21.1619 -0.20112
653.059 66.9258 0.326621
287.552 2.26604 -0.463757
369.968 31.249 0.610574
27.1402 40.3459 -0.318237
628.254 38.7608 -0.149874
560.75 35.7951 0.665331
446.96 0.799138 -0.437631
122.114 4.74845 -0.351993
413.989 41.1894 0.139914
11.8037 0.894538 -0.318213
672.097 7.81789 0.162697
361.326 41.1266 -0.52628
568.782 21.7576 0.535773
[...]
POINT_DATA 13483
TENSORS Strain_matrix float
-0.288848 -0.626711 -0.496686 
0.445889 0.317506 0.232459 
-0.00923115 0.00570235 0.0963483 

-0.115851 0.288588 0.899103 
-0.134922 0.243978 0.49932 
-0.00394849 0.000675895 -0.579416 

-0.01355 0.00151273 -0.11411 
-0.00226546 0.0101733 0.371132 
0.000522163 0.000766468 0.283084 

-0.0423765 0.0145706 0.0984385 
0.000719648 -0.000316971 -0.0832579 
0.00110538 0.00203586 0.0630732 

-0.176771 -0.0334196 -0.643188 
-0.24996 0.192977 0.437206 
-0.0611313 0.0205025 -0.00803979 

-0.0101492 -0.0149047 -0.0891463 
0.0110139 -0.000287249 0.0681858 
-0.000108173 -0.000308602 0.0209701 

-0.0231039 0.00622619 -0.379934 
0.00475095 0.0163822 -0.561388 
0.00144193 -0.0019381 0.0704812 

-0.00912008 -0.0372752 -0.0812743 
0.0674244 -0.0375398 -0.0336547 
-0.00114864 -0.00221771 0.0716646 

0.0487956 0.262882 0.253073 
-0.212148 0.0643854 0.322098 
-0.0638381 -0.0437064 -0.138582 

-0.00136215 0.00155782 -0.23729 
-0.0424199 -0.0288953 0.048361 
-0.00796079 0.0149735 -0.0106189 

-0.00758305 -0.0202088 0.0181748 
0.00836541 0.0073434 -0.0134642 
-0.00235947 -0.000102118 0.000123384 

-0.0111851 -0.00873385 0.00952325 
-0.00616382 0.00204344 0.0137313 
0.000572842 0.000548615 0.00981236 

0.0288748 -0.0407024 -0.0861673 
0.0492654 -0.00944518 -0.0223507 
0.00208996 8.00567e-05 0.00568903 

0.0405281 -0.110434 -0.0316994 
0.0821517 -0.00128346 -0.051595 
0.00463618 0.00484966 -0.0309841 

-0.00455242 0.00402203 -0.0120506 
0.00101517 0.00150059 0.00446065 
1.29422e-05 -0.00119879 -0.0206012 

-0.00291296 0.00396695 0.0222294 
-0.00517126 0.00280796 -0.0288753 
0.00149141 0.000512483 0.0197927 

-0.00261105 -0.000539731 0.00134284 
0.00209485 -0.00126212 0.000252319 
0.000231245 0.000153345 0.0036927 

-0.013913 -0.0132217 0.00680275 
0.041698 0.000692725 -0.0273995 
0.00207542 -0.000466509 0.016917 

-0.0170985 0.00418722 0.129154 
0.0201217 0.0797561 1.1091 
-0.0157346 0.0118576 0.230771 

-0.0465672 -0.000219272 0.0709245 
-0.0241188 -0.0327617 0.189462 
0.00755642 0.003249 0.10411 

-0.039134 0.0108021 -0.0684776 
-0.0565666 0.0337164 -0.0350134 
-0.0407802 0.0762082 0.18903 

-0.205006 -0.913559 1.94581 
-0.122936 0.05489 3.15769 
0.0477809 -0.048813 0.688303 

-0.135211 0.0438896 0.664287 
-0.0367169 0.0908181 0.721634 
-0.0194418 0.00552318 0.0294241 

0.00831305 0.0189537 -0.0424872 
-0.0420178 -0.00704416 -0.021272 
0.0087054 -0.0106119 -0.0453593 

-0.347018 0.0776466 -0.873569 
-0.084786 0.359277 0.904608 
-0.0685778 0.0176781 -0.12091 

-0.0126804 -0.00525705 0.0139655 
0.00593113 0.00494376 -0.0150006 
0.000238645 0.000161022 0.00431396 

-0.00452885 0.0638662 0.218159 
-0.177115 0.0161795 0.739137 
-0.00781586 -0.000723132 0.302972 

-0.308594 -0.333625 -0.762422 
-0.0231446 0.380489 -0.102784 
0.0466581 0.00459227 0.287266 

0.0101063 0.0135655 0.00363685 
-0.00783478 0.00298007 -0.0209121 
-0.000530678 -0.00044096 -0.0231456 

-0.00325042 -0.0534549 -0.026276 
0.018095 -0.00984616 0.0353588 
0.00194252 0.00132105 0.00408181 

-0.316916 -0.231438 -0.208158 
0.10358 0.219848 -0.701543 
-0.00416639 0.0275057 0.0152065 

-0.113762 0.0651559 0.0553876 
0.0488016 0.0742685 0.115564 
-0.00308713 -0.00317726 0.093405 

-0.0288649 -0.0622869 0.0208838 
0.0936018 0.0346866 -0.0277297 
-0.00130088 -0.00290271 0.0232937 

-0.0409223 0.721002 -214.321 
0.00891931 0.154921 -6.46396 
-0.00140513 0.00995441 -0.645451 

-0.0166165 -0.00504846 -0.0200984 
-0.00137477 -0.00491859 0.0313647 
-0.000460631 0.000168282 0.0109374 

-0.289653 0.229031 -0.0911398 
-0.0370539 0.150565 0.645548 
-0.0184657 0.0318755 0.205297 

-0.141441 0.0556228 -0.0272803 
-0.0329515 0.106989 0.514496 
0.00132564 -0.00869858 0.250056 

-0.118361 -0.0125387 -0.270654 
0.107153 0.0645285 -0.109224 
-0.00879633 0.0173112 0.11805 

-0.313543 -0.0771405 -0.99149 
-0.0520566 0.0879859 0.908189 
-0.038101 0.0607053 0.093624 

-0.217313 0.277485 0.48505 
-0.0847007 0.218124 0.499434 
-0.00110629 -0.0374486 0.706366 

-0.0538646 -0.0191425 0.101823 
0.105693 0.00176419 -0.129116 
0.0236694 0.012632 0.0917561 

0.00410639 -0.0814285 -0.0147737 
0.0867443 0.00382019 0.12847 
0.0016067 -4.68726e-05 0.0159864 

0.0195373 0.0233972 -0.054785 
-0.0855959 -0.0482056 0.00619939 
0.00925656 0.021874 0.0761159 

-0.019992 0.00728931 -0.0144657 
-0.00327791 0.00515631 -7.69447e-05 
-0.000951505 -0.000615409 0.0328517 

-0.0119249 -0.0147202 0.046739 
-0.00918454 0.00878145 -0.0108302 
-0.00735012 -0.000262857 -0.0156691 

-0.0057914 -0.00672548 -0.0051162 
0.00945061 0.00375414 -0.0204773 
-0.000348448 -0.00171312 0.019049 

-0.0178588 -0.0512786 -1.45559 
-0.0972667 -0.0031149 -0.70188 
-0.00807371 -0.000860346 0.0751814 

0.00439271 0.0142902 -0.0236789 
0.0295157 -0.00401773 -0.0812382 
0.00160955 0.00286837 0.0466681 

0.0677796 0.00294975 0.0958315 
0.0290671 0.0201243 -0.152266 
-0.0189948 0.00994476 0.321486 

0.0176753 0.0475839 -0.0653858 
-0.0246181 0.0180375 -0.0146021 
0.00741853 -0.000693521 0.00769761 

-0.185606 -0.0927118 0.0690156 
0.122373 0.184584 0.501759 
-0.0238513 0.021623 0.362508 

-0.00266402 -0.00717921 0.040861 
-0.0091384 -0.0124188 -0.000687771 
0.00724136 0.00489533 0.10148 

-0.00264827 0.00169238 6.22336e-05 
-0.0146606 -0.0016602 0.00321257 
0.000129329 -0.000305817 0.0132963 

-0.163527 -0.020807 0.735964 
-0.00117248 -0.00488967 -1.22914 
-0.00867593 0.0242343 0.214398 

-0.00675204 -0.0039628 -0.126204 
0.00230944 0.00549337 -0.00629697 
-8.30913e-05 -0.000403218 -0.00142064 

-0.27375 -0.475813 -0.188953 
0.106729 0.315985 1.25358 
0.00219651 0.012957 -0.0360139 

-0.0856465 0.0954496 -0.394361 
0.0273421 0.101018 0.314492 
0.0410263 -0.0264415 0.39242 

-0.00260197 -0.0856102 -0.116371 
-0.00375473 -0.0480364 -0.162545 
-0.00146061 -0.00682606 0.0916506 

-0.0196554 0.0700187 -0.113664 
-0.0600321 0.00723384 -0.1079 
0.0411217 0.00637887 -0.0220048 

-0.0194117 0.0372848 0.0237083 
-0.0278934 0.0361778 -0.0178999 
-0.017011 0.0229226 -0.119806 

-0.0661767 -0.2755 -0.697026 
0.0232655 0.0105564 -0.111613 
0.00123229 -0.00345117 0.0974254 

-0.0826376 -0.089013 -0.492705 
0.0287051 0.0043998 -0.233555 
0.0166355 -0.0153132 0.522678 

-0.000104438 -0.00782861 0.00767374 
-0.00261228 -0.00519853 -0.00592256 
-7.6713e-05 -4.86209e-05 0.00465188 

0.00478104 -0.00266333 0.0093446 
-0.00274887 0.00883205 0.000587963 
0.00110609 0.00303321 -0.0168654 

-0.0842031 0.0324015 -0.00507328 
-0.0439837 -0.0438923 -0.164164 
0.0128711 -0.00740593 0.137827 

-0.0162646 0.0188667 -0.0236163 
-0.00732513 0.0138829 0.00579556 
0.00189275 -0.00291125 -0.00356695 

0.0224007 -0.00133821 -0.0186037 
-0.149378 -0.0442416 0.0166519 
0.0317277 0.0127056 0.0120585 

0.0117698 0.0429661 0.04655 
-0.0264917 0.0023145 0.0930167 
0.005923 -0.00140462 0.0481602 

-0.00840653 -0.00976408 2.8758 
0.00343897 -0.00990256 0.208372 
0.000103871 -0.00301597 0.374582 

-0.0968636 0.0242528 0.189649 
-0.0266503 0.0028588 0.0752844 
0.0349624 0.0697089 0.151324 

-0.0155321 0.0170669 0.0754836 
-0.0131202 0.00262757 0.0273201 
-8.04789e-05 -0.00202701 -0.0142309 

-0.00829052 -0.00519178 -0.014505 
0.00291115 0.00416287 -0.00718698 
-0.00245216 -0.000566165 -0.0137591 

-0.0892722 -0.160498 -0.0449355 
-0.100314 0.0137562 0.297826 
0.0701517 0.0511947 0.264718 

-0.0794827 -0.0112374 -0.244097 
0.0145771 0.122664 -0.767834 
-0.0169616 -0.000838338 0.201547 

0.00501359 -0.0147507 0.0850403 
0.00386022 0.000723146 -0.0144363 
-0.0157112 0.0147448 -0.238003 

-0.00890264 -0.00878222 -0.0357 
0.0183346 0.0149819 0.0918801 
-0.0115189 -0.0046762 0.039666 

-0.0262253 0.00121112 -0.205747 
0.0248884 0.00926046 -0.0277932 
-0.0138807 0.00742799 0.169859 

-0.00445355 -0.0394465 0.0373131 
0.0295785 0.00291012 -0.0470311 
0.000513579 -0.00137864 0.0064315 

-0.306514 0.111781 2.14313 
-0.0839873 0.288814 -0.893983 
0.00288668 -0.00118771 0.101376 

0.0448671 0.121218 0.800239 
-0.127281 -0.0112869 0.218553 
-0.00701022 0.00307968 0.0206224 

-0.0226888 -0.0167462 -0.00147742 
0.02041 -0.00679573 0.0143723 
-0.00356232 0.00611496 0.0402209 

0.0108926 -0.0243235 0.108492 
0.0017959 -0.00696139 0.110395 
-0.0053791 0.00485895 -0.0438936 

-0.0201243 -0.0226192 -0.0666216 
0.0509444 0.032084 -0.0552828 
0.00418337 -0.00139208 0.0114471 

0.00312509 0.037406 0.00435719 
-0.0154173 0.00721308 0.0166411 
-0.00215067 -0.000528191 -0.0135302 

0.0239689 0.0160295 0.0157745 
0.0354844 -0.014735 -0.0142954 
-0.0116241 -0.015675 -0.0487823 

-0.0916085 0.0629745 0.00895995 
-0.142915 0.0315227 -0.282818 
0.0414679 0.00840139 0.198372 

-0.0783073 0.0260296 0.0860358 
0.0359335 0.0155731 -0.791248 
-0.00479588 -0.0175827 0.100862 

-0.00340343 -0.0218877 0.000818132 
0.0121919 0.00137445 0.0041221 
-0.000238017 0.000703007 -0.000329533 

-0.112873 -0.24253 0.397775 
0.390027 0.179969 -0.1156 
0.0582087 -0.0251889 0.0491079 

0.00770247 -0.219212 206.48 
-0.0032156 0.0725675 -27.2501 
-0.000169203 2.34634e-05 -0.190317 

-0.0102929 0.00368989 0.00498344 
-0.009569 0.00741152 -0.0078002 
-0.00984237 0.00732881 -0.00628055 

-0.0198971 0.053709 -0.106501 
-0.0265379 -0.0210478 0.110626 
-0.00608073 0.00524021 0.0895769 

-0.0302363 0.00994766 0.0137282 
0.00825182 0.0131072 -0.098329 
0.00141342 0.00014582 0.0432512 

0.00470529 -0.00153588 0.00668501 
-0.00309459 -0.0023787 -0.00518679 
0.000143434 -0.00051576 -0.00261262 

-0.00886813 0.00980648 -0.0101839 
-0.0133939 0.00263037 0.046815 
0.000806872 0.000269799 0.0199488 

-0.220993 0.21216 -0.591351 
-0.202945 0.425575 -0.207136 
-0.0112176 0.0381234 0.0222289 

-0.00955428 0.00345336 -0.0713445 
-0.00698592 -0.0060933 -0.0970395 
-0.00030236 0.000458333 0.0185438 

0.00980343 -0.0108873 0.00504871 
-0.0136728 -0.0126445 -0.0461233 
-0.000944465 0.00202012 -0.00807076 

-0.0243596 -0.0439782 -0.03243 
0.00333471 -0.0159173 -0.0312151 
-0.000351532 0.00128725 0.0622489 

-0.0215807 -0.0504964 -0.070721 
0.0619634 0.0122717 0.0902538 
-0.0191631 0.0334792 -0.0461935 

-0.0302594 0.0348522 -0.263129 
0.00833434 0.0290513 -0.0517119 
-0.0248303 -0.0102364 0.123743 

-0.654469 0.451009 5.71137 
0.538325 0.493671 -1.31095 
0.0583189 -0.0645102 0.373305 

-0.0183321 -0.00729777 0.144698 
-0.0113502 -0.00393275 0.222142 
-0.0012011 0.00165878 0.00128799 

-0.00550031 -0.059725 0.0149499 
0.0143363 0.00781735 0.000290669 
0.00320681 0.00480248 -0.0104494 

-0.0278551 -0.216806 -0.538392 
0.189671 -0.0686222 -0.293827 
0.00875216 0.00726433 0.0869541 

-0.0619371 -0.0419095 0.63736 
0.0324582 -0.0926067 -0.323043 
-0.00625314 -0.00753312 0.293808 

-0.0334008 0.011089 -0.00159284 
0.00482683 0.00976564 0.0312717 
-0.00257218 0.000486678 0.0301076 

-0.00812703 0.00115804 0.0762045 
-0.00544138 0.000744109 -0.0635916 
0.000136277 -9.6791e-05 0.0079863 

-0.0233545 -0.0128699 -0.0522075 
0.0303341 -0.00986785 -0.037304 
0.0601109 0.023675 0.0937151 

-0.0609687 0.0519125 0.285313 
-0.0950704 0.0670383 -0.210629 
0.0124011 0.00904624 0.24503 

-0.0293973 -0.589891 -21.9253 
0.00266802 0.0831955 -3.65997 
-0.00546008 -0.00223276 -0.0824012 

-0.0111657 -0.00190382 -1.44631 
-0.00160416 0.00592211 -0.6853 
0.000543698 0.0020855 0.173852 

-0.0524534 0.0919601 0.0767405 
-0.0952552 0.0562333 -0.121593 
-0.0152656 0.0524637 0.0584154 

-0.0881172 -0.454998 0.0628109 
-0.0883149 0.0845043 -0.168909 
-0.00467259 -0.00599146 -0.233914 

-0.697554 -0.0352683 -0.10219 
-0.132848 0.369703 0.272612 
-0.00889256 -0.0162651 0.212221 

-0.0150732 0.015146 -0.0403754 
0.00243233 0.0179985 -1.01928 
-0.00583267 -0.0139295 -0.064015 

0.0276667 0.0565692 0.0311795 
0.00390722 0.00852015 0.201914 
0.141188 0.00191372 0.429282 

0.0143663 0.0321568 0.0437273 
-0.0543891 0.0124071 -0.0286022 
-0.0350885 0.00698884 -0.077976 

0.0281008 -0.14255 -0.0822554 
0.30462 -0.0519181 -0.298656 
-0.0178978 -0.0310838 0.0566387 

-0.11588 -0.0787284 0.0512115 
-0.136948 0.111149 -0.185926 
0.00914631 -0.00100169 0.131047 

-0.0150392 0.0208417 0.00294558 
-0.0294827 -0.00413706 0.0054957 
0.000577634 -0.00383121 0.0103711 

-0.0527745 -0.0587723 0.131444 
-0.00186478 0.0597657 -0.0440709 
-4.39697e-05 0.008008 -0.0569704 

-0.00855853 -0.00163604 -0.418072 
0.0490266 0.00109379 -0.0251615 
0.0220956 0.0140339 0.223531 

0.00431586 -0.0452421 0.010202 
0.0245738 0.00157827 0.00062264 
-2.73778e-06 8.18359e-05 -0.00271961 

-0.0405847 -0.000239601 0.158592 
0.0244256 0.0369282 0.669283 
0.0137686 -0.0154367 0.080434 

-0.0609556 -0.0634824 0.0511544 
-0.0313864 0.0128183 -0.0764502 
-0.0631588 0.0479302 0.205893 

0.0138373 -0.00109461 0.120393 
-0.00559038 -0.00440294 0.11168 
-0.00366348 0.00064218 0.0286218 

-0.0528622 0.0163096 -0.0667849 
-0.00460118 0.0650839 -0.0975774 
0.0107184 0.0523159 0.218352 

-0.609319 -0.115785 -0.0413394 
0.415067 0.395539 0.390521 
0.0422938 -0.00752115 0.242748 

-0.0304003 0.0994272 -0.26259 
-0.0293192 0.0585579 0.694529 
0.00286544 -0.0041739 0.11044 

0.00590015 -0.020387 0.21025 
0.0128117 0.028691 0.166371 
-0.00620701 -0.00136562 -0.0198171 

0.016253 0.0256314 0.00512626 
-0.0117613 -0.0109625 -0.017769 
-0.00551024 -0.00301756 0.0303737 

0.0232227 0.114502 0.10526 
-0.102712 0.054166 -0.208757 
0.00866706 -0.0141376 -0.010622 

-0.0257382 -0.0517293 0.0316167 
0.056119 -0.0169514 -0.136509 
-0.00918458 0.0311514 0.00948622 

-0.0232477 -0.0433503 0.0306209 
0.0450372 0.00287983 0.049872 
0.00059724 0.00124671 0.037543 

0.0121572 -0.0262776 0.161582 
-0.00195278 0.00644887 0.197626 
-0.00169867 0.000228856 0.0693158 

0.00755576 0.0463843 -0.0373848 
-0.0233821 0.0142496 -0.0976583 
-0.00054522 -0.000816 -0.0283335 

-0.00200528 0.00473428 -0.0544877 
-0.00174917 0.000539693 -0.191574 
0.000215663 -0.00140587 0.0371309 

-0.154029 -0.156338 -0.0404518 
0.0367151 -0.0203529 0.042628 
-0.0978915 -0.0766954 0.709854 

-0.00356491 -0.032014 -0.000559187 
0.0386686 0.00223328 0.0106611 
-7.86238e-06 1.85127e-05 -0.000897637 

0.000912244 0.136999 0.248029 
-0.0917815 0.0249558 0.126475 
-0.00281302 0.00260596 0.048913 

0.00815752 -0.0125805 -0.0192789 
0.0151162 -0.0134832 -0.00515945 
-0.0412976 0.0400546 0.0834758 

-0.0675613 0.0128325 0.139408 
0.0468865 0.00737256 0.123726 
-0.00367156 0.0138482 0.295705 

-0.00192762 0.000280332 -0.109145 
-0.0135834 0.0418265 0.766482 
-0.00561235 -0.0339689 -0.222369 

0.00893936 -0.0024805 -0.0193084 
-0.0021675 -0.00107007 -0.00669189 
2.41743e-05 0.00409099 -0.0163354 

-0.0487954 -0.0729466 0.148683 
0.0822983 0.00980997 -0.0231354 
0.00593537 -0.00222096 0.126133 

-0.0532007 -0.0366694 -0.0399834 
0.00347078 0.00900682 0.123771 
0.00120464 -0.0204407 0.0582552 

-0.0139353 -0.000878981 -0.0472514 
-0.00877789 -0.00784305 -0.0658648 
0.00173937 0.00154154 -0.000543248 

-0.0114796 -0.00140001 0.00663183 
0.0343072 0.0188195 0.0834053 
0.00212111 0.0017865 0.0403052 

-0.00579201 0.00689442 0.0190161 
-0.0220213 0.00441573 0.0020457 
-0.00118427 -0.000333601 0.00687562 

0.000926569 0.00486056 -0.0389565 
0.00157105 -0.00361735 0.0358777 
1.47764e-05 0.000762633 -0.0084427 

-0.0348594 0.0183039 0.0266527 
-0.0212013 0.012956 -0.0146999 
0.00546923 -0.0563818 0.254017 

-0.0105719 -0.0123472 0.0259846 
0.00868153 0.00309093 0.111297 
0.000209464 -0.00118553 0.0926466 

-0.00732074 0.000161609 0.0588585 
-0.00424297 0.00410583 0.0428941 
8.94202e-05 -0.000332163 0.0236546 

-0.00608483 0.0043672 0.0245411 
0.0037435 0.0019925 -0.00965045 
-0.00066804 -0.000276342 0.00780747 

-0.0645738 -0.015917 1.16387 
-0.220736 0.150201 3.49981 
-0.00762564 0.00801613 -0.1041 

-0.29188 -0.261894 -4.06772 
0.0652857 0.175397 -2.5903 
0.0122006 -0.0293302 0.331033 

-0.00395243 0.00347195 0.0443656 
0.00121185 -7.63955e-05 -0.134709 
-0.000574704 -0.00013623 0.0472804 

0.0147155 0.0238013 0.650254 
-0.1142 -0.095772 -1.87997 
-0.0106063 0.00193094 1.30435 

-0.000511529 -0.0175577 0.0204086 
0.00736386 -0.00659315 0.0565205 
0.00338273 -0.00397295 0.00924828 

0.0132062 0.0306534 -0.446262 
0.00351665 -0.0158281 0.079559 
-0.000950275 0.00113841 -0.0650776 

-0.03484 -0.0213949 -0.0341157 
0.0127608 0.00642477 0.0417548 
-0.00238524 0.000360469 0.0156821 

-0.272342 -0.0828064 0.13656 
0.0539288 0.164683 -0.128652 
-0.000956894 0.00842849 0.0436607 

-0.183181 -0.0583806 -13.5486 
-0.117425 0.198779 -1.99574 
-0.00921139 0.0214308 -0.735124 

-0.0298078 -0.109215 -0.179482 
0.0488894 0.0995623 -0.292813 
0.0174144 0.0132764 0.0314271 

-0.047464 -0.0144805 -0.0243535 
-0.00739516 0.00783626 0.0112774 
-0.00528728 0.00310931 0.0318506 

-0.00540066 -0.0108741 -0.0123713 
-0.00102664 0.00366512 0.00551937 
-0.000827935 -0.000874249 0.00146775 

-0.00798182 0.0150065 -0.00819541 
-0.0393414 0.0038911 0.021798 
-0.00253775 -0.00494633 0.0546551 

-0.0278681 -0.00193775 -0.00278879 
0.0155747 0.0117005 -0.117387 
-0.000611215 -0.000288664 0.00751912 

-3.81976e-05 0.0169367 0.0134963 
-0.00166878 0.000288024 0.0160991 
0.00102137 -0.000551626 0.00595632 

-0.0104534 -0.000572519 -0.0225052 
0.00229959 0.0044248 -0.0238795 
-0.00191236 -0.00190651 0.00486864 

-0.00479843 0.00521088 0.0177642 
-0.0219763 -0.0183502 0.0944399 
0.012777 -0.0144542 0.102382 

-0.123938 -0.0414184 0.0515999 
0.0485076 0.0195414 -0.0699263 
-0.021044 0.00870588 0.0874858 

-0.233407 -0.0142049 -0.895856 
0.0383701 0.190082 -0.537669 
-0.00957709 -0.0243181 -0.126742 

-0.0276261 0.00337253 0.0379257 
0.0974915 0.0225466 0.0962078 
-0.0427255 -0.0821329 0.242587 

-0.447301 0.0943949 -0.434157 
0.324802 0.299366 0.224427 
-0.0650338 0.227561 0.682909 

-0.0256306 -0.020682 0.047932 
-0.00119121 0.0196356 -0.195598 
-0.0250676 -0.00521811 -0.177165 

0.00432629 -0.0002491 0.00325055 
0.0105772 -0.00736593 -0.00373376 
-0.00143759 -0.000977944 0.0119537 

-0.0376064 -0.0815765 1.42477 
0.0843946 0.0603655 0.521434 
-0.0145487 0.00488067 -0.185844 

-0.045278 0.0390883 -0.109194 
-0.0617383 -0.0197339 0.0129311 
0.0204597 0.0214032 0.0800652 

-0.0225202 0.0067834 -0.184103 
0.0105999 0.032814 0.320828 
-0.00398369 -0.00608463 0.0476282 

-0.0706353 -0.028801 0.00506524 
-0.0245174 -0.0377063 -0.0628631 
-0.00682323 0.034183 0.157195 

-0.190984 0.0865967 0.40365 
-0.124309 0.120575 -0.0224275 
-0.0157252 -0.014252 0.147434 

-0.00473615 -0.00789538 0.0687962 
-0.00137265 0.00459019 0.0456246 
-0.00162515 -4.28803e-05 0.0408898 

-0.129778 0.104829 0.0651658 
0.0281836 0.0829575 0.12276 
-0.0086011 0.0238747 0.116753 

-0.00406354 0.0141799 -0.372615 
0.0357486 -0.0029515 -0.0185754 
0.0395541 -0.0100194 -0.0501678 

-0.0313722 0.0501591 0.0149835 
-0.0390296 0.0199114 0.0084529 
0.0824887 0.0235965 0.185609 

-0.018306 0.0323283 0.0645273 
-0.0283683 0.000997882 0.0194308 
0.00269154 7.91691e-05 0.0156164 

-0.00286825 -0.00412418 -0.562868 
0.00377678 -0.000562343 0.143515 
0.00493598 -0.00353553 -0.115709 

-0.0666586 -0.104994 0.263366 
0.0477664 -0.00894063 -0.00583653 
0.0300449 0.0138343 0.100462 

-0.00548028 0.0150518 -0.0033332 
-0.0263199 -0.00966134 0.00507159 
0.00804473 0.0168824 0.03158 

-0.0290956 0.0178149 0.00320973 
-0.00138231 0.0310466 0.221495 
-0.00152741 0.00508208 0.0319047 

-0.279965 -0.368666 -0.601233 
0.0851002 0.293552 0.41925 
0.0077173 0.0100537 0.241865 

-0.0709126 -0.429654 -0.988813 
0.552983 0.228921 0.812458 
-0.0128697 -0.0100325 -0.0407315 

-0.0191524 0.0139913 -0.103326 
0.0551698 -0.0027282 -0.475647 
0.00225753 0.00245244 0.0176937 

-0.0652677 -0.203485 -0.483803 
0.0996076 0.0621984 0.353223 
0.000967142 0.0192343 -0.0757594 

-0.0336994 0.201145 0.695861 
-0.241899 0.0514881 -0.469235 
0.000729923 0.00251832 0.0944806 

0.0818515 0.109385 -0.0778465 
-0.0325952 -0.0659249 -0.385156 
-0.0262434 0.204241 0.241509 

-0.255101 0.227795 -0.0354243 
-0.232976 0.137364 -0.149223 
0.00561963 -0.00506936 0.097484 

0.0354224 0.0184639 0.184293 
-0.0203136 -0.0161983 0.109701 
-0.00472975 0.000163111 -0.0239806 

0.0438841 0.0481656 0.0174138 
-0.0165084 -0.0327976 0.0193654 
-3.29595e-05 0.00033166 -0.0202 

-0.00140269 0.0130747 0.00315999 