# vtk DataFile Version 3.0
Output file generated by Yade's KinematicLocalisationAnalyser
ASCII
DATASET UNSTRUCTURED_GRID

POINTS 13483 float
582.16 34.59 -0.512443
684.05 74.3008 0.569473
116.71 6.02655 -0.569646
714.937 10.9712 -0.346592
485.461 8.14281 0.330403
307.609 35.4578 -0.477557
152.209 7.13639 0.460873
553.956 10.5094 -0.138491
483.48 25.3616 -0.209536
657.67 11.6897 0.579707
204.858 8.68967 0.138385
250.85 6.31886 -0.252161
616.821 56.0585 -0.138991
603.092 32.0587 -0.0929369
133.774 17.9115 0.524959
215.131 34.7386 0.412973
212.181 12.9458 -0.297552
282.465 9.72044 0.402725
333.894 32.9034 -0.495834
507.698 8.54261 0.351439
401.926 37.8852 0.102876
559.264 54.3748 0.262649
710.399 44.1339 -0.500204
660.014 74.1173 -0.0684997
448.251 17.186 -0.446238
234.702 44.6362 0.136298
478.228 29.62 -0.483958
568.941 20.562 0.338822
43.659 16.2218 -0.352108
651.773 31.2391 0.467525
469.52 5.75665 0.460429
15.9329 23.3825 0.351739
696.045 78.2706 0.265743
481.454 2.32509 0.636896
76.0006 45.198 -0.107798
506.042 32.6137 0.401734
514.277 16.6043 0.451727
336.687 22.783 -0.234673
517.281 25.6668 -0.308603
342.954 33.7664 0.498373
234.959 14.774 -0.301103
423.715 36.0082 0.0974966
615.834 6.89416 0.148511
187.42 6.26724 0.391264
53.7611 7.0999 -0.118781
66.7121 9.05339 -0.298435
629.193 10.2007 -0.647462
22.905 12.1013 -0.330923
575.218 61.8538 0.357058
642.694 53.0105 0.344188
167.93 32.803 0.336569
683.854 58.0457 -0.125544
33.6748 29.0073 0.134798
517.834 3.06183 0.326696
138.265 7.31724 -0.533729
575.104 38.6536 0.47455
489.802 29.8128 -0.17582
170.469 0.950803 -0.277672
31.5999 2.27323 -0.382641
341.802 18.0885 0.288907
583.927 71.6556 -0.133851
450.902 35.6373 -0.185626
390.749 1.03427 0.205521
639.112 8.98327 -0.572543
25.8158 44.1784 0.241348
250.262 31.0237 0.285373
657.5 6.96833 0.378359
631.215 77.9052 0.389809
408.771 8.91049 -0.569013
554.1 3.41117 -0.471296
672.355 42.6521 -0.485195
127.227 7.83144 0.277414
483.975 28.5946 0.126101
466.676 16.3525 -0.127464
288.607 16.7804 -0.348327
20.0201 13.9437 0.309409
706.093 72.3789 0.311026
326.301 39.3207 -0.299669
640.733 45.0399 -0.431927
628.932 13.9696 0.415867
707.024 14.6744 -0.209989
454.261 36.8022 0.191764
90.1417 39.7269 0.323041
647.574 66.3795 -0.2688
610.701 63.2764 0.101765
717.208 55.299 -0.128648
701.126 2.76068 -0.664407
285.517 28.7538 0.452692
601.287 15.8237 -0.0916258
23.9965 5.90397 -0.642641
130.441 39.1835 -0.168512
498.464 15.982 0.241303
703.267 59.0135 -0.514682
191.115 29.3672 0.247729
42.9937 35.2282 0.299895
480.431 1.11051 0.181224
230.664 8.74592 -0.442568
668.385 55.666 -0.33986
691.033 53.1389 0.295937
354.607 21.9945 -0.260538
159.736 27.1476 -0.487872
534.648 39.4678 0.439011
372.888 16.0508 -0.451575
405.787 30.7455 0.108304
370.898 4.65699 0.371538
533.273 11.0754 -0.130899
717.57 17.3934 -0.245822
78.2409 40.1191 -0.417388
329.643 5.02044 -0.217634
547.325 9.60925 -0.37938
353.464 44.6422 0.454198
24.9213 25.4904 -0.519369
29.6215 5.92919 -0.30575
553.665 34.1229 0.522331
492.331 27.1626 0.175205
24.9334 37.8039 0.426568
90.831 31.1999 0.249681
319.644 16.1197 -0.287326
582.189 19.6702 0.20446
464.755 40.5393 0.422323
673.079 9.77314 -0.421263
666.086 6.50294 -0.17556
380.448 37.9913 0.0969106
603.137 46.3485 0.13176
233.595 17.279 0.470755
325.119 3.89309 0.45963
101.182 32.1279 0.395331
114.006 25.3105 -0.293487
529.95 40.2493 -0.0874636
301.545 18.9174 0.489482
647.515 37.1192 -0.14387
635.792 77.8882 0.106955
471.529 22.0328 -0.484831
702.658 41.9569 -0.246664
421.502 23.5787 -0.302533
272.286 24.5325 0.302243
641.867 61.6802 -0.303952
274.583 28.5661 -0.455475
563.783 12.6504 -0.236396
327.298 36.0227 0.210786
493.103 12.8427 0.571498
361.59 32.6113 -0.0994732
423.388 17.0312 -0.105358
313.695 42.5436 0.432002
187.476 30.3363 0.147554
687.67 71.7016 0.144724
715.065 18.6552 -0.412548
5.93185 12.4488 -0.502903
427.338 22.7857 -0.444681
37.3735 23.4914 -0.116557
371.51 32.0225 -0.466132
389.71 25.6067 0.272263
73.7384 12.1026 0.507274
50.696 33.7798 0.42981
222.356 13.5995 0.421548
586.383 54.2191 0.612845
566.339 21.864 -0.438054
73.84 21.1622 0.474594
663.143 75.7756 -0.415658
685.578 2.88115 0.634068
626.377 70.8203 -0.480657
635.369 2.38355 -0.512413
538.648 27.2691 0.40663
560.697 55.4975 0.426782
501.651 19.1523 -0.444499
714.01 6.18279 0.302014
219.979 24.9808 0.166613
126.06 36.0115 0.205806
243.823 6.65322 0.423023
92.8745 4.50173 0.283843
63.0844 10.3502 0.219775
272.677 36.1499 0.347813
15.9787 25.2728 0.43557
544.602 19.8389 -0.523951
578.618 57.191 0.124486
456.017 22.4801 -0.414751
715.614 80.8753 0.359012
401.967 8.72774 -0.109694
429.9 36.7918 -0.413769
526.277 3.32558 -0.20871
22.1646 24.4131 -0.399235
566.089 4.32716 0.485991
535.218 4.30287 -0.31651
203.304 11.1376 0.488918
419.694 16.7727 -0.230543
308.368 6.23097 0.384801
384.07 19.6421 -0.313242
659.633 47.7567 0.157818
189.882 26.1622 -0.46833
692.897 12.7427 -0.433517
662.135 44.8129 0.384254
379.388 10.5665 0.198905
654.937 2.49934 0.497288
585.495 29.2338 0.677358
674.981 21.8683 -0.505778
425.251 45.3232 0.261898
488.158 13.5288 0.480524
457.795 47.1736 0.256359
440.43 9.06824 -0.183584
630.216 71.2339 0.262066
628.554 66.7134 0.303678
190.225 39.4943 -0.328937
705.107 14.1785 -0.265461
561.884 56.8965 0.173979
11.0435 17.0214 0.27128
403.156 26.1839 0.522832
184.914 23.6424 0.399149
91.8053 40.4783 -0.22078
702.398 55.744 -0.460055
622.114 74.4917 0.220946
316.319 25.9128 -0.389636
523.265 10.295 0.335225
81.0804 45.6346 -0.187708
244.917 26.1428 -0.481802
547.015 24.0379 0.408073
480.443 20.3318 0.562714
260.247 0.882907 -0.344013
543.296 41.0819 0.355284
524.657 42.0313 -0.577514
473.639 36.0189 0.412
490.7 2.37958 -0.646512
641.505 20.3055 0.541184
177.202 12.6696 -0.209656
493.074 39.0758 0.462529
553.573 42.6763 0.125728
71.9559 0.976623 0.277417
249.141 4.78211 0.177721
713.543 23.2878 -0.239091
706.762 16.5989 -0.512957
718.008 25.2593 -0.703058
301.048 8.5745 -0.237863
677.764 31.0901 0.661596
403.278 42.9582 -0.330742
444.369 0.801332 -0.44305
616.154 63.3311 0.425666
26.2985 31.5629 0.323839
328.338 42.0069 0.580882
249.988 2.91511 0.370718
700.891 76.7364 0.166217
664.794 85.4681 -0.22528
284.936 11.0773 0.256427
636.107 61.0057 -0.083948
548.969 2.54881 0.273811
533.01 6.55054 0.423605
95.598 18.8264 -0.492432
300.892 1.03247 -0.230825
340.759 2.25559 -0.369753
13.8204 7.625 -0.463391
4.34394 31.3651 -0.298545
159.573 19.2486 0.393199
67.4468 42.1431 0.224941
65.8737 29.302 0.376247
419.331 14.8603 -0.444965
364.466 36.1493 0.441825
681.098 59.217 0.139439
19.5077 4.14125 0.277192
69.7238 7.04579 0.129542
592.065 58.2143 0.142275
292.311 0.925177 0.387941
362.323 16.7025 -0.132267
233.163 4.7097 -0.378048
627.211 49.0554 -0.281289
447.379 7.78083 0.550797
680.402 31.8851 0.352146
600.963 49.3979 -0.30631
642.715 44.4642 -0.0813467
416.58 26.7265 0.589786
101.071 45.7567 -0.306233
533.804 43.4155 0.0733402
677.143 16.4497 0.243151
235.407 30.9405 -0.270273
31.4962 17.9596 -0.23259
334.368 13.9087 0.516867
106.447 41.3118 -0.457659
265.734 42.5352 -0.218313
422.439 2.19019 -0.235692
706.468 66.0622 0.407412
630.427 0.726222 0.673116
330.136 3.4782 0.573994
298.205 26.7556 -0.191282
457.332 43.773 0.225766
80.7083 8.29605 0.487347
195.63 46.0977 0.385744
692.545 56.3851 0.34354
488.191 41.9558 -0.0906367
197.99 41.6182 -0.28132
158.978 43.0797 0.387052
720.598 49.9265 -0.39849
716.756 18.9911 -0.661066
593.836 6.13297 -0.643712
188.526 25.0659 0.111413
540.296 28.2006 0.142389
542.167 27.7643 -0.296542
406.567 5.88878 -0.142637
476.147 0.934923 -0.33803
678.763 62.364 -0.519372
84.3214 31.9057 -0.261947
632.741 45.3776 -0.466651
272.347 15.676 -0.374497
9.46159 2.33807 0.348604
124.65 37.7674 0.18717
66.4442 23.5914 0.534123
642.236 40.0996 0.300873
700.564 85.4344 0.18413
183.726 28.9865 -0.195589
711.341 20.1726 0.419044
44.3835 37.2684 -0.289553
89.7767 29.5419 -0.156651
611.661 32.8153 0.375669
410.104 19 -0.577059
511.086 16.6847 0.138073
235.911 28.915 -0.186711
605.692 10.7217 -0.479532
717.945 19.3558 0.394989
28.8782 32.6157 0.312462
268.205 7.82396 0.202455
220.016 15.2246 0.261064
1.07013 35.9709 0.148916
223.315 14.6577 -0.381751
209.675 10.9995 0.126524
212.058 26.4179 -0.278269
132.229 28.6442 -0.155829
539.371 15.2573 -0.390965
165.383 14.4877 -0.365843
695.054 74.9792 0.237526
172.433 3.86031 0.509601
46.5327 38.3117 -0.445095
662.877 62.7177 -0.535159
279.545 31.4021 -0.389115
645.573 49.7568 -0.515118
712.901 68.2345 0.448501
299.109 9.20406 -0.107295
667.453 33.8419 -0.382901
327.124 2.50608 -0.43787
412.963 24.4219 0.348719
619.675 18.7493 0.42937
104.606 12.1165 -0.483696
477.713 3.60289 -0.679192
683.806 32.2715 -0.197811
87.4115 7.8118 -0.277355
280.007 14.8338 0.203592
420.079 12.1196 -0.215668
713.716 2.42532 0.595835
395.593 2.00685 -0.542287
175.263 39.4525 -0.323125
680.123 14.8217 -0.409944
127.893 37.1246 0.184807
261.278 31.6523 -0.399141
398.104 22.3206 0.213411
565.999 14.7163 -0.300199
384.938 10.227 -0.549291
452.974 29.9925 -0.517007
684.26 73.257 -0.445446
46.7129 11.7386 -0.166976
297.584 39.0604 -0.255053
377.656 28.3561 -0.457402
406.952 21.0174 0.334042
516.644 47.5511 0.356808
676.983 57.1001 -0.222126
633.978 67.2901 0.355286
223.534 34.5414 -0.382734
13.4832 32.1972 0.151656
626.599 67.2362 -0.114655
503.391 44.0764 0.476979
227.268 39.6431 0.112414
651.734 59.2565 -0.120068
149.587 9.51528 0.257194
364.781 21.9829 0.370602
458.812 45.1923 0.122795
410.9 20.2997 0.273098
681.048 77.6861 -0.301639
423.128 4.16213 0.611888
49.0027 25.6473 0.212957
465.619 33.5027 0.340326
430.817 43.335 -0.414859
700.004 69.2029 -0.233466
666.192 31.891 -0.380735
533.478 18.8854 -0.24165
692.88 66.438 0.328013
291.929 2.20281 -0.47514
376.722 30.9117 0.609458
28.1156 39.7039 -0.320351
667.492 38.241 -0.139372
591.097 29.7468 0.623417
459.303 0.718788 -0.508028
124.48 4.73273 -0.347653
423.1 40.501 0.130146
11.907 0.896003 -0.31702
712.475 7.79859 0.092427
368.109 40.9021 -0.531728
[...]
POINT_DATA 13483
TENSORS Strain_matrix float
-1.14863 -0.820111 -4.49369 
0.615019 0.805432 2.08101 
0.0287982 -0.0139561 0.788647 

-0.250002 0.514947 12.8926 
-0.27509 0.541144 40.2132 
-0.00130908 0.00178092 -1.84453 

-0.013899 -0.00293802 -0.0673905 
0.000173934 0.00864855 0.467916 
7.22609e-05 0.000513332 0.184076 

0.0050767 0.00482053 -0.00778999 
-0.00488762 -0.0112504 0.000354868 
-8.01179e-05 0.000298297 0.00248998 

-0.0339155 0.0704647 -0.23032 
-0.0134291 0.0128134 0.0227378 
0.0234701 -0.0158622 -0.0777216 

-0.014584 0.00137221 -0.737565 
-0.0132574 0.0112644 0.255929 
0.013006 0.00531905 -0.339034 

-0.0332774 -0.0338005 -0.1994 
0.0249909 0.0132709 0.232616 
0.00177234 -0.00166286 0.0421938 

-0.103578 0.0492697 -0.388957 
0.157234 0.0678397 0.632773 
0.00183882 -0.00447538 0.0775707 

-0.204108 -0.171372 -0.314135 
0.339465 0.149178 0.0302564 
0.0257851 0.0211904 0.491285 

-0.139406 -0.143187 0.120523 
-0.0237418 0.12529 0.0035333 
-0.0131157 -0.0126122 0.0988996 

-0.00695817 -0.00621725 0.0100569 
-0.00227952 0.00261762 0.00114663 
-0.00104383 -0.000292571 0.00722642 

-0.00182298 -0.0148725 0.0391987 
0.00132235 -0.0113135 0.0224046 
0.00159711 -0.000875019 0.0114068 

0.00902795 -0.0996763 -0.0961931 
0.0942441 0.000821905 0.0242138 
-0.0794444 0.017568 0.626456 

-0.0895432 -0.139077 -0.0654526 
0.28742 0.164137 0.00708869 
-0.0189687 -0.00835749 -0.114559 

-0.0123656 0.000883795 -0.0566893 
0.0129246 0.00124262 -0.00665695 
-0.000517419 0.000579933 0.0238179 

-0.0278334 0.0369759 0.175631 
-0.0280816 0.00884162 0.208484 
0.00177052 0.00326553 0.114052 

-0.0040619 -0.00103088 0.00116552 
-0.00312809 -0.00499704 -0.00349602 
0.000260445 0.000175289 0.0123147 

-0.0130209 0.00166045 0.00450585 
0.00017084 0.000256556 -0.0106034 
-2.73686e-05 0.000753834 0.0225596 

-0.0120546 -0.0109721 0.014305 
0.00865951 0.00657088 0.0665874 
-0.000981644 -0.000511731 0.128818 

-0.00436172 0.0171796 -0.0352794 
-0.0104932 -0.00550867 0.0379459 
0.00187959 0.000439565 0.0251565 

0.00570133 0.0152531 0.0153504 
0.04252 -0.00114007 0.00710942 
0.0040104 -0.00336376 0.0182665 

0.266541 -0.59682 0.040779 
0.622449 0.211657 -0.251442 
-0.0822046 0.215919 1.00502 

0.000578941 0.00628476 -0.0800097 
-0.000248484 -0.0112137 -0.110987 
8.56717e-05 -0.000568221 -0.00291447 

0.0283848 0.0627692 0.0979096 
-0.045622 -0.00268382 0.060293 
-0.00265387 0.00327816 -0.0536709 

-0.0354981 0.00569059 0.253723 
-0.00869622 0.0128425 -0.106406 
-0.00146809 7.97538e-05 0.0714485 

0.0114834 -0.00643596 -0.0142525 
0.00524018 -0.00469898 0.0155338 
-7.74893e-05 -0.000213426 -0.00402794 

-0.12811 -0.285141 -0.774794 
0.055178 0.225496 0.686534 
0.0378135 -0.000502536 -0.303376 

-0.130692 -0.190315 -0.527247 
0.447808 0.270274 -0.170484 
-0.0472015 0.075097 0.123754 

-0.00553306 0.00786485 0.0150303 
-0.012164 0.00600196 -0.00676092 
0.000194237 -0.000916303 -0.00433171 

0.0113927 -0.0235778 0.0141072 
-0.00340639 0.00368327 -0.00444548 
-0.000347106 -0.00250872 0.00757339 

-0.0168041 -0.0253454 0.0330796 
0.0109734 0.0117482 0.033681 
-0.00175822 0.00136659 0.000531311 

-0.00504692 -0.00905604 -0.00196093 
-0.0125838 -0.00778041 -0.00255625 
-0.000482075 -0.0016498 0.0104306 

0.0215276 -0.013095 -0.142563 
-0.0111855 -0.0227567 0.0424224 
-0.0114293 0.0185856 0.0784785 

-0.0629208 0.132095 -7.09347 
0.0187122 0.118671 3.05441 
-0.00511658 -0.0130874 0.208229 

-0.0133485 -0.0670177 0.0431505 
0.0453323 -0.0319445 0.131833 
-8.25804e-05 0.00211553 0.0268552 

-0.218794 0.0618165 0.408622 
-0.0145716 0.174372 -0.378621 
0.0111087 -0.00318901 0.270473 

-0.0360237 0.00202021 -0.217019 
0.009047 0.013631 0.073632 
-0.00107111 -0.000561735 0.0148645 

-0.0144524 -0.00385837 0.00409225 
0.0102688 0.00730568 -0.00211182 
7.32543e-05 0.00129997 0.00101804 

-0.012685 0.00400857 -0.01144 
-0.00898229 -0.00316492 -0.0167045 
0.0057242 -0.00443005 0.141853 

-0.0169155 -0.0140693 -0.257239 
0.0120423 0.00326851 -0.114479 
-0.000239884 -0.0021324 0.141706 

-0.00752726 -0.00556409 -0.00716015 
0.00646513 0.00190226 -0.00376914 
0.000472708 -0.000134624 0.00600816 

-0.0395426 -0.00232089 0.12405 
0.0116331 -0.0173439 -0.220785 
0.00309351 0.000599583 0.057626 

0.00327888 -0.0357362 -0.0384703 
0.00443314 -0.0245393 -0.00435932 
0.00313122 0.00409518 0.0346997 

-0.0312328 0.0529662 -0.101187 
-0.0281648 0.0183046 -0.151556 
0.00329176 -0.00887635 0.177808 

-0.0105965 0.00427201 0.00022433 
-0.00393154 0.0102364 -0.00985273 
-0.00150557 0.000954938 -0.00254834 

-0.00782079 0.00125652 -0.00232164 
-0.00290548 0.00497898 -0.00902943 
-0.000100223 0.000623585 -0.000444805 

0.00591076 -0.00668691 -0.016816 
0.00231578 -0.037772 -0.0562228 
0.00478984 0.000432803 0.00403499 

0.00338166 0.0149196 0.00170067 
0.0160268 -0.0134907 0.0052226 
0.000318625 0.000881238 0.0156677 

0.0195565 -0.164499 0.0539193 
0.20774 0.0327968 -0.0142646 
-0.0127219 0.0432461 0.0976887 

-0.09976 -0.0144092 0.161461 
0.191443 0.0994187 -0.0925263 
0.0126417 -0.00981623 -0.022457 

-0.0252342 -0.00243707 0.00980786 
0.0185158 0.00497481 -0.109088 
0.00913912 -0.00402798 0.218039 

-0.0361986 0.0312721 0.0854972 
0.0343043 0.0162339 0.0587755 
0.010641 0.00053824 0.0909959 

-0.0112016 -0.0182059 0.00183137 
0.015814 0.00242564 -0.00811411 
-0.000274358 0.00012788 0.0199856 

-0.0196964 0.0137701 -0.0146918 
0.00496187 -0.0016478 -0.0426437 
0.000757532 -0.000194531 0.0139223 

-0.00981374 -0.00256606 0.00689082 
-0.0020186 0.00793163 0.206676 
-0.00382021 -0.000131475 0.0671895 

-0.772305 -1.09863 -4.0672 
0.557173 0.796746 2.80358 
-0.00458115 -0.0541604 0.71928 

0.00737933 -0.0199987 0.0753563 
-0.00642034 -0.0219039 -0.0223611 
0.00286467 0.0053645 0.0368926 

-0.00740837 0.0343659 -0.108598 
0.00374774 0.0650815 -0.224521 
0.00037469 -0.00326284 0.0627649 

-0.0327694 0.0151925 -0.0219358 
-0.0269108 0.00206727 0.00272087 
-0.0264877 0.0158425 0.210407 

-0.0114887 -0.0427568 0.0209621 
0.0161646 0.00521374 0.0292397 
-0.0418379 0.0187175 0.149169 

-0.0950822 -0.140017 0.409353 
0.0247725 0.275578 -0.875208 
-0.000352832 0.000374627 0.112578 

-0.0144848 -0.0131895 -0.0225687 
0.0164571 0.00524738 -0.0180743 
0.000495564 0.000858086 0.0406213 

-0.0143033 -0.0313995 0.0350634 
-0.00240212 0.0056743 -0.0231497 
-0.00186125 0.00234385 0.0287349 

0.0385144 -0.131201 1.05337 
0.0165055 -0.0284825 0.187443 
-0.0047144 -0.0125615 -0.0236526 

-0.065767 0.0896341 0.137311 
-0.0453497 0.0598443 0.418179 
-0.0326016 -0.0836133 0.0529658 

-0.00939778 0.000593407 -0.0101244 
-0.0023626 0.0046144 0.0132546 
-0.00470416 0.00492863 0.0223919 

-0.00933432 0.08468 -0.0139753 
-0.0821261 0.0100971 -0.043861 
-0.0120194 0.00897123 0.0200325 

0.0146882 -0.0191828 0.432486 
0.0487929 -0.020163 -0.24838 
0.0082176 -0.00680163 -0.177512 

-0.0264384 -0.0230319 0.999281 
0.0278388 0.0219961 -1.85554 
-0.0310393 0.0296201 -0.0815502 

-0.0466532 0.0340512 -0.115019 
-0.127332 -0.0797313 0.237355 
-0.00349235 -0.00186209 0.148914 

0.000918637 0.0181846 -0.0656253 
-0.0172432 -0.00950798 -0.011256 
0.000912274 0.00096143 0.022119 

-0.00919976 -0.00564892 -0.0126524 
0.00115259 0.00294269 -0.00676102 
-0.000479758 4.50772e-06 0.00610973 

-0.018319 -0.305229 -0.237983 
0.198371 0.0970666 0.0868237 
0.0056105 -0.00412705 0.06702 

-0.0807747 0.0873097 -0.0384583 
-0.0357271 0.0844797 -0.0335211 
-0.00244623 0.0109787 0.0557409 

-0.010886 0.0110403 0.0130981 
-0.00277325 0.00429158 0.013069 
6.44343e-05 -0.000283462 0.0316969 

0.00365257 0.00131373 0.0075495 
-0.00350152 -0.00642886 0.0303479 
0.000371023 -0.000868746 0.00436059 

-0.0102658 -0.013835 -0.17736 
0.0122143 0.0138447 0.102122 
-0.00446381 0.000951225 0.0275601 

-0.0168121 0.000145237 -0.0472484 
-0.00201572 0.00234302 -0.00331983 
0.00010555 -0.000277264 0.0394462 

-0.989855 1.22603 11.8936 
-0.83392 1.06842 8.57651 
-0.0093396 0.0118092 -0.0497893 

-0.0149127 0.0124557 0.0258494 
-0.0467168 -0.0162717 -0.000592535 
-0.00138647 -0.000705343 0.0258864 

0.00421104 0.00142204 0.00745457 
0.00257525 -0.00782085 -0.0020547 
0.00101066 0.000450799 0.0117233 

-0.0159275 -0.00687151 -0.0685652 
0.00945408 0.00424153 -0.0350389 
0.00541812 0.0136448 0.107606 

-0.00854132 -0.00767908 0.00148664 
-0.00154093 -0.0105142 -0.0486511 
-0.00216328 0.000329922 0.0486634 

0.00377097 -0.0128592 0.011259 
0.0280403 0.00683716 -0.00935211 
-0.00282975 0.000295825 -0.00640302 

0.0187453 -0.0513073 6.90686e-05 
0.0751907 -0.00105355 -0.00536893 
0.000425704 0.00155898 -0.0299856 

-0.0152847 0.0258775 -0.0153838 
-0.0152627 -0.0016133 -0.00245663 
0.00272216 0.00471439 0.0313623 

0.007829 -0.000199864 -0.0392938 
-0.00587944 -0.0153636 -0.0607988 
-5.72581e-05 -0.000321111 -0.0048795 

-0.00305842 0.00417425 -0.0121928 
-0.0117586 -0.00632406 -0.0179256 
0.00398752 0.00104275 0.0106369 

-0.29615 -0.100495 -0.472994 
0.0200146 0.0526631 -0.0226712 
0.046356 0.0446402 0.866841 

0.00146285 -0.170285 113.367 
-0.0190339 0.159393 -79.4434 
-0.00132578 -0.00195824 -3.42011 

-0.00976413 -0.00380031 0.00256119 
0.00476335 0.00205922 0.00397582 
0.000601507 0.000505608 0.00356372 

-0.100922 0.0828892 -0.234264 
-0.159334 0.0460642 -0.0419185 
0.0208004 -0.0072544 0.0983113 

-0.010528 0.0428502 0.0483227 
-0.0223681 0.0025696 -0.143698 
4.28974e-05 0.000460312 0.0340568 

-0.00694054 0.0181953 0.0187537 
-0.00284889 0.00252989 0.0233892 
-4.57103e-05 -0.000958499 0.0186727 

-0.00534327 -0.000419408 -0.00452616 
-0.0216466 0.00430128 -0.00726939 
0.000689567 -0.000788737 0.00888244 

-0.117588 0.319365 -0.224398 
-0.0632126 -0.132235 0.0212978 
-0.0769221 -0.429928 0.930845 

-0.00661346 -0.00174094 -0.0171212 
0.000818265 0.000444819 -0.0315735 
6.0661e-05 8.64601e-05 0.00731425 

-0.0433579 0.027855 -0.0747461 
-0.00783598 0.00356429 0.0856297 
0.00391901 -0.00280884 0.056755 

-0.0125222 0.0173279 -0.00478944 
-0.02427 -0.00820518 -0.0113954 
-0.000403491 0.00136411 0.0302396 

-0.0146424 0.0114062 -0.33787 
0.0143193 0.0232149 0.629113 
0.0370665 0.0151717 -0.10538 

-0.0130269 0.0177095 -0.0920404 
0.00154825 -0.00335446 0.673711 
-0.000565567 -0.0168131 0.150933 

-0.00657451 0.0542596 0.0281727 
-0.0560505 0.0174923 0.320897 
0.000801065 -0.0037422 0.0209248 

-0.0322757 0.00257217 -0.0688493 
-0.0288328 -0.00417385 -0.0986353 
-0.0110303 0.000620749 0.0371903 

-0.0153971 -0.00881376 -0.0307462 
0.00274585 0.0339588 -0.136698 
-0.00928993 0.0687021 0.243575 

-0.0399953 -0.032392 -0.300742 
-0.152615 -0.0174752 -0.332859 
-0.00440047 0.0729101 -0.0646993 

-0.0323486 0.0643787 -0.000310039 
-0.100434 0.0150883 -0.068844 
0.00913904 0.00707966 0.0239025 

0.0095309 -0.0024305 0.00349009 
0.00468064 -0.0139795 0.00295956 
-0.000527481 0.000128528 0.00991729 

-0.0351545 0.00204493 -0.387959 
0.0372334 0.0217327 0.247448 
0.00603899 0.0119459 -0.038197 

-0.0123503 0.00197751 0.0015416 
0.00448019 0.00300474 0.00155371 
7.21096e-05 0.000528238 0.0137982 

-0.00131242 0.00689302 0.358936 
0.0117026 -0.0154542 -0.129196 
0.00228354 -0.00174785 0.0540836 

-0.0224289 -0.0196649 0.248399 
0.00750066 0.014524 -0.52101 
0.000893421 -0.000639394 0.166093 

-0.0254822 -0.0121415 1.0764 
0.0295175 0.00713953 2.68581 
-0.00822123 -0.0111378 2.37316 

-0.00867034 0.0387595 -0.00451452 
-0.0360715 -0.00272204 0.0625339 
-0.0158441 -0.0198545 0.0316436 

-0.162128 0.0736929 -1.02617 
0.030627 0.109244 -0.716536 
0.00996612 -0.00911301 -3.05893e-05 

-0.0676794 0.0146762 0.00349036 
-0.0497931 0.0633518 0.116335 
0.000725696 -0.0268437 0.174096 

-0.00901225 -0.027479 0.762599 
0.0088933 0.0209588 0.616313 
-0.0372447 0.0184436 1.59349 

-0.0898674 0.0153179 0.317109 
-0.0487585 0.0674046 0.257851 
-0.0352092 -0.0132113 0.300579 

-0.0120391 -0.0132816 -0.0129326 
0.00591297 0.00145917 -0.000107023 
-0.000751283 0.00166323 0.0139199 

-0.435829 -0.322926 0.136509 
0.111377 0.364212 -0.139637 
-0.00177343 -0.000318588 0.528371 

-0.0696584 -0.156254 0.32299 
0.126924 0.0625072 -0.0563238 
-0.00368685 0.00446936 0.113413 

0.00622176 0.00470491 0.00225295 
-0.0080428 -0.00403105 -0.00255455 
-0.00116925 0.000129975 -0.00170287 

-0.000343058 -0.0209417 -0.0138692 
0.018341 0.00937177 0.0398628 
-0.00016543 0.000421754 -0.0221448 

0.0019019 -0.033416 -0.00308224 
0.0100772 -0.012353 0.0904112 
0.00237755 -0.00233186 0.0163694 

0.0186146 -0.0935446 -0.173001 
0.0616411 0.0594978 0.188768 
-0.00703061 -0.0039524 -0.0850764 

-0.0134156 -0.00446292 0.0504507 
0.00296641 0.00451663 0.0761021 
-0.000612998 -8.24971e-05 0.0202347 

-0.0108924 0.00125451 0.0291936 
-0.000192876 0.00374802 -0.00255684 
-0.000656785 -0.00121336 0.0405858 

-0.00748811 0.00570085 0.00692095 
-0.00658717 0.000311207 0.00389643 
0.000280883 -0.000652234 0.00921466 

-0.0210384 -0.000549589 0.042156 
0.0166586 0.0116485 -0.0684949 
-0.00177401 0.00373778 0.0205284 

-0.119374 -0.0769835 -0.266488 
0.0653297 0.0524536 0.0693754 
-0.00495266 -0.00577409 0.0456262 

-0.0291179 -0.00097972 -0.0459783 
0.0139215 -0.0200544 0.242839 
-0.00073058 -0.000316352 0.0338244 

-0.00847893 -0.020966 -0.00919322 
-0.0126199 0.0329604 0.116454 
-0.00456653 0.00700933 -0.0133038 

0.055844 -0.00427562 0.0479967 
0.0253767 -0.0343995 -0.0330438 
-0.0141796 -0.00411821 0.0447783 

-0.0265345 0.024521 0.138159 
-0.0493979 0.00982014 -0.317182 
0.00492427 -0.00719285 -0.419337 

-0.0140593 0.0114907 -0.00207329 
-0.000330824 0.00320331 -0.00739224 
0.00273874 0.0006559 0.0124612 

-0.0489212 -0.00356839 0.154603 
0.0120766 0.000177836 -0.0490667 
0.0207752 0.0143096 0.147863 

-0.0068509 0.00431421 -0.0178645 
-0.00299864 0.00161144 -0.0172322 
-0.000590869 0.00100552 0.00642688 

-0.0119046 -0.0303704 -0.0123035 
0.0302898 0.0128021 -0.0357749 
-0.00137468 0.00111208 -0.0113645 

-0.00511417 0.00216623 -0.0143975 
-0.00896902 -0.00165964 0.0238251 
0.00343195 -0.00894084 -0.00367602 

0.00826282 0.00461783 0.0128827 
-0.00129484 0.00874414 -0.0366163 
0.00314599 0.00248225 -0.0404595 

-0.0112749 -0.0140283 -0.00308957 
0.00892033 -0.00278323 0.0122902 
-0.000888856 0.000886195 0.0164691 

-0.0736905 -0.0499722 -0.700223 
-0.0127278 0.0452819 -0.282817 
0.00382382 0.00458948 0.295679 

-0.000888206 -0.042353 -0.0106708 
0.00264297 -0.00107505 0.036106 
-0.00565851 0.0121455 0.0204033 

-0.0110763 -0.00162449 0.0069004 
0.0124088 -0.0091517 0.0137459 
-0.00405769 0.000783171 0.0565099 

-0.0141238 0.00405711 -0.0266401 
-0.00294611 0.00425658 -0.0339359 
0.000563118 -0.00055022 0.0298555 

-0.00744534 0.0109233 0.00612619 
0.00215844 0.00161382 0.0197411 
0.000481796 0.000630141 -0.000411602 

-0.0333331 -0.00447528 0.0290995 
0.010213 0.00727219 0.0554297 
-0.00761375 -0.0452866 0.233175 

0.00386738 0.00543441 -0.0260789 
-0.0167063 -0.0198883 0.00297277 
-0.00078724 0.00392942 0.0229641 

-0.0120871 0.000955829 -0.0112887 
-0.00618755 -0.00300549 0.0624599 
0.00205218 0.000569328 0.000862467 

-0.0194237 -0.0136412 0.0642541 
0.00690526 0.0028547 -0.00676596 
0.00857924 -0.0112197 -0.00316741 

-0.033674 0.0108771 0.0687544 
-0.0242275 0.0139161 -0.00470024 
0.00131266 -0.0465977 0.222199 

-0.0226663 -0.0237367 0.10593 
0.0048064 0.000493089 -0.0223074 
0.00634939 0.00172899 0.02031 

-0.0125827 -0.0175452 0.0170011 
0.0209527 0.00996037 0.0116029 
0.00396754 -0.014508 0.104006 

-0.0101382 0.00472128 0.225319 
-0.0065122 -0.000419568 -0.238401 
0.000525456 0.00108668 0.07486 

-0.00508307 0.00728041 0.0724126 
-0.0178749 0.00390717 -0.0331518 
-0.000176598 0.000181665 -0.00537316 

-0.00908546 -0.00531106 0.0145646 
0.0104971 0.000514752 0.00501531 
-0.000211199 7.21108e-05 0.0200131 

-0.109974 -0.00505267 3.34596 
0.0217177 0.0548125 1.31597 
-0.00251298 -0.00447266 0.358161 

-0.02925 0.0420799 -0.0627726 
-0.0475689 -0.00926882 -0.0393249 
0.052483 0.0408271 0.106873 

-0.00434789 0.025225 -0.137173 
-0.00972163 -0.000193232 -0.55243 
0.000395746 -0.00108898 0.175039 

0.0852425 0.12191 -1.49371 
-0.0938133 -0.0607578 0.910966 
-0.00323603 -0.000562115 0.997411 

0.00288081 0.00429301 -0.0109744 
-0.0027355 -0.00225841 -0.0151634 
-0.000496194 -0.00140528 -0.00475429 

0.0158423 -0.0564867 -0.238789 
0.0730001 -0.000894846 -0.0741355 
-0.000130395 -0.0003067 -0.0138658 

-0.00620579 0.00362346 -0.00484407 
-0.0137165 -0.0260017 -0.0114284 
-0.00395004 -0.00130713 0.00980203 

-0.0130635 -0.0830817 0.388888 
0.0692669 -0.0225997 0.0919657 
-0.0529845 0.0786872 0.509366 

-0.27691 -0.308954 15.8577 
0.120542 0.394255 -1.1619 
-0.00304018 -0.0110654 -1.65577 

-0.0730247 -0.000587473 0.108151 
-0.285355 -0.0150606 -0.129671 
-0.0126317 0.00588138 0.136935 

0.0101232 0.00571218 0.00463257 
0.000876559 -0.0213861 0.0026702 
0.00182882 -0.000730339 0.0115158 

-0.00957113 -0.00557392 0.0012318 
0.00741509 -0.0025714 0.0026295 
0.000629284 -0.000329301 0.0185469 

-0.00728298 0.0054372 -0.0131836 
0.000400927 0.00238142 0.000390116 
-0.000852302 0.00129583 0.0255604 

-0.0500914 0.0118717 -0.216624 
0.0213592 0.00469105 -0.00703845 
0.0475268 -0.107894 0.908979 

-0.0080517 -0.0137072 -0.0457708 
0.0132492 0.00349413 0.065094 
-0.0222358 0.0100483 0.472951 

-0.00737541 0.00198535 0.0091876 
9.28827e-05 0.00402761 -0.0052545 
-0.000774168 0.00156515 0.000884372 

-0.0114473 0.00863256 0.0279558 
-0.00728389 0.0042187 0.0352202 
0.00108401 -0.00211953 -0.00183868 

0.00529547 -0.00688318 0.267707 
-0.0159093 -0.0156825 0.0585952 
0.00129458 0.00347518 0.0356861 

-0.0839862 -0.0846764 -0.521337 
0.01757 0.03884 -0.598149 
0.0128892 0.00128515 0.384199 

0.0551234 -0.262317 0.00105278 
0.1739 0.0166164 -0.245423 
-0.0218361 0.0342331 0.592811 

-0.026324 -0.0335714 -0.00148263 
0.0558498 0.0176848 -0.150026 
0.00253171 0.00547118 0.0264257 

-0.0581451 -0.0244313 0.533746 
0.0114953 0.0249029 -0.336019 
-0.00781587 -0.00161243 0.238202 

-0.00827704 -0.019099 0.0145509 
0.00392929 -0.000599604 -0.000801091 
0.00108745 0.00109818 0.0101524 

-0.0127815 -0.00284014 -0.0453852 
-0.00345477 0.00625569 -0.00324142 
0.000785342 0.000123737 0.0639012 

-0.0446294 0.0967444 0.14746 
-0.11018 -0.0211199 -0.0667801 
-0.00293896 0.00227856 0.120305 

-0.0162812 -0.00678765 -0.0149297 
0.0147359 0.0120307 -0.0237187 
0.000121826 -0.00173954 0.0208569 

-0.0353759 0.0271692 0.130522 
-0.00986077 0.0187214 -0.0809173 
-0.0107961 -0.0167979 0.0598625 

-0.00521884 -0.0128121 -0.178482 
-0.0229102 0.00353381 0.0144873 
0.00284925 0.00476872 0.0388394 

-0.00555319 -0.00253816 0.240206 
-0.00433479 -0.00227623 -0.165691 
-0.000609902 -0.000217538 0.0445312 

-0.0279643 0.0133053 -0.0147541 
0.00511052 -0.00438878 0.00323068 
0.00795614 0.000491735 0.0520195 

-0.021525 -0.0128487 -0.0496595 
0.0033282 0.00237132 0.0531851 
0.000530892 0.000636253 0.0375504 

-0.000189009 -0.0239319 -0.00176731 
0.0116355 0.00990418 0.0431432 
0.000167945 0.000247905 -0.0104615 

0.078164 0.0986502 -0.28234 
-0.0638821 -0.0606628 0.0453582 
0.000134513 0.00275199 0.0319615 

-0.013691 0.00274439 0.138021 
0.00350025 0.00323459 0.0135572 
-0.00121978 0.000146464 0.0238267 

0.0061075 0.00562493 0.00387023 
-0.00721563 -0.0115678 -0.0024075 
-0.000312936 0.000756787 0.00122564 

0.0338927 0.0572401 -0.0179724 
-0.0571915 -0.0239693 0.0334759 
-0.000531567 0.00115343 -0.0193826 

-0.00441634 0.0213961 -0.0536766 
0.00116809 0.0163133 0.076704 
0.00554499 0.00272405 -0.0159457 

-0.0322571 0.0139804 1.16891 
-0.0147534 0.0714597 -0.53762 
-1.61461e-05 -0.00627586 0.104222 

-0.5602 -0.265142 -2.35277 
0.530696 0.423404 0.591426 
-0.00677403 -0.0104572 1.04693 

-0.00263512 0.014102 0.00255429 
-0.0181525 -0.00220833 0.00173299 
0.000126316 -0.000157293 0.0025645 

-0.116467 -0.114662 -0.192393 
0.0193487 0.188635 -0.581641 
-0.0162474 -0.0461312 0.224772 

-0.114185 -0.0759576 0.147639 
0.158481 -0.0340056 -0.0624613 
0.016695 0.0040328 0.219418 

-0.0985036 -0.10132 0.0247585 
0.120876 0.00880515 -0.102428 
0.00648604 -0.00690116 0.0705871 

-0.0277985 0.0248277 0.0242893 
-0.0326428 0.00162994 0.0167102 