# vtk DataFile Version 3.0
Output file generated by Yade's KinematicLocalisationAnalyser
ASCII
DATASET UNSTRUCTURED_GRID

POINTS 13483 float
602.472 31.7517 -0.419542
730.558 66.0667 0.523007
119.123 6.07898 -0.453253
759.564 5.55231 0.442282
499.552 7.99023 -0.288883
313.844 35.731 0.237647
155.597 6.91971 0.441369
566.93 10.3711 0.170345
495.739 23.8549 -0.137719
688.155 13.834 0.458064
209.504 8.84974 -0.122873
256.313 6.39104 -0.250435
646.733 50.6437 0.160374
626.285 15.8685 -0.109227
136.253 17.2973 0.456301
220.638 34.7004 -0.394742
216.932 12.9686 -0.294391
288.27 9.88686 0.408608
339.904 33.6391 0.487471
523.14 8.49099 0.355553
410.697 38.3641 -0.098573
587.532 48.3575 -0.303048
748.061 50.289 -0.464095
686.302 64.7239 -0.506876
458.328 16.2533 0.28935
240.407 44.5145 0.126722
490.94 28.5819 -0.487613
582.741 22.1188 -0.240742
44.3594 15.8067 -0.460168
711.016 65.4161 -0.329394
482.587 4.8607 0.356927
16.5128 24.4212 -0.300405
741.335 72.232 0.288803
495.339 2.57642 0.463368
77.5229 45.1528 0.111397
521.492 33.3546 -0.349765
528.619 16.6475 -0.414692
343.036 23.2608 0.18223
530.512 27.7818 -0.296683
349.989 34.2223 0.480234
240.725 14.6134 0.31989
433.923 36.9045 0.0681349
655.731 20.7557 -0.144627
191.658 6.25865 0.348506
54.7029 7.06256 -0.101919
67.8324 8.81352 -0.276363
663.413 10.7472 0.564126
22.7892 11.828 0.28634
605.491 49.1996 -0.434804
663.993 41.8451 0.321395
171.717 32.7078 -0.323422
732.686 52.9125 -0.165957
34.236 28.6768 0.121671
533.347 3.03446 0.345064
141.15 7.44748 -0.508946
589.495 36.9696 0.491932
503.041 28.3397 0.123231
174.313 0.952937 -0.272906
31.8804 2.30995 0.352999
348.352 18.1127 0.271516
613.296 50.4552 -0.172737
461.741 33.7776 0.191863
398.932 1.02878 0.200462
674.036 11.1351 0.465286
26.3844 44.0879 0.235733
256.135 31.1804 -0.313843
687.529 8.46549 -0.334811
664.991 66.569 -0.352898
417.312 8.70437 -0.498825
567.508 3.5492 -0.384974
710.42 41.1642 0.429896
129.931 7.72758 0.283908
498.67 25.8995 -0.134743
478.341 14.7674 -0.143583
294.287 16.9366 -0.341411
20.1454 13.9132 -0.30744
752.645 69.9457 0.321764
332.601 39.6805 -0.296364
658.21 37.4726 0.327106
666.966 20.2213 -0.310635
748.694 13.0077 -0.260875
465.061 34.5335 -0.172888
91.8364 39.7128 -0.30763
677.454 50.4655 -0.238253
638.697 57.5147 -0.109169
754.863 54.7874 0.110789
742.289 0.742837 -0.583078
290.634 28.7608 0.471308
617.105 6.44087 -0.130029
23.8751 5.50777 0.612083
132.537 38.6401 -0.147672
513.817 15.8771 0.183105
740.291 41.1266 -0.511357
195.081 29.0582 0.28228
43.9352 34.7775 0.290307
494.221 1.27769 0.125832
235.912 8.94473 -0.375372
712.876 51.4821 0.266553
734.38 41.4763 0.282828
361.234 21.0144 -0.264725
163.508 27.1267 -0.467644
548.366 41.3818 0.508249
380.878 16.0382 -0.48187
414.193 30.9013 -0.120786
378.809 4.83097 0.493588
547.281 12.4239 0.134201
757.707 22.4833 0.193216
79.8335 40.0172 0.407727
336.022 5.05994 -0.206008
560.374 9.85391 -0.309297
361.575 44.4498 0.453754
24.7891 26.0294 -0.476801
29.7716 5.76847 0.311333
567.59 37.8792 -0.589972
506.401 26.2514 -0.151485
26.0406 38.2451 0.416275
92.2679 31.0538 -0.251055
325.84 16.0851 -0.279731
598.045 20.7316 -0.14703
476.359 38.7363 0.324728
704.296 8.55249 -0.418197
697.116 5.90849 -0.190083
388.929 37.5484 -0.102847
631.433 30.7956 -0.126135
239.218 16.9386 0.478103
331.469 3.89392 0.457264
103.034 32.1648 -0.414027
115.464 24.4762 0.247727
544.525 42.1518 -0.0866072
307.211 18.8668 0.469704
705.359 66.6634 0.0963599
667.904 64.9042 -0.125365
483.678 20.5682 -0.401987
733.761 19.0682 0.293961
430.615 24.071 0.21426
278.741 25.5529 -0.292197
666.312 51.0054 -0.333885
280.92 29.6774 -0.408507
576.969 13.4195 -0.243139
333.697 36.3835 0.205973
508.217 12.5715 0.532442
369.048 31.8745 0.0847403
432.847 16.9272 -0.10068
319.796 42.7703 0.431515
191.382 30.629 -0.127134
734.951 67.5141 0.14841
756.045 25.1726 -0.408758
6.04072 12.539 0.440999
435.284 23.223 -0.403861
37.665 23.0728 0.0777403
379.183 31.5313 -0.372426
398.949 25.767 -0.280039
74.5754 11.9293 -0.485827
51.8072 33.4414 0.429622
227.456 13.6582 0.423811
616.098 41.4374 0.39309
577.613 24.6143 -0.482271
74.6086 21.3527 -0.480011
686.056 69.6024 -0.406133
725.931 2.4378 0.617703
655.852 63.4401 0.480995
668.135 3.7178 0.488759
552.196 29.7208 0.425154
588.837 49.112 0.508796
517.633 19.037 -0.4185
758.564 3.77102 0.545982
225.29 24.7866 0.112342
127.987 35.7401 -0.195408
249.235 6.6572 0.442827
94.3876 4.50995 0.270678
64.1355 10.0217 0.237687
278.503 37.0679 -0.336941
17.5424 25.8473 0.360634
559.703 19.8379 -0.469173
606.202 43.3378 0.228437
467.722 21.1237 -0.390219
757.895 82.7984 0.405268
410.507 8.6534 -0.120709
440.338 37.1066 -0.0434267
541.634 3.46092 -0.204192
23.2461 23.26 0.398503
579.052 4.41675 0.571816
549.387 4.38845 0.3517
207.727 11.3468 0.47695
429.007 16.3069 -0.264434
314.339 6.33526 0.365275
392.144 18.8134 -0.377075
699.875 52.1416 -0.0686147
192.878 26.6107 0.460185
735.647 6.55465 -0.531154
699.613 48.0648 0.339322
387.156 10.5328 0.186918
686.1 2.19713 -0.57707
605.101 26.7814 -0.393149
708.528 21.6732 -0.446524
435.861 43.9281 -0.32236
503.05 13.043 0.476772
469.386 44.9033 -0.230475
450.389 8.70593 0.12181
659.162 64.0394 0.292536
657.287 57.9382 -0.302884
193.69 39.5506 0.343428
746.653 12.159 -0.148057
590.28 48.7864 -0.309472
11.2403 17.4913 0.234715
412.969 25.3262 0.337375
189.159 23.6641 -0.405641
93.4932 40.5259 0.225592
738.928 38.8988 -0.561816
652.433 67.8773 -0.222065
322.026 26.0378 0.335247
538.212 10.9638 0.402038
82.5494 45.3037 0.181126
250.513 26.28 -0.457861
561.357 26.4331 0.380921
493.456 18.6078 -0.409434
265.657 0.890181 -0.347857
557.473 43.0089 -0.408512
538.232 44.592 -0.480891
487.561 34.0756 -0.302792
505.916 2.02003 -0.670926
677.715 25.0368 -0.414589
181.054 12.4991 -0.182538
506.11 38.7741 0.522891
568.59 44.7085 0.145117
73.1687 0.960059 0.28285
254.527 4.75386 0.190773
754.292 25.9461 0.166044
747.92 14.8653 -0.524911
759.521 28.2348 -0.591795
306.927 8.63231 -0.230629
708.507 33.0055 -0.456989
411.982 43.5726 -0.33995
454.71 0.809297 -0.40974
645.8 58.2384 -0.529892
26.6313 31.8761 -0.297567
334.569 42.4219 -0.576095
255.389 2.9103 0.348987
746.363 73.0593 0.195472
705.278 79.4887 -0.112873
290.712 11.3201 0.257635
662.014 48.1134 -0.0832237
562.281 2.59459 0.250729
547.647 7.82303 0.420981
97.4877 18.7082 -0.51991
306.779 1.04116 -0.229559
347.255 2.2684 -0.361739
13.7541 7.66489 0.463147
4.52537 31.5869 0.276313
163.338 18.9888 0.416383
68.6888 42.4962 0.222693
67.0838 29.6852 -0.326837
428.904 14.4464 -0.453783
372.137 35.3036 -0.488993
730.344 53.3517 0.112627
19.3825 4.03573 -0.270444
70.8795 6.90358 0.140813
625.13 44.688 -0.179026
298.092 0.94272 0.371319
369.353 16.1295 -0.126096
238.424 4.64737 -0.379096
639.487 33.7324 0.176259
457.819 8.48923 0.41654
708.481 30.2999 -0.345922
634.426 39.8682 -0.267731
657.003 35.0655 0.0794577
425.827 28.2146 0.49164
102.69 45.6876 0.320376
548.238 45.7595 -0.0940866
708.489 15.8801 0.328219
240.866 30.6861 -0.269397
31.7669 17.8074 0.197893
340.796 13.9767 0.506114
108.27 41.5007 0.464014
271.257 43.2801 -0.227522
431.267 1.64233 -0.349198
746.871 56.5426 -0.451618
664.531 0.687869 -0.603026
336.531 3.50452 0.563434
303.938 26.9219 -0.157443
468.433 41.6627 0.227761
82.1899 8.10303 0.402983
200.077 45.6814 0.377447
736.969 46.8837 0.436865
501.309 40.8132 -0.11649
202.408 41.5781 -0.274289
162.664 42.9459 0.401381
757.865 50.9148 -0.47084
756.198 23.2347 -0.64741
608.151 4.53345 -0.628009
192.69 24.8472 -0.107008
554.328 30.6441 0.104229
556.33 30.1886 0.257032
415.03 5.70531 -0.13806
489.189 0.938798 0.376567
727.458 54.2608 -0.518894
85.6705 31.6787 -0.224543
644.629 34.8368 -0.483962
277.879 15.3753 -0.414586
9.25166 2.37929 -0.33169
126.59 37.5324 -0.200862
68.0093 22.8542 -0.471628
697.704 65.1957 0.301898
744.511 81.1241 -0.223449
187.713 29.043 0.174542
753.64 19.8272 -0.591869
45.3489 36.812 -0.279112
91.3394 29.3455 0.160726
635.607 13.9168 0.427734
419.88 17.4591 -0.55724
526.57 17.0661 -0.106033
241.55 28.7304 -0.181654
624.006 4.86468 0.478576
760.232 23.4823 0.4458
29.4967 32.5552 -0.284786
273.952 7.67205 0.201739
225.109 15.2726 0.26281
1.04745 36.0977 0.156075
228.426 14.7157 -0.380207
214.397 10.9498 0.139245
217.067 26.5091 -0.27204
134.195 28.3139 0.142634
554.081 16.0055 -0.322057
169.016 14.3547 -0.355429
741.105 70.3983 -0.32244
176.314 3.78497 0.524451
47.5228 37.9914 -0.433605
715.647 64.2413 -0.431784
285.665 33.0651 -0.405751
668.99 40.7329 0.506202
742.917 47.7656 -0.531278
304.972 9.26083 -0.103358
699.019 39.8748 0.415287
333.505 2.51502 -0.42947
422.27 23.8465 0.360131
660.672 31.0467 -0.432445
106.855 12.2306 0.516462
491.12 3.81825 -0.532402
712.068 28.7209 -0.206195
89.16 7.96782 0.244525
285.619 14.8761 0.208013
429.789 11.7557 -0.216439
756.868 3.68072 0.670701
403.906 1.98923 -0.533773
178.829 39.3634 -0.292153
711.17 11.7001 -0.394741
129.82 36.8423 -0.175725
267.305 32.1091 -0.398251
406.588 22.1265 0.205967
579.421 15.2947 -0.341775
392.924 9.87787 -0.525397
463.696 27.8351 -0.417038
731.707 66.2285 -0.436377
47.5096 11.1223 -0.116463
303.146 38.1497 -0.280599
386.052 27.6516 0.378788
416.064 20.9674 -0.262272
527.868 49.1384 0.356131
721.226 49.8098 0.241049
660.93 56.71 -0.359515
228.99 34.4875 -0.374359
13.5995 32.946 -0.160533
656.258 59.7396 -0.133392
516.019 43.8572 -0.479048
232.974 39.4717 0.129078
682.262 49.9954 -0.157714
152.873 9.32408 0.21176
371.998 21.2508 0.283339
470.105 42.8288 -0.135251
419.987 19.3084 -0.209344
726.99 65.8411 0.42149
432.674 3.87371 0.544015
50.0939 25.6323 -0.332494
477.068 32.5039 0.352698
442.196 43.1819 0.375911
747.764 66.6472 0.260396
698.201 34.6837 -0.222826
548.596 20.9716 -0.165644
740.024 62.16 -0.451817
297.657 2.26441 -0.45973
384.923 29.6123 0.514712
29.2939 39.7924 -0.300107
701.966 40.0221 -0.229428
613.805 21.4772 -0.474432
470.678 0.776547 -0.469798
127.177 4.65817 -0.340681
433.544 41.3694 0.101493
11.6578 0.907198 0.317879
757.348 7.64695 0.24771
376.336 39.3699 0.441198
[...]
POINT_DATA 13483
TENSORS Strain_matrix float
-0.189262 0.139936 -1.84917 
-0.148139 0.131939 -1.48277 
0.00444265 -0.00613121 0.209267 

-0.487357 0.461187 -14.9916 
-0.0723147 0.157782 -5.65373 
-0.0349426 0.00953832 -0.757921 

-0.0185928 -0.0590137 0.0191589 
0.0696637 0.0200782 0.524466 
0.00508707 -0.00879725 0.0692362 

-0.168453 -0.0691342 -0.0372256 
0.255937 0.265057 0.460998 
-0.0414286 0.0202462 -0.05723 

0.0135366 0.0527178 0.0864383 
-0.00874984 -0.0243874 0.0846485 
-0.00772554 0.00569805 0.0325467 

-0.00624737 -0.018712 -0.00111932 
0.0164151 0.00268208 -0.00725653 
7.73877e-06 3.73516e-05 0.00684177 

-0.00686675 0.00133041 -0.0251432 
0.0018939 0.00274488 -0.0164346 
0.000152095 -0.000300402 0.00463368 

-0.0230362 0.0145194 -0.0246041 
-0.0221548 -0.0157656 -0.0736228 
0.000443034 -0.0227509 0.119506 

-0.00274135 -0.00162312 0.0249135 
0.0105249 -0.00662641 0.0276619 
-0.000197724 0.000259378 0.0161953 

-0.238362 0.0258216 0.223017 
-0.0841593 0.224632 0.401798 
0.00623449 -0.00332907 0.110471 

-0.00645582 0.00476125 0.00561536 
-0.000867301 -0.00449809 0.00798033 
-0.00126318 -0.0221089 0.0827315 

-0.0107361 -0.023375 -0.000365883 
0.0343613 0.0120243 0.0310659 
-0.000283461 -0.00220858 0.00429322 

-0.201624 -0.33495 -0.866399 
-0.0534598 0.0197278 0.529725 
0.0302161 0.0273351 0.480898 

-0.135447 -0.107999 -0.0494114 
-0.0160558 0.147916 -0.0188882 
0.00874869 0.0117333 0.0463705 

-0.0101877 0.00853808 -0.0140828 
-0.00476426 0.00151131 -0.0543926 
0.000365496 0.00102378 0.012274 

-0.00494787 -0.00815594 0.00262418 
0.0016294 0.000933094 0.00641232 
0.00239509 -0.000224012 -0.0100076 

-0.0100895 -0.00212874 0.00264984 
0.00716574 0.00344679 -0.00344479 
0.000206842 -0.000212577 0.00343629 

-0.033658 -0.0183214 0.0100205 
0.0402301 0.0062313 -0.0310201 
0.00184179 -0.000308682 0.0382106 

-0.0716444 -0.0274389 -0.751352 
-0.00780633 0.0303554 0.0538548 
-0.0443356 0.0111244 -0.253562 

-0.0148873 0.0380952 0.00696539 
-0.0320412 -0.0155451 -0.0579422 
-0.0153553 0.0150488 0.00105532 

-0.0358164 -0.0197806 0.0598898 
-0.0383091 0.0301732 -0.0205549 
-0.0269294 0.0443306 0.0776107 

-0.0458886 0.206916 -0.134265 
-0.190479 0.0353411 -0.0308831 
0.00460424 -0.0608581 0.260468 

-0.0239681 -0.0401124 -0.0165214 
0.052287 0.00813323 0.0260734 
0.000630073 -0.00208263 0.0105482 

-0.169167 0.178908 16.2372 
-0.225914 0.062267 18.4544 
0.00502065 0.00101056 0.321988 

-0.00836376 -0.00422499 0.0106716 
-0.0114911 -0.000141673 0.0113782 
0.00957898 0.00329131 0.0786461 

-0.0303594 0.00720126 -0.00533251 
0.0162216 0.0206269 -0.000205644 
-0.0192016 0.000892446 -0.0304807 

-0.00460131 -0.00542367 -0.479877 
-0.0016749 -0.0142193 -0.92722 
0.000425579 7.74768e-05 -0.0779779 

-0.141545 -0.148536 -0.523199 
0.0834024 0.0306448 -0.105337 
0.0433432 -0.000550332 0.187759 

-0.0139607 0.0105074 -0.0197927 
-0.0159449 0.00184612 0.123501 
0.0062419 0.0165561 0.668133 

-0.463339 1.38729 4.66454 
-0.616741 0.597556 2.17471 
-0.121786 0.00964604 0.785709 

0.00359526 -0.00106873 -0.142049 
-0.0352281 -0.0092808 0.0100777 
-0.00847295 0.00129689 0.0513705 

-0.0486762 0.0115117 -0.299184 
0.011841 0.0258645 0.0610065 
0.000234765 0.00156156 -0.0191329 

-0.00220029 -0.0974047 -0.0250139 
0.119917 0.0276147 -0.00700537 
0.00142886 -0.00395395 -0.0214858 

-0.00937329 0.00828164 -0.0916956 
0.0213973 0.0108823 0.0352846 
0.0217869 -0.138262 0.459427 

-0.0076408 0.00883027 0.00477285 
-0.0186555 0.00178131 -0.0054644 
-1.50905e-05 -0.00036474 0.00858004 

-0.0292471 -0.158405 0.47945 
0.180181 0.0503057 -0.757172 
-0.0258938 0.054201 -0.253281 

-0.143916 -0.0220224 0.576598 
0.030384 0.139315 0.867717 
0.000205268 0.00522328 0.0871641 

-0.120801 -0.0947825 -0.51015 
0.0726643 0.0990118 0.295349 
0.00362057 0.000280644 -0.0026233 

-0.249007 0.184815 -1.57088 
-0.024398 0.133386 0.907205 
-0.000925181 -0.0143457 -0.0227831 

-0.0123778 0.0150652 1.04398 
-0.00202639 -0.00724646 -0.584004 
0.00129803 -0.000880698 0.117918 

-0.00813073 -0.00414122 -0.0169379 
-0.0118399 -0.0236463 -0.0383654 
0.000275076 0.00117702 0.034551 

-0.00946648 0.0256592 0.0123594 
-0.0221068 0.00153962 -0.0184478 
0.00790212 0.00678575 0.0352032 

0.043766 -0.0202086 -0.0600946 
0.0696063 0.0465536 0.0140486 
-0.0205023 0.00353007 -0.0159496 

-0.0311164 0.0235831 0.142863 
-0.0380452 0.0110403 0.899871 
-0.000837701 0.00511235 0.249291 

-0.0096589 0.00521058 -0.0135871 
-0.00317815 0.00391714 -0.000663816 
-0.000568716 -0.000656149 0.00619956 

-0.00598412 -0.00334827 0.00459238 
0.00755538 -0.00414058 -0.0054795 
-0.000195374 -0.000956235 0.0117827 

-0.581347 0.305745 0.381294 
-0.631879 0.59174 0.229941 
0.0442454 -0.0269094 0.410853 

0.0023264 0.0124117 -0.0202595 
-0.0201438 -0.0130899 -0.00183017 
-0.00560996 -0.00172889 0.0277673 

-0.177784 -0.0476647 0.0213443 
0.131736 0.141294 0.898831 
0.0449516 0.0216724 0.335082 

-0.19446 0.341191 -0.370895 
0.370885 0.0098935 -1.24199 
-0.000724929 0.00711061 -0.171154 

-0.0115102 -0.0217826 0.00615976 
0.0143626 0.00248197 -0.0116055 
0.00184569 0.00227528 -0.00370262 

0.023209 -0.162367 -0.12618 
0.148266 -0.0215248 -0.193417 
0.0203365 0.0305639 0.219017 

0.00178667 0.0239777 -0.0030203 
-0.0272285 -0.00362583 -0.0027568 
3.98092e-06 0.000200107 0.00623776 

-0.0221333 0.0343335 0.0278012 
-0.0194609 -0.0406893 -0.35311 
0.00896959 0.0049648 0.101308 

-0.0109106 0.00827365 0.603775 
-0.00554486 0.00298435 1.72572 
-0.000317579 7.75991e-05 0.336235 

-0.0449553 0.040482 1.46738 
-0.0562631 0.0432637 -1.00081 
0.000782258 0.00363018 0.136987 

0.0332993 0.0368919 -0.0371417 
-0.000821173 -0.0517754 -0.168581 
-0.00132004 0.00276322 -0.0283194 

-0.00576499 -0.00683884 0.00180981 
-0.000272622 -0.0047682 -0.017358 
-0.0115347 0.0916539 0.221069 

-0.0174146 -0.0563958 0.228756 
-0.0334648 0.00272985 0.0746971 
-7.14851e-05 -0.00499316 0.0684387 

-0.00641047 -0.0720975 -0.104706 
0.0454017 0.0254751 -0.0365462 
-0.0189319 0.0274966 -0.201035 

-0.284679 -0.301491 -0.178598 
0.349169 0.816677 -0.321852 
0.0174168 -0.02618 0.171573 

-0.00686241 -0.0144227 -0.0450172 
0.0100784 -0.00182649 -0.0383072 
0.00984815 -0.00313147 0.0569607 

-0.0123475 0.00737346 0.010415 
-0.00839553 -0.000205908 -0.00950177 
0.000905079 0.00135286 0.0203657 

-0.00634906 0.343368 0.264855 
-0.334857 0.0796146 0.178879 
0.0245888 -0.0147076 0.108481 

0.0290608 -0.0124452 -0.0364457 
-0.0304189 -0.0101939 -0.0833708 
0.000194483 0.00128729 0.0191359 

-0.00283124 -0.0124511 -0.00263782 
0.00119476 -0.000985606 0.0880181 
0.000567736 -0.000833244 0.0178765 

-0.00900618 0.0168321 -0.019971 
-0.0349113 -0.044992 0.0108166 
0.00200027 0.00216489 0.0403168 

0.023902 0.143796 0.27604 
-0.136258 0.0120812 -0.172381 
0.0456767 0.00812901 -0.20273 

-0.0174962 -0.00122469 0.0503578 
0.00128671 0.012997 0.117814 
0.00148342 0.0011822 0.0479271 

-0.0206433 -0.0164542 0.124181 
-0.00767445 -0.0139297 -0.137066 
0.00181848 0.00604784 0.0279324 

0.00395217 -0.0466556 -0.0539915 
0.016946 -0.00153505 -0.0697282 
0.00074932 -0.00116263 0.0806996 

-0.0211711 0.0170037 -0.017533 
-0.0226959 0.0148877 0.00458898 
-0.00136381 -0.000358875 0.00577928 

0.00719742 -0.000605962 0.025299 
-0.00585079 -0.010008 0.0108985 
0.000173308 -0.000130813 -0.0031543 

-0.0200181 0.0285659 0.2542 
-0.0474725 0.0147532 0.143951 
-0.00662697 -0.00245768 0.0111307 

-0.00181987 0.00874886 -0.0044136 
-0.014334 -0.00263082 -0.0387687 
-0.000637982 0.00200217 0.0270395 

-0.0652325 0.0279839 -0.0521289 
0.0118234 0.0147758 0.0774119 
-0.010326 -0.0342527 0.174393 

-0.0106096 -0.0457996 0.17108 
0.0940764 0.0147773 -0.0806158 
-0.0310869 -0.0508129 0.00337774 

-0.0158533 -0.0210346 0.0160461 
0.0189353 0.00725794 -0.115958 
-0.000575331 -0.0022342 0.018378 

-0.142997 0.104894 -0.0801159 
-0.0348165 0.161943 -0.464635 
-0.0301446 -0.0560471 0.0166225 

-0.126813 0.321403 0.094885 
-0.54679 0.304966 1.06649 
-0.0634004 0.0282068 1.25487 

-0.0114442 0.00291031 0.0256317 
0.0235287 0.0141572 -0.0607359 
-0.002283 0.0093332 0.00847853 

-0.00331649 -0.0115811 0.0720402 
0.00756226 -0.00306289 -0.0200845 
-0.00342888 -0.00120103 0.0386869 

-0.0205584 -0.0014788 0.0265309 
0.00568586 0.00777248 0.00582409 
-0.00170534 0.00104206 0.0458911 

0.0141499 -0.0662214 -0.100221 
0.0949863 -0.0158804 0.00366771 
0.00510084 0.000106211 0.0421139 

0.0465751 -0.189074 0.0944789 
0.202105 0.0197729 0.0560355 
-0.00495495 -0.00400119 -0.0271791 

-0.00707505 -0.0154776 0.00104971 
0.0189124 -0.00495224 -0.033188 
0.000375024 0.000350043 0.0194673 

-0.0183012 0.269491 0.395194 
-0.00293153 0.14416 0.0621131 
-0.000627755 -0.000692125 0.161986 

-0.0454006 0.0278434 -0.0829019 
-0.0522144 -0.0277388 -0.0563711 
0.00982373 0.00133243 0.0428211 

-0.0408437 -0.0196616 -0.0157294 
0.0110456 0.00633678 0.00923964 
-0.00144762 -0.00540079 0.0276291 

-0.0202365 -0.00196921 1.20038 
0.00923203 -0.000566346 3.7543 
0.00598869 0.0118885 -0.209543 

-0.0134326 0.00694669 0.0509764 
-0.0554478 -0.00364702 0.00554496 
-0.0254436 -0.017702 -0.0714811 

-0.0261146 0.0444134 -0.00956808 
-0.0170347 0.00145844 -0.0400071 
-0.000645691 -0.00371722 0.00847155 

-0.0842436 0.0784946 -0.798609 
0.190734 0.056907 0.54539 
0.000137731 -0.000400773 0.0942673 

-0.0210211 0.0631065 -0.158768 
-0.0595513 0.00324892 -0.0288805 
0.000204865 -0.00185512 0.0241331 

-0.00538365 0.0111172 -0.00247953 
-0.0219531 4.34892e-05 -0.0374249 
-0.00017049 0.00178959 0.00752774 

0.00368196 0.045422 -0.0132071 
0.0112563 -0.0211827 -0.00122153 
-0.00895471 -0.243155 0.509522 

-0.0128515 0.0157608 0.0574617 
-0.0118877 0.00433281 -0.0134501 
-0.000474866 -0.000769147 0.0155042 

-0.0258856 -0.0281955 -0.0611475 
0.0521387 0.000958988 0.0142759 
0.001872 -0.00197619 0.0400003 

-0.225361 -0.298652 0.383878 
0.0338618 0.1857 -0.782685 
0.000252851 -0.00295538 -0.108935 

-0.0673468 -0.0226301 -0.0353715 
0.0211463 0.0536105 0.37448 
-0.0106946 -0.00970259 0.121935 

-0.00741393 -0.00923391 -0.479585 
0.00818846 -0.00212106 0.40038 
-0.000786381 -0.00212775 0.157616 

-0.154753 0.165839 -0.990622 
-0.162433 0.130908 -0.745934 
0.0377847 -0.0345782 0.225108 

-0.0133839 0.0165485 0.24385 
-0.0167311 -0.00366151 0.501373 
-0.000605627 0.00150566 0.0589245 

0.0584038 0.0306252 -0.123192 
-0.0670442 -0.0351263 -0.285685 
0.00061599 0.00750654 -0.0214938 

-0.0780826 0.0446497 -0.30791 
-0.0223284 0.0458528 -0.394756 
0.00558836 0.0195929 0.274232 

-0.115242 -0.0710435 -0.0524479 
0.0792303 0.0491564 -0.048701 
0.0092803 0.0328894 0.330746 

0.00619699 -0.0934623 0.132191 
0.0834456 0.0474516 -0.0990999 
0.010606 -0.00149769 0.0664808 

-0.0192768 0.0113822 -0.082259 
-0.0241508 0.00572978 0.0204608 
-0.0184136 -0.0214865 0.954318 

-0.0213206 0.00104787 0.00273419 
0.0110364 0.00474625 -0.00400676 
-0.00114686 0.00120618 0.0332534 

-0.00855997 0.0800997 -0.665121 
-0.0842208 0.0749401 -0.358454 
0.0496426 0.0035379 -0.163063 

-0.0202728 0.0070462 -0.194822 
-0.0123912 0.0112052 0.242774 
0.000500485 -0.00164813 0.00149517 

-0.0457434 -0.0203298 -0.461594 
0.00994094 0.091135 -0.102575 
-0.0137723 -0.00494514 0.1687 

-0.0134746 0.0617016 0.0635944 
-0.0723543 0.0229186 0.0403519 
-0.0111205 -0.00606345 0.0421548 

-0.0944756 -0.0337687 2.45428 
0.12629 0.0403423 1.78344 
-0.00479745 0.00185731 0.25662 

0.0382525 0.0543618 -0.0693494 
-0.00270054 -0.0561708 0.00980427 
0.00174022 0.00207381 0.0225246 

-0.00767074 0.0132776 -0.0953683 
-0.028932 0.00587772 -0.55065 
0.00227204 -0.00386836 -0.143647 

-0.00705792 -0.00304578 -0.0258307 
0.00570307 0.000144789 0.0300582 
-0.00224244 -0.00188322 0.00405514 

-0.0445084 -0.0123073 -0.17163 
0.0603374 0.0325142 -0.0648533 
-0.00213322 0.002567 0.0308635 

-0.328464 0.175495 -0.0667498 
-0.0412906 0.228786 -0.515315 
-0.0269038 0.000619457 0.334733 

-0.0126374 -0.00615879 -0.05149 
-0.0104151 0.000853263 -0.0239196 
1.49954e-05 -0.000430695 -0.00576226 

-0.0208846 0.00130575 -0.00586396 
0.00634257 -0.00934265 -0.012198 
0.00279876 -0.00168626 0.0247678 

-0.0142881 0.000511995 0.0121411 
0.000125764 -0.00844939 -0.0214864 
-0.00142564 0.00133548 0.0337658 

-0.0119439 -0.0365137 0.0141241 
0.0322491 0.00384052 -0.00271288 
0.000211143 -0.000604987 0.023143 

-1.18253 0.433942 -1.93713 
0.128765 0.548135 0.446406 
-0.0783477 0.000134418 0.209956 

-0.0129337 0.0162261 -0.972387 
-0.00932233 0.013611 2.07771 
0.00372528 0.000375057 0.222276 

-0.0118 -0.00531826 -0.0407985 
0.00388999 0.00519891 0.0356412 
-0.00212338 -0.00039934 0.0187589 

-0.0179254 -0.0106298 -0.065919 
0.0105616 -0.00184551 -0.0215242 
-0.0043384 -0.0108372 -0.0156786 

-0.0313796 0.119288 0.136338 
-0.0282542 0.066619 0.292976 
-0.000111589 0.00212296 0.00510794 

0.0145731 0.124496 -0.0283431 
-0.0994756 0.0202128 0.13766 
0.00623285 0.00127979 -0.027891 

-0.0376772 0.0887964 0.124134 
0.0345066 0.0787631 0.0175074 
0.000194617 0.000839326 0.0432726 

0.18472 0.248488 -0.438361 
-0.0836984 -0.114058 0.176182 
-0.00608389 -0.00269187 -0.0527484 

0.00574351 0.189095 -0.00104638 
-0.168079 0.0179327 0.0611227 
-0.00274016 -0.0054293 0.0119186 

-0.0122973 -0.00956811 -0.10089 
0.00742855 0.00158145 0.00641929 
0.00032891 0.00266501 0.0103952 

-0.0297427 -0.0104608 0.0785743 
0.12565 0.0557664 0.181328 
-0.00294301 -0.0497527 0.0677999 

0.0147522 -0.046191 0.034641 
-0.0794855 0.0408367 -0.212491 
-0.000693936 0.000824811 0.00369525 

-0.112168 0.160658 0.364193 
-0.161391 0.132496 0.433126 
-0.0171498 -0.0250144 0.130166 

-0.0243965 0.194657 -0.0274357 
0.0934479 -0.0127237 0.23102 
-0.00823066 -0.0139671 0.166399 

0.0017307 0.0130534 -0.008809 
-0.00397151 0.00575058 -0.0228695 
0.00208676 -0.000984453 -0.00866345 

-0.0777064 0.00770961 0.0586521 
0.0299828 0.0372882 0.191681 
0.0185936 -0.0832999 0.403969 

0.000134422 -0.0341038 0.0102291 
0.0304335 0.00318159 0.00818122 
-0.000294315 0.0011651 -0.00538611 

-0.0123127 0.00717023 -0.0100315 
-0.00361133 0.00171703 -0.158631 
0.00117603 -0.000429302 0.00875872 

-0.00589231 0.016945 0.0138865 
-0.030472 -1.65066e-05 0.000544451 
-0.000555748 0.00124 0.0110726 

-0.0178482 0.029355 0.00136918 
-0.0303072 0.0116729 0.0383056 
-0.00147279 -0.00438722 0.0523278 

-0.00576894 -0.0162143 -0.10938 
0.0107201 0.000444553 -0.0274939 
0.000396416 0.000281267 0.0426126 

-0.0117316 0.011499 0.0286468 
-0.012989 -0.0125725 0.00393021 
0.0130576 0.00589985 0.0330055 

-0.0624338 -0.0592567 0.0338636 
0.155232 0.0675952 0.0262587 
-0.0137211 -0.0061314 0.109756 

-0.137186 -0.0316302 0.0595646 
-0.0229088 0.00489908 0.0693354 
0.00846707 0.00218884 0.0437881 

-0.00673269 -0.0143589 -0.0269603 
-0.00892409 -0.00574184 -0.207817 
-0.00637204 0.0146398 0.0580221 

0.0240246 -0.000293005 -0.65783 
-0.0373631 -0.0151876 0.0525985 
0.00042776 -0.00102951 0.04669 

-0.00870404 0.000428243 0.0102208 
-0.0510851 -0.00862694 -0.0260984 
0.00087856 0.000359818 -0.00457051 

-0.000165089 -0.0132095 -0.0511709 
0.00225897 -0.00865502 -0.161559 
0.00171318 1.74701e-05 0.0085046 

-0.015739 0.260671 0.231206 
-0.0844406 0.0721875 -0.0915469 
0.00306951 -0.029533 -0.046462 

-0.0163836 0.013519 -0.225659 
0.00516609 -0.0107501 0.383095 
0.00135762 -0.00187026 0.0666341 

-0.00975747 -0.00761057 0.124299 
0.0102251 0.00261213 0.0358655 
0.000319786 0.00113577 0.0127119 

-0.0100377 0.00590413 0.00174933 
0.0110071 9.22219e-05 -0.00260568 
0.000627019 -0.000542022 0.0184314 

0.0956438 -0.33154 0.2001 
0.263413 0.103201 -0.0267265 
-0.0283926 0.10612 0.0424336 

-0.0943202 -0.279166 -1.18196 
0.0696918 0.127485 -0.302932 
-0.00339293 0.0239155 0.0439202 

-0.0373801 -0.0436991 -0.617772 
0.0308756 0.0360797 0.375654 
0.00279555 0.00278005 0.0898547 

0.0913321 0.123856 0.0262492 
-0.0548157 -0.0472017 1.49734 
0.0026959 -0.0242549 0.0744876 

-0.016729 -0.0358551 -0.00526497 
-0.0166974 0.00591044 -0.0568802 
0.00242555 -0.00416997 0.0129608 

-0.029593 -0.0714211 -0.415652 
-0.0170172 -0.182957 -6.22739 
0.00363765 -0.0451644 0.722073 

-0.304256 0.301393 -0.549422 
-0.155991 0.21941 0.0947496 
0.00597667 -0.0390838 0.130369 

0.0467642 -0.282112 1.08624 
-0.0412771 0.0485843 -1.48345 
0.0118316 0.0197609 -0.0824739 

-0.0927855 0.0355263 -0.981337 
-0.137926 0.242761 2.75281 
0.0132233 0.0541763 0.540894 

-0.0112135 0.0343307 0.276825 
-0.0434437 0.0575234 -0.264554 
0.00283967 0.0044017 0.0728128 

-0.173719 -0.279523 0.202141 
0.0173851 0.21389 -0.204192 
-0.0019623 -0.0203477 0.0633161 

-0.002124 -0.0095604 -0.00234082 
0.00766381 0.00413721 0.00565188 
-5.17848e-05 -2.92726e-05 0.000513127 

-0.00871409 0.0264127 0.0474 
-0.0504646 0.00134014 -0.00435356 
-0.000946333 -0.00159621 0.00229097 

-0.0304677 0.0362373 0.299749 
-0.00430284 0.0043203 0.016376 
0.002221 0.00116742 0.0384659 

-0.00948761 -0.00284347 0.0287518 
0.00101345 0.00500964 0.0228188 
-0.00085814 -0.000268464 0.0188053 

-0.00843293 -0.000606746 2.05307e-05 
0.000314182 -0.000441924 0.00148742 
0.000209751 0.000213135 0.0165257 

-0.00278168 -0.0166669 0.00464897 
0.0187755 -0.000650092 0.0324022 
-0.000676799 0.000134081 0.0209508 

-0.020199 0.066979 0.681669 
-0.0257286 0.0524652 0.397513 
0.0021456 0.00055269 -0.0112361 

-0.165559 0.112025 0.339337 
-0.163197 0.103591 -0.350038 
0.00444498 0.00713583 0.169414 

-0.315157 -0.255304 -0.787982 
-0.143106 0.131831 0.0954366 
-0.0813449 0.124702 0.47643 

-0.0133795 -0.0202061 0.0612397 
0.0132899 0.000503184 -0.309817 
-0.000752933 0.000525948 0.0294285 

0.0147518 0.0139808 -0.011421 
-0.0295524 -0.00855921 -0.00339869 
-0.00103933 -0.000715063 0.00874314 

-0.0131785 0.0033324 0.00110145 
0.0041341 -2.14568e-05 -0.00364983 
-0.000420083 0.000607442 0.0214347 

-0.0133823 -0.00293684 0.144274 
0.00506674 -0.00310999 -0.0933832 
-0.00190408 5.77594e-05 0.0278078 

-0.0520621 -0.114224 0.182859 
0.151809 -0.0197819 0.117115 
0.00147471 -0.0053197 0.237176 

-0.0454084 0.0152555 0.299743 
-0.00606319 0.0560021 0.327894 
-0.000732257 -0.00381471 0.0686656 

-0.119759 -0.012804 -1.01685 
0.0133535 0.10221 0.0093462 
-0.0257488 0.0486056 0.113685 

-0.22641 0.05603 -0.473574 
-0.089364 0.241942 -0.672018 
-0.0328437 -0.0219734 0.229423 

-0.00898279 0.00593715 -0.0921359 
-0.000279858 0.00146148 0.0329518 
-0.000177258 0.000238924 0.0111196 

-0.0120419 0.0203446 0.00406886 
-0.0291586 0.00331126 -0.0244767 
-0.000374523 0.00201094 0.00785376 

-0.0220582 -0.00278742 -0.0228116 
-0.00252117 0.00127847 0.0348443 
-0.000212711 0.000997913 0.0491395 

-0.025069 0.0520349 0.204708 
-0.00718375 0.00651859 -0.0290334 
-0.0118123 0.0104119 -0.149994 

-0.0492657 0.00325759 0.0446147 
-0.0134748 0.0241922 -0.0974267 
0.0637092 -0.00163146 0.522173 

-0.0674739 -0.0176604 -0.360324 
-0.0387229 0.0338319 -0.510921 
0.00415145 -0.000441776 0.056209 

-0.0149263 -0.0181836 0.0360706 
0.00512116 0.00339551 -0.0896403 
0.00164121 0.000708464 0.0104218 

-0.0404851 0.00399989 -0.021765 
0.000139051 0.0160942 0.00516054 
0.00464527 -0.000632334 0.0576858 

-0.0489393 0.0585246 -0.0288432 
-0.00402999 0.0222777 0.00753624 
-0.00046968 -0.00152498 0.0298442 

-0.00867794 0.0124639 0.40466 
-0.0028794 -0.0213405 -0.0850037 
-0.000627296 -0.00257944 0.00844599 

0.0375645 -0.0429895 -0.274849 
-0.193438 -0.0108652 -0.467799 
-0.000753508 0.000529119 0.0227974 

-0.0150339 -0.116978 0.0932767 
0.0805985 0.0249255 -0.114401 
0.000802315 0.00310914 -0.00721485 

-0.0363098 0.0399463 0.195114 
-0.0157044 0.0741776 -0.845727 
0.00523803 0.00694027 0.0326913 

-0.0112017 -0.00616428 -0.0364654 
0.0598648 -0.00487831 -0.044694 
0.00218778 0.000341914 0.0339952 

-0.00828177 0.00305747 0.000587601 
-0.00513682 0.0016271 -0.0072715 
-0.000301392 0.000286663 0.0035777 

-0.00770129 -0.00615209 -0.0153295 
0.00128008 0.00242423 -0.00327928 
0.0010162 0.000329738 0.00718842 

0.0253325 0.0393926 -0.199143 
-0.123635 -0.00153199 -0.247662 
0.023246 -0.0136752 -0.113434 

-0.111964 -0.020275 -0.736815 
-0.276445 0.149366 0.136957 