# vtk DataFile Version 3.0
Output file generated by Yade's KinematicLocalisationAnalyser
ASCII
DATASET UNSTRUCTURED_GRID

POINTS 13483 float
576.891 33.9124 -0.404749
690.323 67.7298 0.535651
117.049 6.12617 -0.446308
718.38 6.30931 0.582017
486.464 8.59223 0.347754
308.814 35.8861 0.261145
152.537 6.92761 0.450947
548.833 11.1305 -0.144386
482.773 25.9282 -0.165189
651.229 14.1133 0.475675
206.232 8.85176 -0.1234
252.687 6.45267 0.315356
611.175 61.9546 0.164948
600.022 16.7906 -0.078914
134.161 17.8757 0.555086
217.352 34.5607 -0.407773
213.663 12.9693 -0.296859
283.485 9.90447 0.411902
334.423 33.7071 0.50447
508.642 8.40156 0.42254
404.262 39.7751 -0.10183
569.541 59.2733 -0.254307
706.968 51.9457 -0.460023
651.987 70.6052 -0.535559
449.252 17.6509 -0.335833
236.406 45.0982 0.129842
479.432 32.0803 0.286069
560.28 25.5032 -0.261949
42.9455 16.3684 -0.457865
675.773 68.8291 -0.318603
471.045 4.84777 0.36807
16.1457 25.2542 -0.293284
701.003 73.9431 0.293836
483.116 2.19638 0.650963
75.6726 45.1343 0.111232
508.63 34.5395 -0.335108
513.705 17.1399 -0.439616
337.721 23.3251 0.185793
517.053 29.9113 -0.308759
344.396 34.4219 0.490169
236.801 14.403 0.343988
426.41 37.0886 0.0958562
621.067 29.2808 -0.138349
188.403 6.2747 0.34829
53.0671 7.11 -0.113482
66.131 8.81413 -0.276115
627.452 16.217 0.482582
22.2295 11.9907 0.29816
580.573 57.1526 0.363472
628.768 50.8764 0.34283
168.641 32.9143 -0.324327
692.547 54.6088 -0.154119
33.1678 29.5004 0.124333
518.672 3.04575 0.356291
138.596 7.44646 -0.567842
568.683 45.6709 0.398209
490.551 29.8372 0.121313
171.164 0.963608 -0.276985
31.201 2.31411 0.3551
343.079 18.2166 0.275794
587.187 63.3342 -0.131751
452.762 35.9286 0.217745
392.235 1.02291 0.202704
636.768 12.734 0.364561
25.6284 45.2424 0.235877
252.271 32.6055 -0.374662
650.34 8.62135 -0.355477
630.327 75.9543 -0.35546
410.288 8.75577 -0.513176
548.473 3.98336 -0.419196
670.573 43.1459 0.436476
127.815 7.81578 0.273885
485.908 28.3907 -0.122566
468.028 15.244 -0.148143
289.512 16.9397 -0.342335
19.6981 14.0802 -0.305827
712.198 72.0755 0.325806
327.324 39.8594 -0.302268
624.168 45.4784 0.350247
631.698 26.4035 -0.286549
708.165 13.1009 -0.258724
455.371 37.0751 -0.174337
89.8838 39.6931 -0.315013
641.473 58.0839 -0.245017
602.5 68.5423 0.110758
714.03 56.1139 0.113542
702.024 0.741109 -0.577728
285.884 28.7438 0.475955
592.572 6.18485 -0.234516
23.406 5.83743 0.645656
130.169 39.1325 -0.14751
499.508 16.0383 0.181559
700.123 42.4498 -0.590297
191.943 29.065 0.280317
43.0731 35.4687 0.290384
481.96 1.16065 0.123687
232.311 8.82232 -0.385017
672.483 53.3503 0.274773
694.212 41.851 0.24434
355.606 21.2997 -0.25874
160.125 27.8066 -0.447607
532.517 42.8142 -0.513841
375.042 16.6862 -0.451531
407.216 31.7179 -0.139653
372.577 5.68637 0.413954
531.035 13.9666 0.158411
716.656 23.4472 0.177016
78.0057 39.9994 0.414055
330.828 5.06365 -0.209716
542.994 9.62625 -0.439931
355.823 44.829 0.461232
23.8769 26.9253 -0.471492
29.1314 5.8295 0.297927
552.121 45.322 -0.559762
493.604 27.3316 -0.164955
25.3599 39.5036 0.417483
90.3527 31.0328 -0.253831
320.725 16.098 -0.282247
574.539 21.5777 -0.150483
466.43 41.8824 0.288077
666.648 9.28704 -0.468606
659.775 5.55206 -0.177368
382.721 38.2826 -0.104604
603.567 33.1334 0.129075
235.622 16.2347 0.535844
326.308 3.89598 0.459291
101.047 32.0664 -0.419357
113.656 25.2767 0.261732
531.32 44.3317 0.0756422
302.491 18.8347 0.459963
670.598 70.6657 0.0258833
633.226 73.4717 -0.12524
472.54 21.3072 -0.451112
693.58 19.3825 0.329066
422.361 25.271 0.225764
274.039 25.6657 -0.292056
630.337 59.7323 -0.303505
276.234 29.7616 -0.411026
554.894 16.2882 -0.20303
328.403 36.5579 0.209157
493.994 12.8356 0.554801
363.333 32.4538 0.0920073
425.532 17.3804 -0.129274
314.685 43.0092 0.432798
188.255 30.6245 -0.125996
694.68 69.0851 0.148288
715.023 26.1275 -0.426949
6.09885 12.6567 0.444581
426.574 23.0733 -0.384023
36.3929 23.7566 0.075541
373.352 32.0536 -0.440809
392.812 26.3815 -0.274409
72.8202 11.9381 -0.486527
50.3694 33.8846 0.465432
224.169 13.7236 0.426606
590.053 41.5837 0.513436
557.547 27.6861 -0.496392
72.8059 21.3502 -0.481973
651.746 75.4044 -0.404708
686.107 2.5199 0.649129
620.433 75.7396 -0.448402
635.2 3.92615 -0.62644
538.3 33.6132 0.454952
571.225 58.9239 0.351275
503.37 18.9867 -0.434175
717.508 4.359 0.485253
222.123 24.7576 0.117403
125.762 36.0639 -0.157033
245.467 6.68442 0.444162
92.5662 4.52261 0.273338
62.4492 10.0182 0.24167
273.946 37.1779 -0.344212
17.2442 26.6541 0.339166
542.199 22.7949 -0.40823
582.412 47.0316 0.259474
458.284 22.8635 -0.367035
716.92 85.1525 0.399727
403.633 8.66132 -0.119831
431.369 38.3668 0.233883
526.7 3.4448 -0.234271
22.0506 24.4096 0.41024
558.777 3.88077 0.612201
533.551 5.86278 0.453091
204.466 11.3479 0.477946
421.703 16.7264 -0.249502
309.362 6.32745 0.364881
385.862 18.962 -0.33409
659.389 53.9232 -0.101169
189.739 26.6249 0.467371
695.272 6.52747 -0.540091
659.422 49.6926 0.336043
380.909 10.673 0.187352
648.675 2.20648 -0.577744
579.759 27.3742 -0.450272
669.41 23.0342 -0.42267
427.199 46.9892 -0.281512
489.176 13.7568 0.461835
459.367 47.6814 -0.254978
442.47 8.66495 -0.14843
624.014 74.0284 0.257128
621.583 70.6605 0.311504
190.63 39.5508 0.345735
706.137 12.1797 -0.152955
572.731 57.8376 -0.0855025
11.0692 18.0442 0.278495
405.91 25.8388 0.340518
185.934 23.6981 -0.404628
91.5267 40.4975 0.233722
699.247 39.7935 -0.462175
615.744 79.5521 -0.222736
316.823 26.2166 0.334283
522.972 10.7464 0.446807
80.6687 45.2939 0.182277
247.372 27.3204 -0.491877
542.863 31.2312 0.337163
481.024 20.6165 -0.438921
261.512 0.922309 -0.355674
540.715 47.7061 -0.391678
524.712 46.5415 -0.511734
477.215 38.1341 -0.259521
492.396 2.28639 -0.672214
640.95 26.449 -0.471232
177.823 12.5739 -0.185024
494.087 40.2903 0.406067
551.02 52.3343 0.126441
71.4707 0.960458 0.283408
250.57 4.78284 0.221204
713.173 26.9815 -0.245285
707.365 14.9434 -0.536227
718.519 29.2766 -0.577556
302.003 8.59115 -0.235677
669.326 34.7135 -0.458421
405.131 45.1501 -0.33498
446.885 0.803426 -0.434945
609.407 69.601 -0.479527
25.9466 33.1464 -0.316365
329.247 42.6198 -0.581153
251.371 2.93171 0.385409
706.018 74.9223 0.184498
671.907 83.4263 -0.217087
285.912 11.3364 0.262148
625.645 58.2308 -0.0955646
544.077 2.64377 0.224777
531.507 8.9553 0.533808
95.6734 18.7493 -0.515822
301.852 1.03299 -0.230394
341.99 2.26945 -0.362333
13.6463 7.91423 0.558525
4.42019 31.5706 0.301629
159.937 19.1938 0.353892
66.9269 42.7983 -0.210406
65.2447 29.7289 -0.31917
421.596 14.8653 -0.454102
366.422 35.9435 -0.483796
690.308 54.9816 0.116972
18.9945 4.10273 -0.284395
69.1681 6.91065 0.140345
594.564 49.9605 0.161648
293.213 0.942916 0.379
363.419 16.4779 -0.112161
234.736 4.54586 -0.408374
605.913 43.272 -0.176624
449.47 8.04096 0.566482
669.302 31.9531 -0.329455
604.247 50.3476 -0.31515
623.707 43.4989 0.0768765
417.592 28.9241 0.506958
100.362 46.0162 0.322253
533.279 51.0421 -0.0688202
669.684 16.9664 0.327907
237.553 31.3931 -0.274388
30.7229 18.3968 0.148971
335.573 13.9909 0.508783
106.11 41.9603 0.466697
267.132 43.7639 -0.243308
424.242 2.20254 -0.239341
706.586 58.3702 -0.479033
631.112 1.4485 -0.58976
331.331 3.51037 0.566676
299.148 26.9319 -0.158441
458.749 44.3649 0.218802
80.4312 8.11347 0.415046
196.991 45.6462 0.377594
694.657 48.2965 0.380087
491.74 44.2644 -0.0657406
199.321 41.5605 -0.275033
160 43.5988 0.398002
716.933 52.1518 -0.47256
715.116 24.2308 -0.636187
584.095 4.56029 -0.627593
189.48 24.8761 -0.107635
540.539 35.1201 0.11268
542.585 35.1138 0.268999
408.122 5.67135 -0.130802
477.083 0.961329 0.440309
687.522 55.6299 -0.532514
83.7764 31.657 -0.227078
610.943 44.5375 -0.509103
273.188 15.4638 -0.424164
9.06254 2.39199 -0.325606
124.264 37.852 -0.203384
66.2025 22.8874 -0.481161
663.024 70.0237 0.343116
703.784 82.9808 -0.222909
184.576 29.0578 0.17472
712.608 20.6535 -0.498454
44.6469 37.4679 -0.247906
89.407 29.3329 0.160262
609.536 15.6393 0.437851
412.576 17.6505 -0.562848
511.775 17.301 -0.129759
238.247 29.5269 0.185584
598.863 5.56713 0.601982
719.187 24.5149 0.445081
28.7622 33.764 -0.294131
269.206 7.72476 0.199373
221.828 15.318 0.263711
1.06046 36.1578 0.150118
225.127 14.7799 -0.388042
211.127 10.9517 0.139643
213.861 26.4166 -0.269485
131.93 28.7709 0.14925
537.399 17.8142 -0.325224
165.814 14.4456 -0.353964
700.831 72.1044 -0.32604
173.131 3.82677 0.520588
46.8067 38.9853 -0.431302
677.96 65.5612 -0.42596
281.004 33.083 -0.407749
632.125 49.4383 0.459627
701.603 48.7239 -0.605673
300.068 9.23862 -0.102684
659.415 41.5865 0.417119
328.324 2.51357 -0.434328
414.813 24.1298 0.374416
626.917 39.1036 -0.463332
104.795 12.3977 0.519897
479.154 3.85733 -0.520263
672.788 30.2773 -0.221087
87.3711 7.98462 0.246642
280.867 14.9038 0.209582
422.432 12.2301 -0.238893
716.468 2.88364 0.604138
397.182 1.97652 -0.542577
175.852 39.4421 -0.293698
672.934 13.3648 -0.521253
127.55 37.1985 0.181077
262.971 32.5454 -0.382161
400.287 22.8127 0.196964
557.591 17.8921 -0.351131
386.497 9.90959 -0.544177
455.169 29.4676 -0.485602
691.425 67.8616 -0.454498
46.0513 11.7975 -0.176434
298.261 38.1843 -0.28342
380.215 28.4704 0.394016
408.715 21.0787 -0.282027
514.598 52.0628 0.35649
681.055 51.2562 0.228601
625.526 66.919 -0.356548
225.679 34.5199 -0.373432
13.091 33.7636 0.179339
620.273 72.133 -0.1413
503.217 45.4904 -0.445724
229.328 39.6731 0.140246
646.166 56.8034 -0.129346
149.802 9.37648 0.243377
366.113 21.74 0.276958
460.366 45.6999 -0.101327
412.657 19.4988 -0.217759
686.656 67.6841 0.356842
424.973 4.17732 0.621833
48.6503 26.1732 -0.323037
466.994 34.8725 0.382196
432.742 44.7841 0.362711
707.481 68.4495 0.247031
658.804 36.4317 -0.239833
531.854 22.8151 -0.170388
699.798 63.8395 -0.452154
292.8 2.26052 -0.464178
378.994 30.3112 0.523768
28.6344 40.9942 -0.294965
662.195 41.7138 -0.288076
588.045 22.5078 -0.472017
460.184 0.81002 0.551811
124.98 4.725 -0.354133
425.12 41.5699 0.118482
11.4263 0.893842 0.317513
716.35 8.19408 0.139113
370.318 40.4683 0.547045
[...]
POINT_DATA 13483
TENSORS Strain_matrix float
-0.0342316 0.0242259 0.189875 
-0.271923 0.0929155 -0.333149 
0.0153437 0.017396 0.240703 

-0.0875176 0.0295886 2.69409 
-0.0195127 0.017529 0.695011 
-0.00210324 0.00234107 0.168173 

-0.00992599 -0.00256599 -0.0166333 
0.00685831 0.0080919 0.0271664 
-4.94573e-05 -0.00131574 -0.00714933 

-0.0318292 0.0656724 0.458505 
0.0713418 0.0211813 -0.523091 
0.015171 -0.00183757 0.0675129 

-0.277554 -0.0327186 0.296341 
-0.0620326 0.12558 -0.01596 
-0.0565992 0.0108351 0.327675 

-0.0103655 -0.00198611 0.0128199 
0.00929473 -0.00141894 -0.00843597 
-0.00136602 0.00112522 0.0166027 

-0.0102167 -0.00841252 0.274673 
-0.0119386 0.00364528 0.063661 
-0.00306946 0.000473339 0.0912972 

-0.13104 -0.120931 0.137325 
0.181646 0.161472 0.0885862 
0.031952 0.0302223 0.243534 

-0.195263 0.0805236 0.386943 
-0.00926866 0.197904 -0.328683 
0.0200931 -0.00960463 0.0469894 

0.0146257 0.0471912 0.0935725 
-0.0908147 -0.00691245 -0.153357 
-0.077932 0.0308006 -0.0406154 

-0.00111477 0.0031904 -0.00059306 
-0.000645238 -0.000550044 -0.000517882 
-3.29205e-05 -0.000113464 0.00350796 

-0.0731324 0.0619717 -0.265379 
-0.0350939 0.0463802 -0.127364 
-0.0125895 -0.00448911 0.109607 

-0.0450275 -0.453873 0.676741 
0.114571 -0.00978542 1.02672 
-0.00281555 -0.00575521 -0.0482291 

0.0041668 0.000440015 -0.0122232 
0.0773884 -0.025673 -0.0283704 
0.00266985 0.0081759 -0.014993 

-0.0275994 -0.00908404 -1.34187 
0.0195956 0.0241291 0.59819 
0.00615316 -0.0120835 0.0658486 

-0.00807368 -0.0270632 -0.0516401 
0.00363421 -0.0125677 0.0733283 
0.00240311 -0.00500085 0.22966 

-0.00229269 0.00167947 -0.0029949 
0.000517105 -0.000478481 -0.000878666 
-0.000120012 -7.56358e-05 0.00273339 

-0.00567431 0.00344687 0.00201339 
-0.00154166 0.000930403 -0.0057458 
4.10117e-05 0.000292134 0.0092095 

-0.0237775 0.00692073 -0.106557 
-0.00119189 0.0124406 -0.0305553 
0.0252229 0.0196685 -0.0489916 

-0.032996 0.0170775 0.00933454 
0.0195338 0.0177215 -0.0925555 
-0.00288838 -0.00158951 0.043746 

-0.00801206 -0.0410721 -0.000246581 
0.0531979 0.00340661 0.0718436 
0.0345473 -0.0215714 0.195967 

-0.0786922 0.129178 1.41179 
-0.352985 0.209924 -0.689436 
-0.00500054 0.00830542 0.302293 

0.036764 0.0756599 0.000677889 
-0.098284 -0.0161827 -0.092189 
0.00173952 0.00172094 0.00571972 

-0.0405775 0.0548166 16.1408 
-0.120165 0.100139 -14.1877 
-0.00127072 0.00280779 -0.750335 

-0.090727 -0.000687201 -0.14687 
-0.0121232 0.0366653 -0.753851 
-0.0158809 -0.0439364 0.410854 

-0.0102087 -0.0693525 0.0214345 
0.0597253 0.00286777 -0.0370735 
0.0128235 0.00161044 0.0318455 

-0.115573 0.264735 1.42429 
-0.134749 0.257053 -0.0989932 
0.0244568 -0.00572205 -0.173491 

-0.489135 -0.0491452 -0.213108 
-0.0228627 0.303505 -1.1613 
-0.0145391 -0.0113403 0.0683951 

-0.00123628 -0.0104116 -0.82244 
-0.00481151 -0.000681859 1.1759 
0.00189051 0.00209737 0.0505769 

-0.190291 0.419977 1.16689 
-0.0783059 0.143346 0.507874 
-0.0255415 -0.00316806 -0.00789907 

-0.0368223 0.0312764 0.0076407 
-0.076639 -0.0105611 -0.0695359 
-0.0228207 0.0015851 0.410563 

-0.0503854 -0.0650873 0.225643 
0.0222245 0.0580251 -0.00389038 
-0.000799699 -0.000898443 0.0431694 

-0.000568716 -0.0368349 -0.0566399 
0.0266614 0.00424794 0.0165846 
-0.000561328 -8.83569e-05 -0.000315763 

-0.122423 0.0440653 -1.02786 
0.0123131 0.112581 -1.57034 
0.0062229 -0.0103772 -0.101474 

-0.0113695 0.0301203 0.00133759 
-0.00496617 0.0151171 -0.000569761 
-0.000312784 0.000156459 0.00715255 

-0.00702685 0.00134593 -0.040008 
0.00539465 0.00916296 -0.105856 
0.00351121 0.00108603 -0.0253751 

-0.0876407 -0.0505928 0.716923 
0.0188469 0.114793 -0.111195 
-0.0121316 0.00396191 -0.255454 

-0.0282197 -0.0254678 -0.122448 
-0.00941331 0.00492756 0.0401714 
0.000299851 -0.000167867 -0.00408428 

-0.187322 0.308255 0.14508 
0.122174 0.0898861 0.00212887 
-0.0223813 -0.040965 0.220705 

-0.00920484 -0.00705483 0.550398 
0.008765 0.00866544 0.18093 
0.000312339 0.000307602 0.0412727 

-0.0156753 -0.017544 0.335761 
0.0440849 -0.0116998 -0.21645 
0.00080429 0.0151022 0.105246 

-0.0394412 -0.0552613 -0.0937388 
0.0595631 0.0243528 0.302303 
-0.0456094 -0.0602629 0.511976 

0.0185574 0.0393198 0.022127 
-0.119051 0.00997347 -0.0539699 
-0.00691047 -0.00488353 -0.0304018 

-0.0018374 0.00113941 0.00665693 
-0.00222 0.00233379 0.0138076 
-0.000122273 -7.22816e-05 0.00182725 

0.00817522 0.00835447 0.0602825 
-0.0430903 -0.0149604 -0.00443388 
-0.00171596 0.00104285 0.00788463 

-0.0048754 -0.00543193 -0.000153169 
0.0027676 0.00210594 -0.000500767 
0.000193697 0.000580181 -0.00107275 

-0.0954595 -0.0852613 -0.168774 
0.0184748 0.139109 -0.245487 
0.0113927 0.0308996 -0.0570633 

0.010134 0.0152221 0.0163157 
0.0165577 -0.0079297 -0.0102565 
0.00123845 0.00264282 -0.00517027 

-0.605138 -0.268115 3.9828 
0.0391348 0.261746 -0.659557 
-0.00561472 0.0953479 -0.658445 

-0.213596 -0.0473108 -1.26736 
-0.0792007 0.264069 -0.966035 
-0.0148653 0.0246573 -0.0666872 

-0.00871861 0.0268599 0.0164561 
-0.0253779 0.0123879 -0.0055733 
-0.00417409 -0.00233884 0.00649578 

-0.0203697 0.00278234 0.0385188 
0.0383991 0.0195226 -0.0508281 
-0.00336672 0.00217034 0.000342032 

-0.0169398 0.071364 -0.0583152 
-0.0534986 0.0277393 -0.0254309 
-0.00102148 -0.00868589 0.0706092 

-0.028168 0.000537189 -0.0432135 
-0.000547548 -0.0257794 -0.0754123 
0.0688589 0.0850458 0.294598 

-0.058971 0.00364973 -0.205814 
0.0520821 -0.0317894 0.144234 
-0.0041668 -0.000880928 0.25626 

-0.396456 0.284295 0.275951 
-0.277194 0.5942 -6.97844 
-0.00374869 0.0400419 -0.752184 

-0.00702921 0.0312187 0.10622 
-0.109375 -0.0109285 0.209637 
-0.0249814 0.00294908 0.046423 

-0.00696993 0.00136866 0.018016 
0.00265728 0.00704601 -0.00730353 
0.00106298 0.00377192 -0.0308444 

-0.0101415 -0.000441898 0.0227372 
-0.00275879 0.00939809 0.0211233 
0.00187151 -0.00189256 -0.00997478 

-0.00628222 -0.0171664 -0.0367588 
0.00291175 0.00733043 -0.0225484 
-0.0136601 0.0150527 0.082754 

-0.78734 -0.150506 0.216833 
-1.02741 1.24272 3.96121 
-0.0244435 0.13862 1.17665 

-0.0752461 -0.137567 -0.0379137 
0.0604147 0.106702 0.54375 
0.0277782 -0.0113711 0.335215 

-0.00621618 0.017976 -0.00904382 
-0.00223852 -0.00490735 0.00902769 
0.000481137 0.00063179 0.0122712 

-0.223364 -0.269809 0.0658007 
-0.544752 -0.0572063 -0.0191719 
-0.0872021 0.040904 -0.139582 

0.0322415 -0.0140621 -0.0478699 
-0.00267013 -0.01586 -0.0465674 
-1.35598e-05 0.000550086 -0.00508074 

-0.0719246 0.0337225 0.690247 
0.00898132 0.046833 0.699121 
0.00186258 -0.00234964 0.0155804 

-0.0266171 0.0772455 0.0421091 
-0.0428097 0.0358256 -0.0439316 
-0.00830354 -0.00697359 -0.0253482 

0.061037 0.0634988 0.169841 
-0.200803 -0.050428 -0.618796 
0.0239136 -0.0164983 0.865624 

-0.0238828 -0.0106769 0.226402 
0.00263177 0.00299419 -0.279639 
-0.00607514 0.0059135 -0.0139602 

-0.17384 0.0174844 -0.0955525 
-0.0322249 -0.118836 -0.186723 
-0.000714404 0.0205467 0.236686 

-0.027224 -0.0851366 0.111896 
0.0233784 0.0471293 -0.227848 
0.00178647 -0.000891903 -0.0326986 

-0.0149683 0.0335921 -0.0228692 
-0.00852806 0.0163724 -0.0391107 
0.00114998 -0.000251186 0.0143885 

0.0197067 0.0806382 -0.236753 
0.00181974 -0.0596057 -1.00571 
0.00114373 -0.00323106 0.0228346 

-0.0766698 0.0560321 0.100775 
-0.0910557 0.0159983 0.0614735 
-0.00683602 -0.00985467 0.168736 

-0.00336372 0.00725525 0.00764487 
-0.00249888 0.000799952 -0.0101906 
-2.13868e-05 -1.88217e-07 0.0110696 

-0.0156288 0.0368757 0.0178785 
-0.0377458 0.0133009 -0.0859501 
-0.000519297 -0.00167683 -0.0142641 

-0.034985 0.0210271 0.00807009 
0.0401317 0.000288469 -0.0281472 
0.0552007 0.0182293 0.224045 

-0.0142129 -0.00111497 -0.0264134 
-0.0014078 0.00234297 -0.0215878 
-0.000139388 -0.00069584 0.0175123 

-0.00512326 -0.426032 -0.633888 
0.0425694 0.0363931 -0.353439 
-0.0281912 0.0568332 0.186368 

0.0606851 0.0644401 0.021904 
-0.00135373 0.0064542 -0.0809891 
0.00595591 0.00322305 -0.114267 

-0.0528739 -0.00548386 0.150927 
0.0376282 0.00919219 -0.000223238 
0.0148318 -0.00881569 0.0958625 

-0.0312485 -0.13554 -0.631078 
0.0587013 0.0918281 0.676813 
-0.0116861 -0.00784334 0.121039 

-0.0100303 -0.00503688 -0.0127803 
-0.00511646 0.000554546 0.0174598 
-0.000543378 -0.00116612 0.0404819 

0.00319305 0.12829 0.0225382 
-0.130592 0.0209657 0.0556912 
-0.00162275 0.000591245 -0.0205191 

-0.0193858 -0.163689 0.0540508 
0.146075 0.0942803 0.0823931 
-0.00281487 0.0168819 0.196774 

-0.01671 0.0307548 0.027969 
-0.0199346 0.00862415 0.0108894 
0.000663367 0.00287741 0.0199683 

-0.000721011 -2.87141 0.206161 
-1.46758e-05 -0.10852 0.0299342 
0.00279347 -0.168438 0.152519 

-0.00570344 0.00563874 0.00140777 
-0.00614107 -0.00450709 -0.00477064 
0.000526351 -2.88847e-05 0.0105955 

-0.107022 -0.160672 -0.129926 
0.135291 0.00534462 -0.00925227 
-0.00311827 0.00617338 0.138116 

-0.0153299 0.0427995 -22.4797 
-0.00429738 -0.0197927 3.24056 
-0.00180548 0.00129041 0.551426 

-0.00253034 -0.00681102 0.0143489 
0.0420429 0.020799 -0.000603199 
-0.0182288 0.0359506 0.0224536 

-0.0164526 0.0272855 0.00758 
-0.0454691 0.0104316 0.00459351 
0.000559206 -0.00177356 0.00223726 

-0.0841882 -0.140017 -0.520693 
0.121195 0.0137421 0.201839 
-0.000921105 -0.0035143 0.0992325 

0.000839829 0.000773801 0.00203956 
0.001184 -0.000602017 -0.00483116 
-0.00093745 8.47626e-05 0.00384867 

-0.00936418 0.0848312 -0.0543959 
-0.0593717 0.0283939 0.44715 
-0.0149103 0.00594214 0.209734 

-0.0927487 0.126648 -0.099226 
-0.0228427 -0.0865622 -0.169519 
-0.00607201 -0.0161971 0.201922 

-0.0150369 0.0260982 0.00688959 
-0.0428609 -0.0265295 -0.0157193 
-0.000655047 -0.000561537 0.0820687 

0.0241683 -0.00697231 0.105814 
-0.0407012 -0.00318983 0.00521474 
-0.00304629 -0.000762551 0.0103812 

0.017809 -0.123365 0.0941108 
-0.106855 -0.0159296 0.24688 
0.0163489 0.0236214 -0.0561959 

-0.00376753 -0.0222871 -0.0585946 
0.0319383 0.00163914 0.0140318 
-0.000892075 -0.000294041 -0.0227808 

0.00652589 0.0445777 0.436845 
-0.0571412 0.018535 -0.178962 
0.00199587 -0.00144988 0.0198745 

-0.169704 -0.0301938 2.39127 
0.271116 0.125169 -3.3148 
0.000698756 -0.00331649 -0.112253 

-0.0120272 0.0203597 0.339354 
-0.01047 0.0103419 0.195662 
-0.031608 0.0118768 -0.592952 

-0.0549558 0.0804947 -0.634896 
-0.142283 0.101652 -0.448836 
0.00476007 -0.0831346 0.491743 

-0.0722924 -0.0822285 0.377638 
0.0561957 0.0732536 -0.430231 
0.0140257 -0.0260405 -0.0291871 

-0.0665796 -0.099309 0.133465 
0.00410906 0.0238497 -0.156028 
-0.040474 0.026459 0.234216 

-0.000772603 -0.0224072 -0.00391296 
0.0171383 0.0133881 -0.00793598 
0.00270021 -0.00251548 0.00424082 

-0.00848082 -0.00634441 0.0426928 
3.51052e-05 -0.00354649 -0.0507125 
-0.00121921 0.000195521 0.0301488 

-0.007518 0.00100998 0.000673375 
0.00244008 0.000462884 0.000362309 
1.69166e-05 0.000356334 0.0111401 

-0.183959 0.207169 -0.0409273 
-0.105589 -0.0250459 -0.370168 
-0.0502096 -0.0250315 0.510752 

-0.0185394 -0.00701349 0.193317 
0.0258712 0.00347101 0.175005 
0.000255128 -0.0018002 -0.00222146 

-0.11448 0.0189469 -0.204972 
-0.00861909 0.145728 0.40488 
0.013543 0.0517241 -0.197494 

-0.00825818 0.0113071 0.00813399 
-0.0129702 0.00464228 -0.00158132 
0.00305191 0.00224283 -0.0141453 

-0.136372 -0.0112859 11.6987 
0.063194 0.0384957 23.1311 
-0.00328136 0.00416155 -1.0057 

-0.0198882 0.141111 -0.0145915 
-0.129202 0.0302276 -0.0106001 
-0.000491626 -0.00299684 0.00599843 

0.00116474 -0.00157332 0.23428 
-0.00871115 -0.00194105 -0.275402 
-0.00060853 -0.00129718 0.0313987 

-0.00287344 0.00395002 -0.0161066 
-0.00852409 -0.00296771 -0.0355356 
0.000178429 0.000573798 0.0153375 

-0.0154686 -0.0087345 -0.0134717 
0.016642 0.00116161 0.00126069 
-0.000702243 0.000304383 0.0134001 

0.0351052 0.195028 -0.157364 
-0.208989 -0.0228343 -0.146025 
0.0461005 -0.0136554 0.092555 

-0.0100303 -0.108164 0.138808 
0.189331 0.0436997 0.0251011 
-0.0208368 0.0383945 0.322491 

-0.157523 -0.0971315 -0.0811706 
0.133995 0.203254 -0.116772 
0.0181496 -0.0157828 -0.05613 

-0.00415599 0.0211276 0.116891 
-0.0799673 -0.0416055 0.00500916 
-0.00427718 0.00257954 0.0080703 

0.00290946 -0.00688909 -0.0136059 
-0.00422599 -0.00414543 0.0014591 
0.00302343 -0.000979497 0.0269126 

-0.622048 -0.560775 0.390977 
0.194867 0.439118 -1.11929 
-0.0397755 0.0390627 0.428281 

-0.0230412 0.0228163 0.473155 
0.00594062 0.0154226 1.09564 
0.00130906 -0.00121405 0.107575 

-0.00717285 0.00148798 -0.00424135 
-0.000467654 0.000885711 0.00387737 
-0.000228142 -0.00017745 0.00648132 

-0.0137897 -0.0203952 0.0424149 
0.0263792 0.00936678 -0.0541895 
-0.00238769 -0.0067198 -0.0345425 

-0.0842478 -0.0550122 -0.0514777 
0.000652739 0.0539464 0.604977 
0.00770814 0.00174314 0.0188739 

-0.425226 0.331765 1.12925 
0.187208 0.210321 0.309768 
0.0247383 0.108083 0.707392 

-0.00549291 0.0238295 -0.141044 
0.0142712 0.0215218 0.330994 
0.00273725 -0.00233335 0.0282498 

-0.0290146 0.100038 0.0155271 
-0.108274 0.0399729 -0.0684785 
0.0279947 -0.0417152 0.141399 

0.0351687 0.0379218 -0.0390629 
-0.16068 0.00449413 -0.218304 
0.00515509 -0.00675282 -0.0476124 

-0.241024 -0.0881008 -1.44566 
0.188974 0.171581 0.889332 
-0.0218962 0.0155791 0.59689 

-0.0972222 0.0107149 0.273306 
-0.00721783 0.086953 0.243691 
-0.00223701 -0.00269727 0.0779012 

-0.110176 0.288131 0.145269 
-0.0133904 0.000641235 -0.0907023 
0.000531422 -0.00416479 0.0220827 

-0.00249693 -0.00156325 -0.00440691 
-0.0130054 -0.000950604 -0.0234269 
-0.000550757 -0.00014167 0.00518388 

0.0750544 0.054891 -0.138625 
-0.273255 0.00778035 0.232057 
0.000697489 0.00731265 -0.0608706 

-0.00539066 0.0130074 -0.0202277 
-0.0134524 -0.0011586 0.0693041 
0.000490037 -3.30683e-05 -0.00363306 

-0.171113 0.0887913 0.381875 
0.174574 0.0905295 -0.837587 
0.0128798 -0.0177036 0.485214 

-0.0115592 -0.00804829 0.00176545 
0.00288388 -0.00123611 0.00624632 
-0.000926421 -0.000603979 0.0188657 

-0.0324826 0.00392087 0.0217778 
-0.0167663 -0.00387421 0.0864398 
-0.00297845 0.00542694 0.216522 

-0.00798695 -0.000355397 0.00129475 
0.00868636 -0.00177311 -0.00422194 
-5.67158e-05 -0.000894885 0.0154822 

0.00757897 -0.0131776 -0.0685032 
0.0167904 9.50448e-06 0.0691375 
-0.00438828 -0.0327388 -0.0149866 

-0.0107812 -0.00560327 -0.0963683 
0.00204282 0.00124025 -0.118001 
0.0015277 -0.00129909 0.0401161 

0.000193632 0.0068587 -0.00492547 
-0.00251979 0.00130424 -0.00263972 
0.00014064 0.000141939 0.000239428 

0.0138003 -0.00914814 -0.0169195 
0.00621585 -0.0220959 -0.0159175 
-0.000375316 -0.000744881 0.0224855 

-0.000165032 -0.0110959 -0.034531 
-0.0134687 -0.000673571 -0.0436708 
0.0470048 -0.0178296 0.0452144 

-0.0115487 -0.00496129 -0.212177 
0.00382825 -0.00310569 -0.189033 
0.00782705 0.00329902 0.0692393 

0.1502 -0.142903 0.331661 
0.0326407 -0.106378 -0.795983 
-0.00265942 -0.0203013 -0.036274 

0.00994181 0.0411852 -0.00842623 
-0.0267291 0.0088928 -0.0359334 
0.00103261 0.00134618 0.0084966 

-0.0174916 -0.0210803 0.222726 
0.0178993 -0.00421742 0.430536 
-0.00152526 -0.00204151 0.149803 

-0.0847637 0.00872681 0.108974 
0.0110472 0.134428 -0.0500542 
0.00338035 0.00253586 -0.0217193 

-0.00464139 -0.00544684 0.00148079 
-0.00104284 0.000618517 -0.0140231 
6.64379e-05 -0.000261831 -0.00435799 

-0.0304251 0.0564551 1.11706 
0.0261549 0.0347113 0.320656 
0.000614196 0.00460685 0.0554839 

-0.00386737 0.00393099 -0.0219155 
0.0156783 -0.00584321 0.0516019 
0.00347447 -0.00246345 0.0291464 

-0.0477453 -0.221934 -12.0308 
0.245172 0.030387 0.0417633 
5.25593e-05 0.00489706 -0.340464 

-0.228422 0.0947848 1.32256 
0.148387 0.132105 -2.39284 
0.00442233 -0.00701037 0.0115272 

-0.00265467 -0.0120096 -0.0646066 
-0.00169331 -0.000623221 0.0119498 
0.000417943 -0.000192892 -0.00305859 

-0.0677667 0.110819 -0.267832 
-0.0863619 0.0359382 -0.371979 
0.00149418 0.000606859 0.0515101 

-0.0592966 -0.00590167 -0.464212 
0.0625034 -0.00367413 -0.407274 
-0.00539111 -0.00435222 0.0859677 

0.156739 -0.0126348 0.284582 
-0.337289 -0.13643 0.368826 
-0.0329324 -0.0255328 -0.9385 

-0.664858 -0.370494 -0.0526962 
0.0792436 0.319415 -0.254725 
-0.00931213 -0.00598929 0.644777 

-0.109575 0.368745 0.707618 
0.282368 -0.0295988 -0.709566 
-0.0420051 0.0034106 0.125383 

-0.207594 -0.233433 -6.52551 
-0.450303 0.177608 0.622595 
0.0121928 0.0769682 -0.527229 

-0.0988807 0.0451421 -0.140581 
-0.0272089 0.0354236 -0.12189 
-0.0192444 -0.0044205 0.0415493 

-0.122129 -0.220657 -0.0524736 
0.376863 0.235555 -0.325608 
0.00755688 0.0257365 0.00754137 

0.00984343 0.00703928 0.0179178 
0.00801403 -0.0175267 -0.0305247 
-0.0022053 -0.00097481 6.99113e-05 

-0.000488986 -0.000206878 0.0861932 
0.00586259 0.0224611 0.00256291 
-0.00214005 0.0253223 0.032591 

-0.0132641 0.00135242 -0.318688 
0.0116728 -0.0031623 -0.247233 
-0.00131098 -0.00063891 0.100849 

-0.00605763 0.00289094 0.0177461 
-0.000488122 0.00134515 0.0124781 
2.827e-05 -0.000319704 0.0109095 

-0.00954545 -0.00382808 -0.00818253 
0.00691259 0.00237414 0.00519996 
-0.0011764 0.000544 0.00608699 

-0.00647109 0.0311015 -0.0551478 
-0.0312032 0.00381128 0.00168114 
-0.00107481 -0.000605441 0.02165 

-0.103572 -0.0237779 0.533174 
0.0526575 0.0564849 -0.0805795 
0.000932735 0.00259374 -0.00150174 

-0.0845971 -0.201092 1.01637 
0.211265 0.0987327 -0.307562 
0.0747667 -0.0351772 0.236339 

-0.637448 0.106554 1.32484 
-0.086401 0.413225 0.152077 
-0.0141936 -0.0779375 0.191488 

0.0178313 0.0501309 -0.300472 
-0.0205259 -0.00940614 0.384357 
-0.0260278 0.0236226 0.178033 

-0.0123379 -0.022959 -0.0220859 
0.0485215 -0.00621484 -0.00214333 
0.00186038 -0.00658179 0.0255556 

-0.00356093 -0.0106968 -0.00981531 
0.00144203 -0.00358458 -0.000955146 
0.000238848 -0.000257308 0.0133202 

-0.188202 -0.0490532 -0.732538 
0.346444 0.147218 -0.431616 
0.00232594 0.0346367 0.216871 

-0.0256881 -0.0125392 -0.124695 
-0.0241179 -0.00932229 -0.0499049 
0.00594334 0.00526368 0.00588306 

-0.145574 -0.0369977 0.115197 
-0.00758756 0.125734 -0.36055 
-0.00289789 -0.0107061 0.149991 

-0.27917 -0.0543886 -0.486733 
0.0766883 0.0482143 0.0124436 
0.00674388 -0.0147505 0.280548 

-0.130215 -0.0834643 -0.943224 
0.104645 0.0654558 -0.795866 
0.0207343 0.03889 0.268464 

-0.000606067 0.00267875 -0.00110306 
6.67154e-05 -0.00137768 -0.0283031 
-9.3268e-05 6.85897e-05 0.013548 

0.00853873 -0.0177065 0.00457075 
0.0322415 0.00159219 0.0224482 
0.000922785 -0.00279254 -0.00361305 

-0.0129171 -0.00918196 -0.0161031 
0.0131015 0.00397365 -0.00733548 
0.000799895 -0.00076695 0.0130434 

-0.0171113 0.0122731 -0.345573 
-0.0280478 0.0349821 0.0547182 
0.0962912 -0.0168479 0.46172 

0.00560422 -0.0566186 -0.0531528 
0.0053792 -0.00440172 -0.0384994 
-0.0154318 -0.000548357 0.0357169 

0.000996604 0.0115619 0.0418685 
-0.00329581 -0.00342691 0.0353836 
-0.000200375 0.000498906 0.00576318 

-0.00930092 -0.0212593 0.0326196 
-0.0279738 -0.0237471 -0.168443 
0.00373 0.00374511 -0.00650449 

-0.0487911 -0.151616 0.0903126 
0.0160499 0.0309896 -0.0112974 
-0.00224536 0.0117345 0.112604 

-0.0349233 0.0316321 0.0759725 
-0.000906826 0.024492 0.211372 
-0.000148908 0.00761108 0.0465523 

-0.0084876 -0.0155458 -0.345595 
-0.00564493 0.00916128 0.036806 
0.00117256 0.00195298 0.105586 

-0.279061 -0.0241321 -2.04221 
-0.27491 0.218187 0.593481 
0.00668908 -0.00323319 0.320157 

-0.0159824 -0.0529622 -0.0230087 
0.0440649 0.040648 -0.00037811 
0.00875536 0.00367514 -0.00465041 

-0.239575 -0.147214 0.00927843 
-0.0647374 0.404339 -0.952885 
0.0499774 0.080135 0.140219 

-0.0687156 0.0366488 0.073566 
-0.211935 -0.0276791 0.0439655 
-0.00609081 -0.00403414 0.106921 

-0.139211 -0.210832 0.194312 
0.0528677 0.0355993 0.558952 
-0.00205219 -0.00379458 0.0253193 

-0.0381225 0.029895 -0.0139639 
-0.0162613 0.0134306 0.02054 
-0.0016758 0.000233793 0.0562696 

0.0947883 0.0796116 -0.631595 
-0.278168 -0.11 1.67296 
-0.030017 0.0337175 0.551573 

0.0970641 -0.0297537 -0.280453 
-0.396923 -0.0167325 -0.110451 
-0.00869389 -0.0144111 0.0683973 
