# vtk DataFile Version 3.0
Output file generated by Yade's KinematicLocalisationAnalyser
ASCII
DATASET UNSTRUCTURED_GRID

POINTS 13483 float
659.233 27.5022 -0.410134
864.994 44.1971 0.456309
129.495 6.17173 -0.449305
914.454 4.25503 0.322645
536.813 7.56351 -0.303534
337.86 34.4322 0.349372
168.569 6.76559 0.405921
615.755 10.0021 0.138325
533.677 22.5242 0.14542
799.318 12.145 0.331185
226.233 8.73612 -0.124475
275.89 6.27743 -0.268344
713.803 28.4045 0.162879
689.836 13.8274 0.072986
147.848 16.7799 0.436165
238.144 33.9788 -0.397485
233.91 12.8045 -0.270143
309.973 9.43884 0.384949
365.642 32.2197 0.0459276
564.928 8.52883 0.34593
441.297 36.0728 0.101303
640.929 43.683 -0.272896
910.29 31.2495 -0.56888
769.898 40.8544 0.452992
493.025 16.0003 0.285405
258.687 43.6611 -0.123358
528.495 26.9584 -0.483992
634.948 18.9703 0.217669
48.5405 15.3508 -0.468657
794.106 30.7762 -0.310072
518.412 4.88428 0.315478
18.0656 22.7328 -0.291002
879.896 40.0194 0.280529
532.363 2.46569 0.485842
84.2894 43.5103 -0.100305
561.532 29.8444 -0.346583
571.691 16.5623 -0.404274
369.184 22.2274 -0.18099
575.097 25.101 -0.327619
376.531 32.6168 0.422171
259.01 14.4638 0.292324
466.61 35.069 0.0709529
743.939 6.95229 -0.134875
207.549 6.17776 0.369807
59.6992 6.85111 -0.125013
73.6398 8.70557 -0.26802
762.424 8.8091 0.479518
25.4139 11.5216 0.283375
663.865 43.2726 -0.353084
745.427 22.4877 0.325544
185.971 31.784 -0.294344
858.941 32.4559 -0.145126
37.7982 27.6968 0.109629
575.891 2.96368 0.314223
153.273 7.42147 -0.468033
643.851 33.0361 0.385722
542.944 25.8844 -0.114181
188.197 0.930821 -0.259651
35.3538 2.42878 0.281092
374.428 17.4949 0.278594
676.03 43.9619 0.133645
497.055 32.9471 -0.172958
429.037 1.03401 0.187176
774.992 7.56817 0.360582
28.4402 42.1041 0.235825
275.495 30.0513 -0.307666
799.414 7.3713 0.183842
736.809 43.2564 -0.372173
448.836 8.52297 -0.474002
616.608 3.48937 -0.342972
834.194 27.9894 0.386205
141.146 7.46668 0.281214
536.68 24.8971 -0.125106
513.863 14.6779 -0.136973
316.718 16.5469 -0.227875
22.3732 13.4019 0.224396
887.025 30.8737 0.354057
357.589 38.2887 -0.278917
742.873 19.5992 0.311958
762.119 12.5716 -0.263136
897.377 10.8743 -0.197692
500.734 33.9013 -0.169657
99.624 37.594 -0.274245
755.965 32.7411 -0.208302
710.018 36.8661 0.104439
918.617 35.9737 0.121704
889.709 0.799008 -0.476562
313.041 28.5016 0.439193
678.006 6.24045 -0.116105
26.2863 5.1703 0.455728
143.336 37.1252 0.137968
553.247 14.0764 0.199928
876.784 23.0489 -0.497857
210.898 28.0865 0.236227
47.9304 33.8589 0.268236
531.217 1.15958 0.11382
254.025 8.81328 -0.351045
837.528 36.9442 0.279083
863.855 24.7422 0.240844
389.095 20.3216 -0.266576
177.158 26.3761 -0.464001
595.456 37.3474 0.397056
409.551 15.1414 -0.42543
445.69 29.0647 -0.106033
407.596 4.4442 0.404688
593.222 10.8051 -0.0895539
919.365 11.1924 0.200193
86.6826 38.4451 0.389448
361.502 4.75659 -0.174895
608.844 9.34524 -0.324909
388.124 43.0845 0.441996
27.9652 23.9835 -0.466901
33.0094 5.67952 0.325659
617.687 31.6329 -0.398066
546.219 23.5361 0.139846
28.5119 36.3287 0.40572
100.488 30.0558 0.209252
350.746 15.7029 -0.302424
654.455 18.5817 0.131575
513.675 37.156 0.304673
819.308 7.53269 -0.36395
810.021 6.12744 -0.204268
417.636 36.5238 -0.0947296
696.746 24.3416 -0.109329
257.569 16.7971 0.472636
356.442 3.68123 0.462517
111.968 30.7295 -0.336469
125.866 23.6196 0.263633
590.393 37.7151 0.0745766
330.668 18.5213 0.476646
788.814 33.8559 -0.101082
741.48 42.6994 -0.123112
520.03 20.1936 -0.387061
867.996 8.26335 0.300567
463.699 22.9907 0.227662
299.474 23.8779 -0.295661
743.918 30.1941 -0.309934
301.59 27.9895 -0.389256
628.254 11.4417 -0.184975
358.791 35.0078 0.188262
547.133 11.3337 0.440895
396.701 30.8058 0.0940463
466.114 16.3658 -0.105682
344.193 41.134 0.386517
206.897 29.2316 -0.121294
870.535 41.7224 0.179077
914.779 11.5933 -0.293637
6.46492 11.8432 0.442707
470.306 21.9701 -0.415316
41.541 22.1771 0.080728
407.131 30.7733 -0.458476
427.899 24.3503 -0.25749
81.1432 11.757 -0.465553
56.326 32.4955 0.402065
245.086 13.2691 0.392739
677.646 37.7056 0.410292
630.761 20.1896 -0.419266
81.3962 20.5776 -0.462003
772.971 44.372 -0.404822
852.941 2.44164 0.407247
729.009 39.439 0.510291
769.848 2.31049 0.378942
599.994 26.0639 0.408553
642.555 43.8031 0.437612
557.205 17.5289 -0.410253
911.483 2.92754 0.300462
242.825 24.232 0.115818
138.577 34.1094 -0.189329
268.315 6.38252 0.36391
102.653 4.08538 0.252487
69.7825 9.94262 0.184089
299.217 35.3204 -0.307965
18.1153 24.4739 0.35448
606.381 18.8726 -0.387212
663.599 38.3465 0.222366
502.791 20.7801 -0.366461
900.616 37.2227 0.386569
441.617 8.45673 0.0844117
473.453 35.3831 -0.0704112
584.908 3.43354 -0.177562
25.0113 23.576 0.372197
631.083 4.26799 -0.366417
595.446 4.34187 -0.282778
224.373 11.263 0.477723
461.869 16.0723 -0.189374
338.265 6.28551 0.319112
421.107 18.6753 -0.33723
823.72 40.4748 0.118866
208.978 25.3836 0.432965
881.215 6.75929 -0.29891
822.653 36.6967 0.359133
416.518 10.079 -0.181879
796.228 2.42298 -0.372086
663.925 24.6416 -0.393245
827.831 17.6725 -0.399568
468.502 41.9954 -0.281699
540.921 12.2781 0.34007
506.504 43.3713 0.218455
484.622 8.5627 0.133169
732.511 38.5203 0.308999
730.272 34.6505 -0.362112
209.143 38.2319 0.343578
895.171 10.8469 -0.149701
645.175 44.3367 0.241791
12.317 16.7629 0.19011
442.96 24.8369 0.334031
204.152 22.6171 -0.385242
101.278 38.4836 0.202922
874.559 20.5221 -0.440759
725.338 42.7964 -0.231598
347.029 25.0663 0.359749
581.54 10.1381 0.318299
89.5849 43.3519 0.163678
269.448 25.5672 -0.460221
609.474 22.889 0.358837
530.119 18.2755 0.399321
285.919 0.890709 -0.342503
605.241 39.071 -0.353419
583.413 40.019 -0.446753
525.405 32.2761 0.378156
544.168 0.772156 -0.485813
781.644 17.6205 -0.390697
195.854 11.8251 -0.159168
545.859 35.5736 0.441803
618.576 38.6954 0.118165
79.3331 0.943427 0.274358
273.988 4.6897 0.16805
913.962 13.4083 0.220311
897.751 12.8293 -0.40064
921.694 15.8077 -0.483921
330.327 8.45232 -0.227129
835.171 21.6005 -0.396161
443.467 40.6449 -0.32015
488.982 0.815733 -0.397235
717.007 34.6411 -0.497421
29.7404 30.0319 -0.302165
359.822 40.5756 -0.467127
274.887 2.83169 0.308768
883.255 37.2657 0.24003
793.339 45.8417 0.227447
312.869 10.7933 0.18605
737.348 28.2843 -0.103518
610.479 2.65902 0.260098
593.116 6.39493 0.411283
105.553 17.8235 -0.464372
330.161 1.03509 -0.221969
374.005 2.25659 -0.367224
15.2702 7.59109 0.310872
4.72148 30.2059 0.242135
176.975 18.6111 0.364825
74.4259 40.9472 0.209454
72.908 28.3098 -0.326815
461.54 14.2283 -0.427528
399.872 34.3677 -0.468989
856.708 34.6828 0.144906
21.3716 3.94493 -0.283635
76.9091 6.75402 0.130061
688.822 36.8918 -0.154366
321.2 0.932766 0.317773
397.418 15.7328 -0.114596
256.937 4.57445 -0.395256
721.865 20.7588 -0.185331
492.334 8.32078 0.398309
838.327 19.5034 -0.360351
695.889 27.9525 -0.314111
741.779 17.3273 -0.117863
458.027 26.316 0.498188
111.252 43.7745 0.306284
594.225 41.1752 -0.0724781
825.015 13.1811 -0.164683
259.263 29.6903 -0.234804
35.2196 16.8306 0.162226
366.593 13.519 0.491019
117.595 39.6324 0.345159
291.826 41.6762 -0.189217
463.78 1.08213 0.163038
883.992 27.3909 -0.407841
761.735 0.705362 -0.520124
362.129 3.07315 0.473724
327.017 26.1329 -0.144283
505.163 40.1971 0.205649
89.1091 7.75515 0.450873
216.282 44.3458 0.377373
866.145 27.115 0.332685
540.791 38.0406 -0.0865124
218.513 40.6121 -0.249869
175.741 41.2593 -0.385281
921.669 32.078 -0.426842
917.598 11.1485 -0.465326
666.996 3.61779 -0.515566
207.804 23.9918 0.0836012
602.063 27.0386 0.102028
604.138 26.7448 0.254332
446.38 5.55494 -0.137505
525.922 0.934297 -0.277369
854.609 36.5505 -0.477643
92.8179 30.2519 -0.222492
727.834 17.8512 0.418002
299.37 15.351 -0.332308
10.818 2.33104 -0.335628
137.139 35.7132 -0.198552
73.3233 22.7046 -0.445355
781.37 35.6783 0.307587
889.3 42.4762 -0.175474
203.074 27.7467 0.186457
909.169 11.4518 -0.285674
49.2214 35.7331 -0.256684
99.3596 28.3958 0.152067
700.407 12.8177 0.347066
451.453 17.7017 -0.4776
568.285 16.4445 0.114249
259.997 27.8074 0.183026
685.681 4.45415 -0.416241
922.406 10.8736 0.326512
32.7444 31.105 -0.276786
294.757 7.68309 0.184793
242.663 14.8696 0.244301
1.11084 34.7789 0.146623
246.089 14.3409 -0.365392
231.294 10.8248 0.141576
234.392 25.7877 -0.271669
145.539 27.2004 0.136313
600.287 14.7276 -0.327856
182.969 13.9366 -0.33736
877.524 38.7876 -0.220253
190.456 3.74986 0.478362
51.8189 36.6764 -0.357231
830.862 46.1913 -0.426133
306.714 31.079 -0.387445
752.195 23.0145 0.425503
895.251 27.7728 -0.504203
328.327 9.07568 -0.112309
820.429 28.669 -0.319904
358.845 2.62427 -0.359954
454.103 23.5655 0.367385
748.546 15.7944 -0.41457
115.63 11.6609 0.399865
527.667 3.96555 -0.457791
842.315 17.2699 -0.214353
96.5312 7.72269 -0.176459
307.472 14.4984 0.199235
462.378 11.482 -0.198675
909.709 2.52054 0.382546
434.314 1.87616 -0.474893
193.594 38.0736 -0.268286
827.793 10.5881 -0.276411
140.522 35.3217 -0.161098
287.279 30.9808 -0.377891
437.28 21.36 0.201524
630.884 13.2032 -0.319718
422.781 9.81714 -0.438499
498.76 27.1945 -0.39727
866.239 43.8078 -0.361121
52.0617 10.8032 -0.107773
326.624 37.409 -0.255534
414.399 26.5749 -0.344306
447.304 20.7283 0.240209
571.33 43.6823 0.356611
847.07 34.4022 0.242435
736.002 34.0622 0.350201
246.66 33.6605 -0.380919
15.3501 30.6498 -0.156775
728.609 35.7342 -0.125444
557.199 40.4257 -0.149424
250.898 38.4849 0.0954409
760.213 30.2592 -0.119171
165.709 9.09826 0.195583
400.344 20.6067 0.275226
506.961 41.2542 -0.0989136
452.067 19.3296 0.193124
861.594 46.3112 -0.290949
465.264 3.34495 0.416979
54.5589 24.6654 -0.288048
514.028 30.9593 0.355528
475.157 41.2932 0.368246
880.756 32.9619 0.233978
817.396 27.5507 0.237119
593.533 18.0997 -0.169025
870.674 34.9531 0.408504
320.266 2.05055 -0.425827
413.274 28.6578 0.456387
31.8109 38.1053 -0.298096
823.614 29.3603 -0.148343
672.727 19.3396 -0.486064
506.186 0.777617 -0.482893
138.429 4.4515 0.282472
466.3 39.4432 -0.0944635
13.3785 0.914793 0.310801
908.542 5.24966 0.190916
[...]
POINT_DATA 13483
TENSORS Strain_matrix float
0.00119124 -0.0634904 0.0172104 
-0.000830293 0.0159776 0.0481623 
-0.00304703 -0.000326817 -0.0295359 

-0.0663833 -0.0685135 -3.91503 
-0.00785677 0.108246 5.18763 
0.000979047 -0.0170383 -0.0347197 

-0.0361929 0.00295958 0.682477 
-0.000629717 0.0158861 0.195452 
0.000100258 0.000824137 -0.0284393 

-0.0838237 0.0104813 -0.0968128 
-0.00904409 0.0294634 -0.0267331 
0.00496794 0.000841496 0.0786605 

-0.0574074 -0.0118518 0.0647269 
-0.0355274 0.0215808 0.0346424 
0.0450819 -0.0341554 0.24572 

-0.0170563 -0.00537211 0.0347371 
-0.0254328 -0.00612103 -0.0133092 
-0.00440331 0.0114647 0.121036 

-0.0389027 -0.000582759 -0.0132434 
-0.00854939 0.0105523 0.0026499 
0.00112372 -0.000140706 0.025796 

-0.0265266 0.0123706 -0.00406977 
0.00894528 0.00844009 0.0229903 
0.000246472 -0.000750462 0.0300571 

-0.0337768 -0.00813041 -0.0186008 
-0.00808899 0.0200538 0.0191666 
-0.00158216 -0.000167037 -0.0112825 

-0.067541 0.00729262 -0.0380853 
0.0463249 0.010366 0.0366268 
-0.000557044 -0.00164016 0.0413224 

-0.0288315 0.00110771 -0.027884 
0.00349199 0.00880004 0.0183551 
0.000806151 0.000147386 0.002365 

-0.0252992 -0.00536459 0.00749596 
0.00507671 0.00645815 0.0112706 
6.76599e-05 -0.000102165 0.000412033 

-0.0554426 0.0521344 -0.0133014 
0.0231353 -0.00783818 -0.0680775 
-0.0226545 0.0691066 0.377562 

-0.0274433 -0.0252517 -0.015187 
0.017657 0.00939577 -4.22621e-05 
-0.000216007 0.00164299 0.0255812 

-0.0277342 0.00969111 0.122444 
-0.00635753 0.0054178 0.0791672 
-0.0009443 0.00186695 -0.0161481 

-0.0188483 0.00370932 0.0667658 
-0.0289398 0.00567264 -0.261563 
0.00178788 -9.55528e-05 0.00228038 

-0.0250758 -0.00132655 0.0382821 
-0.00109432 0.00268703 -0.0421726 
0.000293958 0.000226801 0.0262226 

-0.0377476 -0.0149575 0.00486643 
0.00295052 0.0181627 -0.025099 
0.0438846 0.00363206 0.000323783 

-0.0421691 0.00905135 0.0315368 
-0.00370752 0.0105274 0.0146541 
0.0154049 0.0148609 0.0302238 

-0.0303845 0.00117021 0.0368967 
0.00956041 -0.000899773 0.101377 
-0.00647685 -0.0119288 -0.00254144 

-0.0588682 -0.0134998 0.155322 
0.0294289 0.0277789 0.0434413 
0.0312913 -0.0154076 0.180062 

-0.0223214 -0.0720132 0.298419 
-0.00752737 -0.0138653 -0.0217825 
0.00477128 0.0152139 0.23135 

-0.132639 0.01037 0.974818 
0.00654158 0.0591243 1.96944 
0.0137721 0.0010031 -0.568183 

-0.0555347 0.00997817 0.645831 
-0.048771 0.00258941 0.451935 
-0.00020729 -0.00205324 0.0323157 

-0.0190583 -0.0121444 -0.0527083 
0.00794104 0.0112749 -0.0808988 
-0.0042411 -0.00278912 0.0609669 

-0.0354771 0.0299435 -0.0551356 
-0.018654 0.0311218 -0.0194134 
-0.0272115 0.0172795 0.103342 

-0.0344056 -0.00941145 1.59899 
0.00554988 0.0131532 0.797278 
-0.0012011 -0.0018059 0.0651352 

-0.0805616 -0.0436155 0.0935429 
-0.0865625 0.0517219 0.0274874 
-0.0138232 -0.00960737 0.109831 

-0.0248283 -0.0126018 -0.0575528 
0.00129663 0.00891866 -0.544903 
-0.00262441 0.000509164 -0.0392818 

-0.0309291 0.0149157 -0.0258312 
-0.0221107 0.0059977 -0.00541821 
-0.000452907 0.00211303 0.0401761 

-0.0237945 0.0120803 0.00653065 
0.0034293 0.00872607 -0.0528004 
-0.000482958 0.000932913 0.0205121 

-0.0561054 -0.0663883 0.116963 
-0.0225799 0.0325032 0.0529117 
0.00126695 0.00101349 -0.00786482 

-0.0771651 -0.0244755 0.108253 
-0.0277513 0.0569375 0.391774 
0.0129233 -0.008894 0.0695856 

-0.0664357 0.0256581 -0.375416 
0.00351358 0.0371203 -0.544241 
-6.76337e-05 -0.00447506 0.127642 

0.0303663 -0.00723629 -0.0661937 
-0.0360278 -0.0321036 -0.17585 
-0.0115245 -0.00638343 -0.109627 

-0.0461545 -0.0269322 -0.00703824 
-0.00463505 0.0426632 0.103597 
-0.00381063 0.000705318 0.0141728 

-0.0232712 -0.00958016 -0.229277 
0.0127028 0.00786221 -0.028418 
0.00158955 4.18706e-05 0.0422056 

-0.0175706 -0.00227575 0.0606826 
-0.0437821 0.0473703 -0.133888 
-0.00390437 0.000136916 0.0191661 

-0.053171 -0.0102098 0.109254 
0.0177189 0.0347216 -0.0331157 
0.00048457 -0.000179347 0.00974225 

-0.0429817 -0.0341694 0.205801 
0.000102848 0.0426419 0.858022 
-0.00350544 0.0128865 1.28566 

-0.0454966 0.0189356 0.0256322 
-0.00198352 0.0109344 -0.0168975 
-0.00609431 -0.0235979 0.080878 

-0.047201 -0.0116544 -0.137511 
-0.00776091 0.0171265 0.00933399 
0.00603064 0.00140369 -0.0263254 

-0.0784663 -0.0112685 0.0629605 
-0.00946762 0.029496 0.0060527 
0.044049 0.0580479 0.159274 

-0.0215394 0.00243725 0.246609 
-0.00687676 0.00955839 0.173477 
0.00785572 -0.000755494 0.0460599 

-0.0331102 0.00696932 -0.017121 
-0.0171112 0.00797473 0.00779488 
-0.00170657 -0.000195142 0.0114543 

-0.0345271 0.0140811 0.0297819 
-0.0228761 0.0232634 -0.0673205 
-9.62632e-05 -0.00104136 0.0114755 

-0.0615515 0.0145621 1.15921 
-0.0165127 0.0301547 0.824236 
-0.030633 0.0017534 0.355913 

-0.0219614 -0.00331874 0.0173813 
0.00425435 0.0156038 0.000564058 
-0.00230632 -1.85746e-05 0.0137981 

-0.0478664 0.0217275 -0.202634 
-0.0137828 0.0530624 -0.138376 
-0.099565 -0.0829509 -0.100232 

-0.00482872 -0.0521647 -0.242986 
-0.00314429 0.0541716 0.711537 
0.00881899 -0.0075953 -0.0323451 

-0.020013 -0.00473291 0.605188 
0.0458282 0.0263565 -0.0639268 
-0.0565149 -0.0466502 0.62416 

-0.0555649 0.0200082 -0.196029 
-0.0504483 0.00904235 -0.143405 
-0.00552219 -0.00159761 0.0578999 

-0.0765164 -0.000571296 -0.0242525 
0.022987 0.0472137 -0.0767443 
0.000610746 -0.000109746 0.0347649 

-0.0402279 0.00983313 0.0640053 
-0.0171986 0.0107178 0.109363 
-0.00138695 0.000217041 0.045667 

-0.0357645 0.00920328 -0.126367 
-0.00389012 0.0137126 -0.151253 
-0.0032032 0.00416386 -0.0774508 

-0.0448343 0.00377121 -1.01093 
-0.0251763 0.0341753 0.945904 
-0.0119908 0.0466892 1.1197 

-0.0266976 0.00251776 -0.0391863 
0.0578448 0.0469018 0.219977 
0.00506117 0.00262272 0.0496603 

-0.0353379 0.0937521 0.0965883 
0.00303705 0.0207223 -0.00608932 
0.000269689 0.0159728 -0.00925246 

-0.0143743 -0.00147059 0.0606962 
-0.00679925 0.00575066 -0.0201885 
0.000226155 -0.000329205 0.0247155 

-0.0453471 -0.0306882 -0.314156 
-0.0215922 0.0303334 0.0645265 
0.00716214 -0.00782887 0.0917782 

-0.0162521 0.0596729 0.0672247 
0.0304449 0.0919013 -0.0951231 
-0.002596 -0.108119 0.333335 

-0.0410181 -0.0112276 -0.208521 
-0.00270393 0.0165234 -0.222373 
0.000210454 0.000108068 0.0302328 

-0.0331808 -0.0304728 -0.107601 
-0.00126328 -0.00663266 -0.0438098 
0.00157074 0.0358421 0.0731444 

-0.044802 0.0196479 -0.244656 
0.00287384 0.0166141 0.0499495 
0.00908005 -0.00674349 -0.0302575 

-0.0585321 -0.0327808 0.0109451 
0.0149977 0.058186 0.131908 
0.00786349 -0.0423025 0.112197 

-0.0738951 0.0541216 -0.113742 
-0.0335181 0.0267418 0.0574051 
0.0161341 -0.00429911 0.110172 

-0.0499793 0.0193004 0.00121869 
0.00820114 0.00669329 0.0148539 
-0.0013077 0.0017281 0.0730567 

-0.0827171 0.000229063 -0.204331 
-0.00748442 0.0514119 -0.159802 
-0.00791266 -0.0195241 0.125548 

-0.0387717 0.00112686 -0.154444 
-0.0103872 0.00879363 0.118901 
-0.000261055 -0.000227804 0.0760243 

-0.0468268 0.0139324 0.0147856 
-0.0125891 0.0119876 0.0191643 
-0.000419206 -0.00175013 0.05326 

-0.0348751 0.00665409 0.216652 
-0.0263884 0.0193593 -0.0731075 
-0.0203295 -0.00386164 0.00864157 

-0.0248393 -5.84542e-05 0.0161652 
-0.000997229 0.0113329 -0.0516263 
0.00155185 0.00164817 0.0426565 

-0.0236978 -0.0108169 -0.107168 
-0.0170867 0.0281219 -0.00443173 
-0.000583784 0.00111054 -0.0133991 

-0.0292742 -0.0145425 0.0333872 
-0.00908071 0.00843562 -0.0451374 
-0.00162461 -0.00029051 0.0593876 

-0.02589 0.0165838 0.0720032 
-0.00631415 0.01206 0.0487401 
6.38905e-05 0.000953119 0.0274895 

-0.033027 0.00741703 0.00579923 
0.0138186 0.0200635 0.0072493 
0.00306345 0.00175799 0.0161058 

-0.0637461 -0.0504632 -0.0260119 
0.134786 -0.0147669 0.0351708 
-0.00888808 -0.0174849 0.193721 

-0.0244157 0.0304462 -0.305043 
-0.029112 0.00816945 0.134445 
0.00729359 -0.0111534 0.0773876 

-0.0456004 -0.00414655 0.103839 
0.0705014 0.0668894 0.106057 
0.040539 -0.066336 0.393124 

-0.0566896 0.0266511 0.0550693 
-0.0263263 0.0224633 0.240636 
0.000403312 -0.00505396 0.106204 

-0.0686035 0.0247312 0.0635644 
-0.025028 0.0055479 0.0034581 
-0.00346383 -0.00149732 0.107557 

-0.0160511 0.0015407 -0.058529 
0.00624928 0.00323272 0.021306 
-0.0242519 -0.0133362 0.105209 

-0.00859979 0.00210669 0.0540613 
-0.00190843 -0.00691456 0.115883 
-0.00498853 0.000986943 0.0408266 

-0.0191073 0.0173432 -0.130631 
-0.047176 0.00810431 -0.0928037 
0.0337456 0.0478345 0.328585 

-0.0611136 -0.00597525 -0.0987646 
-0.0141371 0.0118995 -0.17035 
-0.0145026 0.0161012 0.2199 

-0.136494 0.0154787 -0.458275 
-0.00479112 0.0376137 0.0362394 
0.0033942 0.00697195 0.223788 

-0.100085 -0.100294 -0.48916 
0.00256967 0.276211 0.86365 
0.00156817 -0.0563743 0.0681742 

-0.0246316 -0.0120205 -0.0358277 
0.0173977 -0.000369546 -0.073621 
0.0119414 0.0114818 0.0784349 

-0.0461844 -0.00741022 -0.0625634 
-0.00308852 0.0176246 -0.0421574 
-0.0283445 0.0505206 0.222437 

-0.0358377 0.0147901 -0.18593 
0.00466917 0.013424 0.172813 
-0.000783558 0.00943654 -0.0829268 

-0.00647518 0.0354802 -0.0572101 
0.0105099 0.0176505 -0.0385478 
-0.00107486 0.00386006 0.0412498 

-0.0399187 0.00724668 0.0117944 
-0.00443946 0.0139347 0.00086707 
-0.000261027 -0.000673835 0.031789 

-0.0294146 0.0421225 0.166494 
0.0108597 0.00422478 1.09574 
0.00613019 0.00166215 0.247132 

-0.0555184 0.00878392 -0.00336325 
-0.00531858 0.0299357 0.0956243 
0.0195957 -0.0248166 0.0951055 

-0.0288057 0.0199893 0.164419 
-0.0167602 0.0131685 0.0787096 
-0.000758554 0.00660042 0.0595143 

-0.0498627 0.0397348 -0.0582972 
0.00473822 0.031518 -0.0186464 
0.000373385 -0.0155848 0.066219 

-0.031623 0.0282244 -0.073339 
-0.0214689 0.0119314 0.0103658 
-0.00103784 -0.00022934 0.0062129 

-0.0561233 0.0275226 0.0502819 
-0.0233784 0.0253014 0.0362415 
-0.000705577 0.00111283 0.0712375 

-0.0852678 -0.144893 -0.539587 
-0.00360979 0.102464 0.272236 
0.00111605 -0.00153299 0.0505645 

-0.0316184 -0.0159851 -0.15872 
0.00508349 0.0234446 -0.00714145 
0.000319676 0.000374758 0.00886916 

-0.0336207 -6.08246e-05 0.761589 
-0.0113082 0.0144011 1.51351 
-0.00737103 -0.0131708 0.383015 

-0.0362795 -0.0216398 0.0698686 
-0.00285812 0.0186402 -0.038907 
-0.00497694 -0.019614 0.256788 

-0.0590287 -0.0252682 -0.00814187 
0.0025083 0.0363569 0.246383 
0.00552787 0.0144519 0.184264 

-0.0701715 0.00161873 0.110613 
0.0227177 0.0145078 -0.0960269 
-0.0144295 -0.0132288 0.0303755 

-0.032377 -0.0139238 0.479484 
0.00258576 0.0204391 0.35992 
0.00496895 0.00208891 -0.210232 

-0.0431051 -0.00490909 -0.0123679 
-0.00726521 0.0238098 0.000883252 
-0.002559 0.00104115 -0.00358968 

-0.0927308 0.0210917 0.0398697 
0.0163642 0.0092868 0.0144365 
-0.00180329 0.00138004 0.171718 

-0.0368404 0.017825 -0.0422902 
-0.0236534 0.00359149 -0.581988 
-0.00699165 0.00274795 0.224116 

-0.0482925 0.0205457 0.0810449 
0.00601553 0.00964931 -0.0354602 
0.0025371 0.00206663 0.0449162 

-0.0364665 0.00510805 0.0570682 
-0.00476741 0.013022 -0.00224932 
-0.00325672 8.09296e-06 -0.00297185 

-0.0417159 0.0346542 -0.383443 
0.0105023 -0.00603433 -0.350198 
-0.00150111 0.00337082 0.0348881 

-0.0546177 -0.0202238 0.595874 
-0.00580128 0.0200132 -0.932868 
-7.57511e-05 -0.00146458 0.00440089 

-0.0228574 0.0109244 -0.00998167 
-0.00340467 0.00115996 -0.0113435 
-0.000237337 0.00063121 0.039887 

-0.0526976 -0.0170818 0.695777 
0.0437641 0.00903942 -0.129758 
-0.0100184 -0.0239758 0.00727996 

-0.0508666 0.0291136 0.0467592 
-0.0480065 0.0352161 -0.00860517 
-0.00127508 0.000764998 0.000478722 

-0.0294227 -0.0200061 -0.517034 
0.0239706 0.0183366 0.376431 
0.0169933 -0.0127578 -0.560562 

-0.0364056 -0.0532666 -0.0355136 
0.0265696 0.0487057 0.0664429 
0.0512546 -0.0642057 0.137601 

-0.0201973 0.0118944 0.00259936 
-2.11585e-05 0.00763096 0.0235364 
-0.00211765 0.000781509 0.013435 

-0.0367207 0.0106416 0.0754733 
0.0303863 0.0262678 0.12435 
0.000627581 -0.00124217 0.0591372 

-0.0366783 -0.00269658 -0.0524019 
0.00272866 0.00857317 0.0689953 
-0.0102316 0.0205075 0.587303 

-0.0649951 -0.0027572 0.00837365 
0.0382676 0.0140355 0.0800695 
-0.000210693 0.000685717 0.0776929 

-0.0612245 0.0252601 0.0410987 
-0.0295014 0.00822103 0.0094948 
-0.00098761 0.0026589 0.0838619 

-0.0404116 0.0224692 0.0712302 
-0.0158845 0.014528 0.00871743 
0.00388121 -0.040133 0.770051 

-0.0293556 -0.0617768 -0.10679 
0.0656364 0.0327158 -0.137471 
-0.000668465 0.00265074 0.0219122 

-0.0339505 0.0103805 -0.347376 
-0.00536757 0.0156921 0.258147 
0.00016998 0.00113681 0.0241822 

-0.032202 0.0162344 -0.038992 
-0.00382059 0.0139729 0.0735863 
-0.00102462 -0.000850793 0.0226735 

-0.0177909 -0.0019669 -0.0463094 
-0.0013686 0.0093874 -0.0486628 
-0.013211 -0.0322791 -0.098265 

-0.0510062 0.00873689 -0.154631 
-0.0365049 0.066582 0.189606 
-0.000279487 0.00350076 0.0143154 

-0.032542 -0.0162656 0.0730683 
0.0151433 0.0139911 9.54659e-06 
-0.00429283 -0.00300616 0.121696 

-0.0320543 -0.00110353 0.121083 
0.00572863 0.0118349 0.137743 
-0.00282334 -0.00350521 -0.0993739 

-0.0285021 0.0168093 0.067002 
-0.0340509 0.0151176 -0.00407191 
-0.00273569 -0.000556426 0.0510909 

-0.0685376 0.0209123 -0.175314 
0.00147477 0.0583628 0.068211 
0.0107053 0.0594278 0.236128 

-0.0266057 -0.00263381 -0.0820667 
0.0272768 0.0307852 0.486639 
-0.00348842 0.00547725 -0.0985638 

-0.0328685 0.108984 -0.0792695 
0.0348954 -0.0207136 -0.0837164 
0.000675417 -0.00545951 0.156549 

-0.0705317 0.021711 0.038509 
-0.0807467 0.0555455 -0.0842004 
0.00113941 -0.000813379 0.00671185 

-0.0211299 0.0114271 0.19829 
-0.00872414 0.0332227 0.0948637 
-0.00120223 0.00111109 -0.0101929 

-0.132306 0.0682568 0.0182185 
-0.0178195 0.0612523 0.547565 
-0.0220473 -0.0800671 0.566521 

-0.0289683 -0.00684448 -0.00623189 
-0.00828109 0.00757319 0.0245633 
-0.00356199 -0.00295859 0.0381871 

-0.0326072 -0.00948343 -0.0126839 
0.0052204 0.0223609 0.0176107 
0.000494413 0.000897216 0.0276911 

-0.0102255 -0.0363709 -0.0204266 
0.0114382 -0.00985617 0.0513149 
0.00743159 -0.00872651 0.157808 

-0.0541003 0.00678079 0.0429515 
0.0128515 0.0189001 0.112062 
0.00465859 -0.0182161 0.0467802 

-0.0324389 -0.0175106 -0.0108001 
0.0258041 0.0131349 -0.0271709 
0.0132054 0.0149486 0.066649 

-0.0362949 -0.0326142 0.0787628 
0.0175862 0.0105745 -0.0124934 
-0.00427149 -0.00167579 0.0699992 

-0.0374686 -0.0395493 -0.428643 
0.0188701 0.00203408 0.0373268 
-0.00678255 0.0389817 1.99377 

-0.0149691 0.00198827 0.00871391 
0.00405038 0.00600951 -0.0350656 
-0.00696087 0.00140802 0.0595434 

-0.0652413 0.0011287 0.0394805 
-0.00576103 0.0225605 0.113198 
-0.00100274 0.00405963 0.0792017 

-0.066501 -0.00375238 0.179402 
0.0266626 -0.0173924 0.0433641 
-0.003928 0.00720902 0.101922 

-0.0275879 0.0134441 -0.0488797 
-0.0168427 0.0139811 0.116768 
-0.00312436 -0.0018614 -0.0162481 

-0.027416 0.00922847 0.137174 
-0.00560246 0.0198145 0.204813 
-0.000985231 0.000298745 0.0606656 

-0.0929351 -0.0356887 0.0969696 
-0.0575013 0.0495059 -0.108977 
0.000148648 0.00073655 0.0187353 

-0.0305901 -0.0254705 2.0332 
-0.00929705 0.0223279 -0.346083 
0.00296388 5.99445e-05 -0.0240222 

-0.0515912 -0.0390171 0.0297199 
0.0191757 0.0441773 -0.0369572 
-0.000672283 -5.90739e-05 0.0258831 

-0.0391751 -0.0183429 -0.147057 
0.00809878 0.0232622 0.116179 
-0.00536093 0.000797423 -0.048396 

-0.0465808 2.04121e-05 0.25932 
0.00905557 0.0218171 -0.276907 
-0.020294 0.00854149 0.0407622 

-0.0241146 0.00269021 0.0403269 
0.0090358 0.000740544 0.00541481 
0.000178411 -0.000785262 0.0342851 

-0.044702 -0.00352345 -0.21135 
0.0137886 0.0184809 0.0241132 
0.000893603 0.0134048 0.397856 

-0.137843 0.0028208 0.760899 
0.0714259 0.130852 -0.749546 
0.0136798 -0.00929238 0.0192693 

-0.027187 -0.0144217 -0.406456 
-0.00218874 0.0136309 -0.218087 
0.00772458 -0.00411115 0.945164 

-0.0724976 -0.0119701 -0.0633002 
0.0146412 0.0943732 -0.713309 
-0.00141286 0.00731842 0.145462 

-0.0412962 0.015618 -0.0958625 
-0.00605885 0.0136689 0.0116458 
0.00183502 0.00470056 0.0515726 

-0.0562427 -0.00921643 -0.90584 
-0.00338333 0.000878099 -2.48027 
-0.00615026 -0.0125705 0.178779 

-0.0239925 0.00676913 0.0828187 
-0.0137614 0.00834621 0.0881051 
0.000207722 0.000451282 -0.00539043 

-0.0339495 -0.0570304 0.0932659 
0.0106654 0.0208723 0.120673 
-0.0123223 -0.00986434 -0.0476356 

-0.0396086 -0.027506 -4.04188 
-0.00387924 0.0121438 -2.30778 
0.000717327 -0.0141413 -1.41407 

-0.0820079 0.0435491 -0.466431 
-0.0349684 0.0619992 -0.496533 
-0.000575769 0.0200422 0.0763132 

-0.120606 -0.0308226 0.0855053 
0.0141551 -0.000779324 -0.00769263 
-0.000387142 0.00374772 0.126748 

-0.0144624 0.0155904 0.0122653 
-0.0172122 0.000113856 0.0112716 
-0.00104797 -0.000959976 0.0313788 

-0.0242141 0.00851559 -0.0483795 
0.00539476 -0.00387582 0.0124425 
0.00125598 0.0101118 0.032928 

-0.026723 0.0100049 0.0108872 
-0.00240269 0.00744477 0.0221504 
0.000263075 -0.000204503 0.000987608 

-0.0348543 0.0147541 0.0295431 
-0.00976517 0.0181199 0.10775 
0.00644169 0.00611973 0.0122034 

-0.0177729 0.00776777 0.0166445 
-0.00548346 0.00827021 -0.0729252 
-0.000429911 -0.000685928 0.00733221 

-0.0290728 0.00992146 -0.200782 
0.00044603 0.0192493 -0.110501 
0.00196427 -0.0177736 0.140627 

-0.0113374 -0.0550669 0.0488745 
-0.0138148 0.0220956 -0.141631 
6.41989e-05 0.00208275 0.0260586 

-0.0317966 -0.00714178 -0.0884293 
0.00507858 0.0132629 0.248901 
0.00123266 0.000114598 0.0446899 

-0.0380211 0.030287 -0.0481421 
-0.0176654 0.00987199 0.0334459 
0.00487227 -0.00982021 0.0840691 

-0.0324439 0.00124084 0.0768192 
-0.011277 0.0132611 0.0120117 
-0.000735802 0.000832356 0.0883813 

-0.0633173 -0.0212046 0.341327 
0.0237614 0.00551453 -0.361382 
-0.00182219 -0.00427127 0.0429472 

-0.0376264 -0.0112589 0.0340142 
-0.0214007 0.00901968 -0.022871 
0.00684337 0.00269142 0.0399944 

-0.0278473 -0.00729959 0.0153984 
-0.0281921 0.0190705 -0.27469 
0.0239407 -0.0360631 0.135983 

-0.0471938 0.0200846 -0.0460023 
-0.00624322 0.0160295 -0.0158701 
-0.00733819 -0.00588158 0.000987402 

-0.0173217 -0.0398861 -0.0324287 
0.0210166 0.00184871 -0.152112 
0.000925991 0.000804376 0.00625155 

-0.03251 0.0201236 0.103505 
-0.0521492 -0.0037988 -0.0201633 
-0.00248975 0.00320365 0.0518928 

-0.0194031 -0.0084854 0.0386452 
0.000432189 0.00781305 -0.0206801 
-0.00115129 -0.000715537 0.00485819 

-0.0333415 0.00078717 -0.0755104 
0.000841887 0.0117743 1.74609 
0.000526526 0.000946861 0.0141384 

-0.0976883 -0.0435075 0.102678 
0.0524939 0.0408062 -0.143506 
0.0658789 0.0616275 0.29474 

-0.0317864 -0.00521374 0.0362681 
0.00452123 0.0080902 0.0222183 
0.0034801 -0.00323552 -0.000370311 

-0.0328501 0.00452715 -0.0396551 
0.0040622 0.0172915 -0.12603 
-0.0182096 -0.0125897 -0.245498 

-0.0535427 0.0115137 0.0088281 
0.00266434 0.0129043 -0.0030461 
0.00094348 -0.0198345 0.119168 

-0.0503526 0.00773424 -0.306122 
-0.0216693 0.0278019 -0.276091 
0.000731051 -7.05794e-06 0.062448 

-0.0664398 -0.00570431 0.0783541 
0.0244538 0.0221921 -0.0931415 
0.00315627 0.00278724 0.0820771 

-0.0324446 0.0209821 0.09369 
-0.0137389 0.00398994 -0.030454 
0.00157959 0.000708949 0.0669276 

-0.0489751 -0.0463359 0.0224149 
0.0476918 0.0195403 -0.0051053 
-0.000164939 0.00118468 0.00936932 

-0.0525416 -0.0216948 -0.00324417 
0.0281679 -0.01103 -0.253838 
9.1548e-05 0.00607939 0.0840602 

-0.0511298 -0.0469331 -0.123056 
-0.00533813 0.0423719 0.28147 
0.000381647 -0.000826834 0.0308718 

-0.0391854 0.0132483 -0.217295 
-0.0249008 -0.00893839 0.193149 
0.00358324 -0.00359875 0.0823026 

-0.0523077 -0.0092423 -0.0357516 
-0.0148753 0.0844675 -0.271551 
0.0195565 0.0348907 0.0142356 

-0.0354507 0.0393713 0.000411982 
-0.0214414 0.0341706 0.0139483 
-0.0289791 -0.0391973 0.0747656 

-0.0537344 0.00207473 -0.241554 
-0.00901712 0.0141003 -0.0769832 
-0.0300457 -0.1259 -0.112401 

-0.0466102 -0.0177467 -0.0627802 
-0.00487614 0.0212841 0.0611216 
5.74729e-05 0.00165871 0.024948 

-0.0630658 0.0390038 0.0200486 
0.00206704 0.0330552 0.209916 