# vtk DataFile Version 3.0
Output file generated by Yade's KinematicLocalisationAnalyser
ASCII
DATASET UNSTRUCTURED_GRID

POINTS 13483 float
396.687 47.6587 0.517098
488.387 81.0795 -0.494954
101.463 6.03666 0.508243
510.609 11.4481 0.564802
350.018 11.9616 0.549232
235.033 59.5713 0.50337
127.479 8.87449 -0.479346
386.962 11.9238 0.267135
344.344 44.953 -0.2215
465.174 18.0274 -0.551322
170.098 9.01598 0.112705
204.673 8.50414 0.270559
422.255 65.0808 0.15516
418.65 26.53 -0.192827
114.068 22.931 0.470653
174.369 37.5037 0.403277
176.952 12.9289 -0.355647
226.578 15.8246 0.579894
258.942 49.0995 0.47273
359.713 14.7953 0.673017
318.281 69.9478 0.110138
386.344 77.6506 0.34995
507.639 57.4417 -0.497589
458.285 77.2982 -0.325268
327.318 21.4914 0.416978
186.128 55.6478 -0.138374
341.677 49.473 -0.517752
395.777 23.2913 -0.312805
37.3415 18.7673 -0.477284
459.156 62.6042 -0.388664
342.613 9.5197 0.555831
14.798 25.6829 0.326484
501.238 84.8513 0.252056
348.506 2.46856 0.676678
65.3114 48.8663 -0.113518
354.881 52.5381 -0.484764
366.27 26.7274 -0.495746
259.167 35.6614 0.211165
363.525 42.1986 -0.355679
265.867 55.5563 0.409335
193.537 18.1897 0.35426
337.812 81.9186 0.0713053
434.363 7.72011 0.220427
154.19 6.0877 0.46278
47.2496 7.20835 0.148274
56.788 9.73441 0.324294
448.101 7.19428 0.575884
20.1317 12.8207 -0.330888
398.891 91.7285 -0.346501
438.306 65.7017 0.365794
151.238 48.6956 0.291762
490.647 66.9293 -0.140441
27.2159 33.1667 0.113909
363.068 3.17359 -0.479323
118.337 10.2236 -0.555994
394.091 69.8535 0.453069
345.549 49.0906 0.143605
141.373 2.19955 -0.606233
27.6234 2.49925 -0.286403
265.674 26.3982 0.305062
411.357 99.7244 0.0568044
313.996 43.9945 -0.181345
284.664 1.01368 0.208131
451.177 16.499 -0.681746
21.2037 53.9549 0.23582
204.125 46.7828 -0.369935
463.558 12.716 -0.426138
428.276 96.5332 0.374232
298.627 10.2357 -0.648449
386.94 5.38735 0.659302
473.678 54.1546 0.493603
111.052 10.5568 0.457326
345.427 46.8915 -0.145475
336.854 24.7401 -0.139084
231.022 24.1496 -0.428972
17.7135 14.9237 0.371576
510.176 79.0058 0.383431
252.911 57.5563 -0.289241
443.758 58.3414 0.342948
447.123 11.6962 0.445993
504.278 27.9242 0.307372
316.938 47.1262 0.188274
80.1838 46.1751 -0.307477
446.218 84.3873 -0.260414
413.668 70.7348 -0.105786
508.56 68.9119 -0.106978
500.735 2.79872 -0.670251
232.059 37.3038 0.483128
425.926 10.6473 0.292861
21.2268 6.73048 -0.66205
118.162 44.6725 0.192923
355.699 27.729 0.238097
493.912 54.018 0.57185
156.769 38.7426 -0.243543
36.2268 41.6997 0.290328
349.074 1.28433 -0.181588
190.194 11.8058 -0.484024
469.355 65.8739 -0.361643
487.143 52.2327 0.220057
270.288 38.6921 0.27308
142.417 42.9234 0.43328
371.046 63.4892 -0.448185
283.466 39.7357 -0.546135
309.755 57.8162 0.0914527
286.729 26.6719 0.418308
373.615 12.8909 -0.203621
514.237 16.9918 -0.287702
68.2378 44.4351 -0.425303
261.776 6.58929 0.156167
382.326 10.5649 -0.493755
268.135 72.895 0.450945
21.7365 29.0622 0.481238
26.5238 6.31688 -0.340157
382.48 46.275 -0.489447
348.212 42.8205 0.187769
22.2901 47.6758 0.412857
82.1318 37.5497 0.232119
253.378 19.8463 0.352083
401.718 26.9116 -0.179971
326.591 54.2592 0.328233
475.421 8.27198 -0.672688
469.739 6.38042 0.285406
296.948 72.0269 0.0932709
415.287 49.3655 -0.119995
193.109 22.5385 0.586064
259.127 4.62377 0.490417
90.4486 38.7859 -0.336527
97.8762 30.0313 0.268789
368.103 67.3708 0.0806552
240.909 21.5882 0.50568
456.478 54.2479 0.140727
433.774 96.538 -0.107877
333.834 37.3277 -0.445973
489.846 14.9439 0.46494
304.076 30.9567 0.250415
217.289 34.1477 -0.332478
437.13 84.067 -0.336636
221.819 38.7978 0.40601
394.489 14.8785 -0.270019
252.816 54.093 0.20672
349.473 26.1713 0.570442
279.989 62.5938 0.0958111
308.795 19.2678 -0.225187
241.868 67.1553 0.438817
153.343 38.5949 0.121978
492.81 81.7245 0.175195
511.32 20.5305 -0.317054
5.46728 13.2576 0.422315
307.678 30.4653 -0.509467
32.1612 28.0893 -0.0798772
287.875 66.0535 -0.501673
293.678 56.3669 -0.268675
63.0992 12.5047 -0.482493
42.4921 37.4105 -0.519916
182.576 17.9118 0.466846
413.974 91.0889 0.376316
392.064 25.4449 -0.545267
65.725 23.5565 -0.486576
462.66 76.4108 0.447378
487 9.85705 -0.503486
424.338 87.3504 -0.44934
454.225 4.71128 0.513756
374.772 43.6157 0.49763
387.331 76.7986 -0.651705
356.924 33.4466 -0.409887
507.652 6.66591 0.256306
182.514 30.0437 0.125149
114.002 41.8888 0.191529
199.9 9.66292 -0.486733
79.8795 5.03322 0.292025
53.704 12.1382 -0.230664
221.766 46.2956 -0.404459
15.2625 27.3189 -0.390262
381.73 25.5997 0.495272
402.044 87.3869 -0.190512
324.152 32.4922 -0.416051
510.523 101.703 0.324597
292.411 11.0844 -0.200625
343.085 85.1227 0.384538
370.208 2.93253 -0.469098
18.6541 28.7125 -0.367924
397.018 5.64848 0.644266
376.041 5.75539 0.677005
168.638 11.4409 0.554401
305.795 17.3534 -0.243155
245.551 7.08339 0.399048
289.789 44.5895 -0.398583
487.478 91.4401 -0.00349096
155.664 33.9051 0.49272
498.383 15.592 -0.451391
485.317 86.2857 0.30437
290.249 35.5305 0.299271
461.202 3.96742 0.496321
396.515 40.4456 -0.532501
468.011 34.3487 -0.353488
337.027 88.8117 -0.263193
345.483 28.6267 0.526224
319.818 59.5052 -0.241413
323.663 11.7261 -0.127524
426.496 90.1937 0.255584
427.617 83.4941 0.369815
172.622 58.9811 -0.331783
502.872 29.6012 -0.12657
388.27 77.9516 0.290733
10.1846 18.7283 0.178965
295.065 49.6951 0.387464
151.83 32.2197 0.429816
81.7188 47.3424 -0.215712
494.156 45.2868 0.437404
419.3 86.8784 -0.246291
251.938 37.6959 0.375558
367.941 12.3082 0.690676
70.1794 49.7245 -0.214072
197.915 31.3927 -0.481816
378.155 31.9483 0.426466
340.225 38.7626 0.480765
211.679 0.85616 -0.520105
378.184 57.9749 -0.50253
367.82 74.7614 -0.467369
338.393 56.781 0.380844
354.684 2.15541 -0.756403
452.486 31.6857 -0.417495
146.595 15.8033 -0.280198
350.588 70.6244 -0.440446
374.066 72.2494 0.116057
61.8801 0.987156 0.358533
203.321 5.26901 0.233907
510.486 22.3026 0.272052
505.657 28.5268 -0.598449
513.973 25.8098 -0.607781
239.597 11.6374 -0.2517
476.444 40.6632 0.477592
316.045 75.9748 0.357988
325.934 1.49874 0.598305
419.263 74.4328 -0.552947
21.8234 39.416 -0.423785
255.786 59.1162 -0.454836
204.356 3.43067 0.647544
505.834 87.0317 -0.199266
459.496 99.5173 0.226759
228.74 16.9448 0.283463
434.136 73.2369 0.0875321
384.135 2.62332 0.37643
374.306 9.1352 0.599317
81.6602 20.8188 -0.529799
240.456 0.967788 0.297599
269.844 4.73952 0.528124
11.9408 8.58907 -0.645792
4.98961 33.6748 0.257127
133.839 23.3577 -0.350617
57.9936 44.4542 -0.27332
58.0791 31.2405 -0.345895
306.233 15.6315 -0.63111
281.379 67.1695 0.45905
488.226 67.518 0.128608
17.2806 4.76172 -0.279568
59.5479 7.66111 0.245258
403.363 55.265 -0.189385
233.435 2.29997 0.448611
275.374 35.9818 0.0772607
192.475 7.91223 0.407919
429.187 55.5138 0.168289
327.466 9.07991 0.686557
477.695 40.021 -0.466326
414.636 53.554 0.317253
448.857 49.3402 0.129159
299.749 34.8531 0.553265
90.5063 53.484 -0.305448
373.212 66.7398 0.0842248
475.48 18.6738 0.268019
193.137 43.0819 -0.254811
26.9965 19.0645 -0.17462
262.078 17.6454 0.641911
95.4896 48.4219 0.459918
218.559 54.7277 -0.209299
310.888 2.3952 -0.35027
494.793 58.6742 0.370988
449.386 0.806701 0.606964
262.543 3.71508 0.653428
239.281 32.2879 -0.17753
319.326 55.279 0.215251
69.4143 8.88017 0.619099
179.964 64.871 0.376945
487.776 58.2875 -0.34751
345.285 69.3006 -0.0742475
181.776 61.1919 -0.248005
141.545 58.6605 0.280224
511.27 64.2466 0.408763
512.738 19.4928 -0.606548
420.259 5.59743 -0.552067
153.7 31.7745 -0.10042
373.917 45.3746 0.133781
376.945 43.3161 0.269481
296.34 7.33965 -0.168817
345.243 0.862703 0.471804
485.229 69.3912 0.485491
75.5457 36.7814 0.240287
433.861 53.0766 -0.577859
217.732 20.5772 -0.355311
8.19684 2.65687 -0.478117
112.705 43.4845 -0.231756
59.0486 26.3446 0.484361
455.213 63.7174 0.312905
500.834 94.4229 0.178527
155.12 39.9202 0.175608
506.542 19.7812 0.549699
38.1401 43.0413 -0.270551
81.591 35.6688 -0.153136
424.504 33.094 -0.495781
300.345 19.0086 -0.652273
364.416 26.9302 0.1221
194.231 41.4099 0.197287
428.099 15.562 0.600219
515.644 15.9178 0.500063
24.0382 39.8343 -0.363134
218.443 9.42748 -0.211911
180.679 20.1789 -0.276301
1.10962 37.4036 0.174286
183.702 18.4918 -0.462046
174.577 11.2695 0.130024
173.136 28.0944 0.305927
118.737 34.7691 -0.121932
377.187 20.8616 -0.469796
137.076 16.7194 -0.509304
501.051 82.8316 0.235004
142.384 5.57369 0.616782
40.8146 43.2954 -0.388998
493.421 99.4013 -0.42659
227.484 41.0966 -0.383003
444.363 61.7378 0.496365
500.055 60.9236 -0.526044
237.907 12.7476 0.129097
465.607 52.3426 -0.352235
260.848 2.69845 0.497648
299.989 32.5415 0.525327
444.859 37.3949 -0.553972
90.7697 12.8059 -0.498058
345.971 4.439 0.566358
478.782 36.145 0.213849
75.0139 8.23863 -0.322265
223.765 20.635 -0.197583
307.681 13.1218 0.372382
508.508 8.32795 0.592573
289.327 1.88037 -0.602112
157.161 57.0081 0.034129
473.326 22.5892 -0.349413
115.871 42.8998 0.20315
211.279 43.9439 -0.373921
297.18 39.3709 -0.236545
396.736 16.5874 -0.4859
280.727 10.8017 -0.663437
320.12 39.2047 -0.449582
487.96 82.585 -0.404188
41.009 12.5558 0.155686
226.61 58.9363 0.253487
285.83 54.931 -0.414355
296.885 23.6324 -0.342229
368.581 86.7725 0.34346
478.817 65.0774 0.272096
432.409 85.7125 -0.357513
181.098 41.3952 0.432659
13.003 38.1162 -0.159911
425.839 84.1616 -0.167704
355.683 83.7978 -0.507688
182.595 47.8495 -0.140881
444.173 78.0181 0.119411
124.866 11.7119 -0.217511
279.525 46.5623 0.267871
319.964 57.2906 0.101996
300.969 22.6483 0.206006
485.055 80.9543 -0.347587
310.729 5.25135 0.494027
41.3954 30.3776 -0.348778
329.771 49.3746 0.496886
345.128 89.9752 -0.346975
506.939 80.8708 -0.23331
466.696 72.0648 0.222324
373.966 24.8805 0.146999
497.599 76.4252 -0.494927
233.573 3.56748 -0.588879
292.872 63.1845 0.435379
24.7349 50.2207 0.437681
461.72 60.5332 0.13988
408.448 31.7103 -0.565643
337.024 0.753406 0.535575
108.223 7.86866 -0.404877
336.066 85.5072 0.0986831
10.3855 0.898904 0.448487
507.124 12.5543 -0.130827
283.293 73.5343 -0.428771
423.891 14.741 0.469042
[...]
POINT_DATA 13483
TENSORS Strain_matrix float
-3.16858 0.430696 3.48108 
-0.936172 0.683504 1.77852 
-2.47568e-17 -1.58631e-17 1 

-0.381867 0.630928 -64.4368 
0.653272 1.00304 -14.2133 
-2.30641e-18 -1.62707e-17 1 

-0.331059 -0.0901775 -3.17552 
0.219915 0.111047 3.61114 
-1.53435e-18 4.98956e-18 1 

-1.69083 0.310815 -3.46825 
-0.738725 0.749389 -2.98778 
-1.39291e-17 -1.28607e-19 1 

-3.63373 -0.490398 -2.63971 
1.0681 0.740898 4.95375 
-1.09654e-17 2.79753e-17 1 

-0.567142 -0.595522 59.8809 
0.406803 0.349844 -42.3429 
-2.32676e-18 -4.88052e-18 1 

-0.50668 -0.109956 1.03255 
0.151723 0.331067 0.0886993 
-7.74655e-18 1.92362e-17 1 

-0.591254 -0.0447172 0.265534 
0.18088 0.0452782 -0.149022 
1.01894e-17 -2.5056e-19 1 

-0.662983 0.3109 -0.671677 
-0.130861 0.363375 0.961058 
1.50007e-17 -1.06914e-17 1 

-0.213237 0.591509 0.330248 
-0.993778 0.152178 -0.0901537 
-1.2882e-17 -8.38825e-18 1 

-0.265231 -0.104756 -0.0671278 
0.101565 0.03392 -0.377084 
1.29858e-17 -8.07158e-18 1 

-0.579886 0.136945 -0.786425 
0.0453433 0.274995 -0.67425 
-2.94319e-18 8.11312e-18 1 

-1.50286 -1.20032 0.0242675 
0.407958 0.66608 -1.11468 
1.42824e-18 8.71228e-18 1 

-0.132964 -1.27114 -1.15715 
0.710156 0.822443 -0.398884 
-8.70893e-18 -1.22309e-17 1 

-0.217443 -0.103038 0.15764 
0.176491 0.0599433 -1.46707 
-2.85273e-18 -2.93894e-18 1 

-0.052833 -0.547519 1.11992 
0.489013 0.150865 0.703659 
8.43699e-18 -5.11333e-19 1 

-0.171118 -0.0061303 0.254305 
-0.0884448 -0.132334 0.0548986 
-1.62201e-18 1.66965e-17 1 

-0.401865 0.0887665 -4.23604 
-0.0323309 -0.129273 -1.44412 
-1.34738e-17 1.71791e-17 1 

-0.116454 -0.246314 -23.6944 
0.0666707 0.0153679 17.0898 
2.70189e-18 7.63577e-19 1 

-0.986737 0.529564 -3.01714 
-0.701462 0.387223 1.61103 
-1.27098e-18 1.37403e-18 1 

-0.135009 -0.424475 -0.37508 
0.332858 0.110346 0.274418 
-4.90628e-18 -8.1304e-19 1 

-1.14801 0.092547 1.24618 
-0.165052 0.580966 0.985573 
-2.56545e-18 -2.90428e-18 1 

-1.68605 -1.09934 -7.21747 
0.132388 0.857237 -4.19955 
-9.8937e-19 -1.53023e-18 1 

-0.265099 0.580211 3.80931 
-0.691771 0.839002 1.70641 
-1.29059e-17 8.63093e-18 1 

-1.14461 -0.936896 0.142337 
0.115648 0.380387 0.594685 
-2.16016e-17 6.68452e-18 1 

-2.29684 2.91214 -14.1167 
-0.0135462 0.922018 -3.17818 
3.56904e-18 1.48391e-17 1 

-0.994224 0.207384 19.2575 
0.145641 0.40441 4.47013 
5.20694e-18 4.28313e-19 1 

-0.557771 -1.32523 0.648338 
0.561703 0.600288 -0.806034 
1.2728e-17 -1.30172e-18 1 

-0.556542 -0.213965 -0.66421 
0.131617 0.292318 -5.37791 
6.96626e-18 8.53079e-18 1 

-9.20564 1.74741 -9.49134 
1.62161 -0.745867 -3.52015 
-3.6802e-18 -1.87925e-18 1 

-1.29022 -0.595938 1.76083 
0.762872 0.512579 0.649227 
4.42209e-18 -5.07266e-18 1 

-0.462581 -0.290245 -0.180584 
-0.00534573 0.114396 0.770342 
-3.94351e-18 -2.19926e-18 1 

0.447713 -1.00848 -1.77038 
0.560118 0.295923 2.67429 
-4.50257e-18 -7.21444e-18 1 

-2.0442 -0.179587 -5.93555 
0.0737247 0.72182 2.13085 
4.13737e-18 -5.66587e-19 1 

-0.111132 -0.245136 -0.0366907 
0.254559 -0.0201035 0.179259 
-1.22974e-18 -2.5242e-18 1 

-0.80391 1.26563 -8.6419 
-0.866189 0.902665 -0.189154 
2.30026e-18 -3.8585e-18 1 

-1.09188 -0.163372 2.6779 
-0.114252 0.43318 0.323151 
-4.32022e-18 7.80797e-18 1 

-2.07258 0.906226 -0.9457 
0.101604 0.23141 0.0267511 
6.79637e-18 -2.74198e-18 1 

-1.06839 -0.478828 -3.21259 
0.150111 0.316698 -0.110326 
7.6416e-18 1.52393e-17 1 

-0.445794 -0.766337 -3.83897 
0.890119 0.778273 -0.485555 
-1.26978e-18 1.13978e-17 1 

-0.332851 -0.237269 0.827232 
0.149709 0.147152 -0.0670445 
9.33311e-18 -1.30533e-18 1 

-0.221136 -0.335814 0.740051 
0.495246 0.201835 0.26257 
1.08494e-18 2.39198e-18 1 

-1.32825 0.810901 -0.943487 
-1.5858 1.37397 -0.181614 
6.6704e-18 1.61331e-17 1 

-0.235125 0.0991538 0.330761 
-0.106137 -0.0693472 0.795845 
-5.54858e-18 -1.42085e-17 1 

-0.488141 -0.134706 0.345253 
0.235454 0.139415 0.149835 
-2.6119e-18 2.31217e-17 1 

-0.295307 -0.0612854 0.22444 
-0.0434093 0.0727232 -0.0788178 
-1.0567e-17 -5.40703e-18 1 

-0.568542 -0.414814 0.817514 
0.138461 0.120408 2.64812 
5.02744e-19 -1.21915e-17 1 

-0.0774558 -0.0231737 0.0138899 
-0.00830363 -0.189335 -0.032449 
-1.64328e-17 -9.60119e-18 1 

0.167023 -0.680904 0.00134863 
0.777522 0.258424 -0.0141808 
-1.86675e-17 -1.31613e-17 1 

-1.53931 -0.997067 9.05379 
-0.0130935 0.159372 -2.38431 
1.1853e-17 2.58653e-18 1 

-0.603732 0.0553347 -12.0092 
-0.0960635 0.0114105 -4.69058 
1.04977e-18 -8.34936e-18 1 

-1.09142 0.233464 5.1375 
0.584601 0.127628 -0.426668 
2.26979e-18 1.3345e-17 1 

-0.123562 -0.398863 -0.895344 
-0.154805 0.0335648 0.578287 
-7.0301e-18 4.5639e-18 1 

-0.74037 0.161995 0.237887 
-0.0551843 0.143275 -0.737022 
1.0713e-17 -2.47027e-17 1 

-0.82294 0.203175 1.03846 
0.0845264 0.399206 -2.47819 
-5.70525e-18 1.38677e-17 1 

-0.802971 0.505542 3.28003 
0.394523 0.786301 1.38815 
4.71174e-18 -2.26225e-18 1 

-1.47299 -0.406915 -6.66771 
0.220903 0.643603 1.68138 
-1.55004e-17 -6.57927e-19 1 

-0.575464 -0.017444 -6.18902 
0.0183044 0.145054 5.44605 
7.89555e-19 -3.22617e-18 1 

-0.109897 0.140219 0.0869894 
-0.119137 -0.110484 -0.0619121 
-5.17677e-18 1.28064e-17 1 

-0.741705 -1.00652 1.7982 
0.49373 0.685218 0.766604 
2.50541e-18 -8.18207e-18 1 

-2.21738 3.34964 18.2554 
0.00763161 0.991682 1.06145 
3.76925e-19 -5.05472e-18 1 

-0.230996 -0.207462 0.205735 
0.521909 0.276901 0.338202 
-5.04702e-18 -1.48584e-17 1 

-0.111434 -0.282993 -0.402692 
-0.0282864 -0.132075 -0.0623238 
-2.22733e-17 6.16966e-18 1 

-0.791902 -0.74555 -9.00371 
0.474862 0.45445 21.2229 
1.41659e-18 7.69189e-18 1 

-0.108123 -0.0541887 0.396143 
0.192836 -0.0923159 -0.670624 
-5.21391e-18 2.41736e-17 1 

-0.602986 0.0103494 2.52948 
0.00326263 0.221149 2.09167 
-5.24059e-18 2.25274e-19 1 

-1.14264 0.259088 0.0667334 
-1.46152 0.502571 0.0102077 
1.14268e-17 1.53383e-17 1 

-2.05544 3.33456 22.403 
0.218793 0.399744 3.12953 
1.59882e-18 6.29697e-18 1 

-0.411318 -0.0538666 0.94794 
-0.236153 -0.0339497 -0.489631 
1.38447e-17 1.16721e-17 1 

-0.746708 0.140071 -0.142959 
0.0456096 -0.0413208 1.88957 
-7.33151e-18 1.66625e-18 1 

-1.49349 -1.73433 -2.31583 
-0.0438575 0.528895 -0.84769 
-6.10991e-18 1.29099e-17 1 

-0.508424 -0.0873299 -0.224351 
-0.259938 0.0498615 0.160262 
-1.01564e-17 -1.01265e-17 1 

-1.20482 -1.10382 -8.78536 
-0.163282 0.411892 0.30207 
-6.85478e-18 -6.05771e-18 1 

-1.78157 -3.01227 2.16358 
0.411516 0.97503 -0.687331 
9.06257e-18 1.12965e-17 1 

-0.480493 -0.178635 1.87587 
0.0653145 0.136284 4.47034 
-4.42811e-18 1.08532e-18 1 

-0.222711 0.0629862 0.0805722 
-0.119981 -0.0880282 0.0302539 
1.48973e-17 -7.044e-19 1 

-5.88859 5.33237 7.6817 
-1.53335 1.78741 1.49793 
-4.33122e-18 1.16009e-17 1 

0.0219778 0.245155 -0.477619 
-0.379953 -0.0143118 -0.281775 
-7.78262e-18 -1.70858e-17 1 

-0.998417 -2.94981 -1.56056 
-0.323963 -0.429759 -1.1102 
-1.48107e-17 -5.54206e-18 1 

-1.19867 -1.66103 2.25553 
1.0212 1.27994 0.973314 
-6.73768e-18 -2.03555e-19 1 

-0.30322 0.622996 0.140713 
-0.846263 0.433974 0.0054124 
-1.7278e-17 6.82025e-18 1 

-0.172598 -0.320258 0.86986 
0.242155 0.045505 -1.14426 
1.14005e-18 6.94584e-18 1 

-0.0851289 -0.172315 0.030479 
0.234089 -0.00380447 0.42353 
4.07056e-18 7.8604e-19 1 

-0.351733 0.821526 -0.932731 
-0.493468 0.404276 0.0201741 
4.6327e-18 -5.77733e-19 1 

0.498065 -0.994775 -0.0336413 
0.872627 0.577813 -0.582042 
-2.55835e-18 1.16895e-17 1 

-0.335213 0.0684256 -0.223809 
-0.119722 0.229271 0.0690892 
3.31981e-18 2.41441e-19 1 

-1.90223 0.175244 7.65551 
-0.00492944 0.855793 -0.528755 
4.07846e-18 -7.90975e-18 1 

-0.472468 1.08666 -1.23767 
-0.163428 0.309677 0.355688 
1.13108e-17 6.49544e-18 1 

-1.38397 -0.322968 -2.37907 
0.901297 0.492209 0.384623 
1.50785e-17 9.95027e-18 1 

-0.31884 0.0075111 3.64344 
-0.0265236 0.0560261 12.031 
-3.14238e-18 -1.07183e-17 1 

-0.180136 -0.199606 -0.037048 
-0.02966 -0.0556461 0.0695926 
8.41735e-18 -1.15739e-17 1 

-0.58698 0.216048 -1.05319 
0.0745907 0.196944 0.688744 
5.39258e-18 1.71174e-17 1 

-0.82239 0.316596 -31.3883 
-0.109324 0.15693 0.729217 
-2.64444e-18 1.32697e-17 1 

-2.19598 0.675636 5.32781 
-1.36882 0.84855 4.82963 
1.26134e-17 4.11305e-19 1 

-0.00181482 0.418145 -0.117914 
-0.374809 0.0858588 0.0944632 
6.94805e-18 -1.06493e-17 1 

-1.70064 -0.0493289 -0.722792 
0.04067 0.815181 -0.954631 
-2.43285e-17 2.40125e-17 1 

-0.406084 -0.090473 -2.38403 
0.0754177 0.0424607 1.01195 
6.19004e-18 6.36198e-18 1 

-0.227997 0.0118645 -0.536188 
-0.193178 -0.0290002 -0.423715 
9.5917e-18 -4.79585e-18 1 

-1.60855 -0.0144806 2.3417 
0.279842 0.315314 -0.599567 
-2.2869e-18 2.57276e-18 1 

-0.882386 -0.305439 -0.144339 
0.836802 0.298205 0.701716 
-1.15233e-17 -8.00232e-18 1 

-0.626295 -0.252095 -19.0765 
0.24848 0.509596 -6.71243 
2.77077e-18 -7.41393e-18 1 

-0.788229 0.00822494 -16.2888 
-0.591004 0.652092 7.76705 
-1.8328e-18 7.63094e-19 1 

-1.24905 -0.682496 34.2024 
-0.131906 0.370334 21.1936 
-3.28598e-18 -9.59215e-18 1 

-2.042 12.9205 -2.43624 
-2.17788 4.49298 -3.30247 
7.57467e-19 4.71066e-18 1 

-2.25332 1.46701 -2.03721 
-0.71411 1.04134 -2.5383 
-4.94584e-18 9.40748e-18 1 

-0.551549 -0.462753 -0.0629449 
0.428906 0.190922 0.308716 
-2.06861e-17 -9.89334e-18 1 

-1.60543 -0.0813429 1.07544 
-1.10123 0.491805 0.682255 
-6.10024e-18 1.19304e-17 1 

-0.189412 -0.171582 0.365469 
0.0879492 0.0299323 0.875645 
-2.88911e-18 -1.06536e-17 1 

-0.49548 -0.366528 -0.527202 
0.135217 0.284411 0.172682 
-9.07782e-18 4.34494e-18 1 

-0.722934 0.168585 -1.57034 
-0.402893 0.0759118 -2.37874 
-1.485e-18 -1.66599e-17 1 

-0.475409 0.303673 3.94239 
0.271663 0.663649 0.564873 
-3.43147e-18 -5.84136e-18 1 

-0.43162 -0.0484924 2.51843 
0.106554 0.289797 1.08118 
-2.73086e-17 9.14407e-19 1 

-0.407325 0.34369 -0.424994 
-0.217516 0.148346 -0.255288 
3.65392e-18 -3.6052e-18 1 

-0.234285 0.219524 -2.56057 
-0.583787 0.134167 0.769382 
1.66045e-17 2.64592e-18 1 

-1.74801 0.311173 -3.48891 
0.317253 0.418259 1.33337 
-2.46959e-19 1.313e-17 1 

-0.19149 -0.164369 -4.64897 
0.0717521 0.085894 -2.65294 
-2.92378e-18 8.81543e-19 1 

-0.402636 -0.235703 -0.399945 
0.111756 0.131461 0.0974954 
2.2092e-18 1.18984e-17 1 

-0.9697 0.117864 -0.232026 
-0.0269129 0.283038 0.565842 
2.87194e-18 -5.34775e-18 1 

-1.57838 -2.31785 1.38954 
0.365317 0.495073 -1.15622 
1.86687e-17 0 1 

-0.00823304 -0.505414 -0.219785 
0.478671 0.0945275 0.0620418 
2.07742e-18 1.57404e-17 1 

-0.807084 -0.637047 4.10264 
0.547347 0.373495 -0.491198 
7.03789e-18 -3.90123e-18 1 

-0.410232 -0.0347318 -0.0991172 
-0.528013 -0.124029 -0.236938 
6.45735e-18 1.12148e-17 1 

-0.137804 0.0276749 0.411132 
-0.0679491 0.0413306 0.0806452 
1.7746e-18 7.34316e-19 1 

-0.283743 -0.722598 -1.2815 
0.952931 0.661201 0.447614 
-3.07745e-18 -8.85298e-18 1 

-0.592673 -0.0720278 -2.92928 
-0.040367 0.369764 1.32853 
-1.15686e-17 -6.74833e-18 1 

-0.51498 -0.248642 -0.589915 
0.0965728 0.0457862 -0.173516 
1.32663e-17 1.39021e-17 1 

-0.195829 0.138528 0.163532 
-0.109231 -0.033697 -0.0988407 
3.84115e-18 -1.17223e-18 1 

-0.668382 0.881184 0.472061 
0.14925 0.19903 1.36985 
-6.78968e-19 1.48138e-17 1 

0.352217 0.820627 0.234879 
-0.881005 0.350149 -0.0525942 
-4.28326e-18 -4.5025e-18 1 

-0.32406 0.149833 -0.780344 
0.00142361 -0.0105433 -0.176184 
3.65689e-18 1.01108e-17 1 

0.568297 -0.0669739 -0.145035 
-0.861868 -0.607913 0.395828 
-9.49964e-18 2.79712e-18 1 

0.071532 -0.149035 0.227091 
0.159249 -0.0272107 -0.102398 
3.53971e-19 -7.19741e-18 1 

-0.869812 0.425251 0.274411 
0.137961 0.22674 -0.995981 
1.07404e-17 -3.43692e-18 1 

-2.29534 0.869663 1.14213 
-1.764 1.17681 -0.267332 
9.73321e-18 6.40968e-18 1 

-1.86256 0.340515 2.64493 
-0.196133 0.524804 -1.68727 
-2.12959e-18 1.69368e-18 1 

-0.617543 0.0579344 3.0911 
-0.127659 0.334683 0.635298 
-1.49478e-18 -1.01573e-18 1 

-1.35951 -0.203507 -2.55151 
0.384279 0.544618 1.15641 
-8.31676e-19 -6.91331e-18 1 

-0.105054 0.733787 -3.69767 
-0.166253 0.14276 -3.11585 
4.40599e-18 -4.67646e-18 1 

-0.556233 -0.15204 -0.434742 
0.33224 0.0889218 0.100525 
8.95245e-18 2.17223e-17 1 

-0.0588779 0.426722 0.122747 
-0.399303 0.0381928 0.28515 
-1.46544e-17 -8.0386e-18 1 

-0.287583 0.29671 -0.952539 
-0.296941 0.00225779 0.212612 
2.78562e-17 -1.29369e-17 1 

-0.0945102 -0.263639 -0.00157136 
0.287931 0.0763915 0.0710665 
-4.28091e-18 2.01203e-18 1 

-0.235073 -0.866219 1.72801 
0.585066 0.416579 -0.0451506 
5.71899e-18 -5.10924e-19 1 

-0.41992 -0.315016 31.9975 
-0.155951 0.0216224 -23.1621 
4.14113e-18 -5.01183e-18 1 

-0.943943 1.72779 1.49246 
-0.374056 1.05928 -1.21559 
1.71359e-18 1.8457e-17 1 

-0.0271109 -0.932116 0.66412 
0.490894 0.314972 -0.277705 
3.85551e-18 3.85551e-18 1 

-0.500123 0.162722 0.720883 
-0.142139 0.0153721 -0.162129 
-1.08394e-17 7.11006e-18 1 

-0.232957 -0.0359402 -0.370148 
0.065058 -0.0555359 -0.332796 
-7.99321e-18 2.28951e-17 1 

-0.866436 -0.267643 -8.45689 
-0.105653 0.239011 -4.68204 
-1.60372e-17 1.42967e-18 1 

-0.140967 -0.0864398 -0.261146 
-0.176182 0.110796 -0.463266 
-6.71389e-18 -1.25139e-17 1 

-0.668911 0.00680469 4.34975 
0.191638 0.203019 -0.425676 
6.68172e-18 1.83021e-17 1 

-1.83244 1.44308 -2.83217 
-0.163359 0.428746 0.31357 
-6.03504e-18 -3.96356e-18 1 

-0.288864 -0.0622434 0.416339 
-0.00152396 0.0188111 -0.685443 
6.54732e-18 -3.97974e-18 1 

-0.243327 0.272849 -4.16779 
-0.24409 0.096669 4.29737 
7.83994e-19 1.78495e-18 1 

-0.255696 0.120668 -1.22553 
-0.124067 0.0512872 0.775463 
4.30703e-19 -1.31434e-17 1 

-0.674949 -0.920765 -1.52261 
-0.463188 -0.165463 -1.59645 
1.01157e-17 -6.02783e-18 1 

-1.35215 -0.63635 0.671866 
-0.146183 0.482904 -2.90965 
9.5574e-18 -8.98603e-18 1 

-0.226095 0.205088 7.88534 
0.00577933 0.0704722 3.18073 
-8.13289e-18 -6.3499e-18 1 

-5.27298 0.45716 -12.5987 
1.09576 1.08752 -8.27988 
4.59796e-18 8.69485e-19 1 

-4.50035 -2.46314 1.67017 
-0.218541 0.789601 0.35116 
2.14499e-17 -1.55494e-17 1 

-0.916317 0.560421 -102.121 
0.47955 0.484684 -11.4633 
-7.60622e-18 5.87287e-18 1 

-1.85015 -0.616332 -0.944959 
0.709424 0.575113 -0.25659 
-8.66978e-18 -2.36314e-19 1 

-0.933133 -1.47731 4.4721 
-0.0755169 0.392402 -2.76468 
-4.83404e-18 -3.04446e-18 1 

-1.57469 -0.247684 206.005 
0.0662243 0.426531 54.9349 
1.01892e-18 -8.64646e-18 1 

-0.941345 -0.92651 -0.367412 
0.021553 0.389902 0.29242 
-2.21581e-18 1.7639e-18 1 

-2.32635 -0.575934 0.357576 
0.373345 0.634043 0.345424 
-8.98435e-18 -8.43792e-18 1 

0.0740312 -0.0664399 0.221483 
0.0925908 -0.123466 0.160697 
4.06322e-18 5.23326e-18 1 

-0.253182 -0.0797952 0.313196 
0.176538 0.102701 -0.532036 
1.07666e-18 2.08154e-18 1 

-0.498569 0.0338022 -1.02789 
-0.0148283 0.201189 1.38332 
7.42166e-19 2.32288e-18 1 

-0.351687 -0.308236 0.192921 
0.162657 0.0376057 -0.383146 
1.4567e-18 -1.52953e-17 1 

-0.358158 0.115012 -0.907599 
-0.295808 0.169374 0.167172 
3.87052e-19 -4.4726e-18 1 

-0.121402 0.393033 -0.138272 
-0.207773 0.102633 -0.4847 
-6.85835e-18 -3.80528e-18 1 

-0.440484 -0.181301 -2.52541 
0.0608614 0.288217 0.909001 
7.44879e-18 2.57393e-18 1 

-0.533416 -0.981544 -4.64291 
0.0850476 0.298983 3.34233 
-1.63102e-18 -4.34697e-18 1 

-0.0447266 -0.673352 -0.0243983 
0.741299 0.408532 0.147243 
-1.6404e-18 9.21148e-18 1 

-1.5263 -1.26081 5.38219 
0.59452 0.947013 0.462913 
-1.30816e-17 -2.2204e-17 1 

0.551538 -1.03584 0.135791 
0.946635 0.694264 -0.462275 
2.41106e-18 2.16996e-17 1 

-0.36618 0.346758 0.00917477 
-0.113202 0.136829 0.0557605 
-1.0402e-17 9.58936e-18 1 

-0.619182 1.4932 -23.98 
-0.0443834 0.376535 -5.38072 
2.77666e-18 4.23134e-18 1 

-0.472072 -0.0895476 0.0553186 
0.116996 -0.117354 -0.443184 
-1.09914e-17 3.7985e-18 1 

-0.284326 -0.263812 -2.52023 
0.240683 0.00912514 0.681129 
4.53192e-19 9.06385e-19 1 

-1.29094 0.668658 -0.199282 
-0.258214 0.345098 -0.609388 
-8.91145e-18 -1.6673e-17 1 

-1.22972 0.447028 -2.18328 
0.0589129 0.333837 -1.79881 
1.30269e-18 -4.82608e-18 1 

-0.202309 -0.0666322 1.20701 
0.0889426 -0.0606131 0.833303 
6.69617e-18 3.7619e-19 1 

-0.888139 -0.43717 0.878675 
-0.277354 0.118408 -0.465042 
-4.76917e-18 1.52613e-18 1 

-0.394969 0.239904 0.110938 
-0.443363 0.0173713 -0.0182114 
-1.95324e-17 -1.73621e-18 1 

-1.01251 -0.895029 17.7045 
-0.32877 0.437795 6.80885 
-3.34834e-19 -1.69312e-18 1 

-1.53624 1.15869 1.12367 
0.092237 0.465574 -0.425997 
-6.99188e-19 -8.89876e-18 1 

-1.28255 0.437187 -0.742868 
-1.20084 0.506881 -4.76327 
-6.22088e-18 -1.57069e-17 1 

-2.27091 0.213906 -2.56387 
0.352318 0.723483 -0.870933 
8.99358e-18 -1.26472e-17 1 

-0.227934 0.112299 0.0705586 
-0.124959 0.195671 -0.342068 
3.64642e-19 -4.01106e-18 1 

-0.418168 -0.550674 -3.16089 
0.302654 0.214228 -2.7057 
-1.38297e-18 8.20622e-18 1 

-3.67102 -1.07102 -2.9936 
0.1486 0.614865 -0.705352 
2.03268e-17 -1.89716e-17 1 

-2.37429 -0.937848 -10.3354 
-0.237261 0.630166 -3.32238 
2.65314e-18 1.33491e-18 1 

-3.48278 -0.390753 -3.43424 
0.397862 0.646967 1.19676 
-5.1595e-18 -2.36088e-18 1 

0.0411197 -0.366475 -0.110566 
0.443968 0.038002 -0.120702 
4.43917e-19 1.03581e-17 1 

-0.291566 0.395396 0.186396 
-0.416778 0.0284535 -0.342333 
1.2626e-17 8.86016e-18 1 

-3.91563 3.48403 -13.0627 
-1.1971 2.10834 -3.50679 
-9.95255e-18 -9.74343e-18 1 

-0.8895 0.175222 -0.180228 
-0.472546 0.280982 0.695396 
6.26475e-19 7.12616e-18 1 

-0.171219 -0.698701 -0.24171 
0.734684 0.490036 -1.1229 
-1.15034e-18 2.21546e-17 1 

-0.150156 -0.648468 -0.552826 
0.455694 0.191217 0.309504 
-5.37266e-18 -2.8296e-18 1 

-0.189706 -0.158488 0.254871 
0.0169622 0.0919487 0.696375 
-1.16153e-18 1.15148e-17 1 

-1.44033 0.810843 -2.21887 
-0.399429 0.611353 0.248503 
-9.91177e-19 1.2431e-17 1 

-0.824253 -0.243773 1.94608 
0.185371 0.598734 1.25653 
3.30121e-18 3.01163e-18 1 

-0.290857 0.0916961 -0.819891 
0.0372266 0.175534 0.00869422 
-4.19606e-18 -1.43865e-17 1 

-5.28726 0.222126 25.9948 
-1.08934 0.729039 6.44162 
5.61196e-18 3.73195e-18 1 

-0.183448 0.42473 4.01054 
-0.0465402 0.209106 -2.26658 
-4.54599e-18 8.90643e-18 1 

-0.102092 -0.152455 -0.160315 
0.141595 0.00928749 0.470075 
1.37179e-18 3.27705e-18 1 

-1.72194 -0.763175 -4.34987 
0.135843 0.580599 0.850054 
-3.85152e-18 -4.58018e-18 1 

-1.52107 0.0963458 1.68922 
0.39691 0.433511 0.502588 
-3.81225e-18 3.82596e-18 1 

-1.28246 0.627287 -6.19603 
0.229104 0.582494 -0.952721 
5.95328e-18 -9.67408e-18 1 

-1.38023 0.168411 7.00488 
-0.0490407 0.405232 22.3821 
-5.1935e-18 -2.71216e-18 1 

-0.143257 -0.105101 -0.44908 
0.162737 0.129081 -0.488446 
-1.61933e-18 -1.45748e-18 1 

-0.772803 -0.128956 1.25307 
0.0733419 0.438859 -3.79909 
1.12406e-17 -5.21885e-18 1 

-2.08232 0.100924 4.67593 
-0.288712 0.607459 1.33575 
4.46669e-18 -1.15031e-17 1 

-0.860166 0.239977 2.44059 
0.0382784 0.384795 -0.093163 
1.96225e-18 -4.012e-18 1 

-0.418266 2.73958 4.81209 
0.0256815 0.206693 0.501602 
3.89261e-18 3.35317e-17 1 

-0.518742 0.612754 -3.44036 
-0.0590228 0.185543 0.732416 
-7.86597e-18 -2.81864e-18 1 

-1.50268 0.613538 -11.9354 
-0.526732 0.570342 10.7469 
-9.85421e-18 -7.75983e-18 1 

0.038286 -0.659044 0.0774966 
0.556208 0.17832 -0.269552 
-5.44768e-18 -9.41994e-18 1 

-1.42312 -0.92146 415.864 
-0.0169784 0.360277 7.48419 
7.08311e-20 -4.65012e-18 1 

-0.640535 0.205987 -0.781188 
0.3845 0.207201 0.962282 
-1.56621e-17 -9.05102e-18 1 

-0.254088 0.311137 0.10112 
-0.376525 0.0158872 -0.0773423 
-1.61852e-17 1.24761e-17 1 

-2.44605 1.50303 -148.729 
0.455325 0.381854 4.15326 
-1.56544e-18 7.91781e-18 1 

-3.79829 -4.9797 -0.0136933 
0.282603 1.52437 -2.20489 
-5.43404e-18 5.44458e-18 1 

-0.295427 -0.147858 -0.338789 
-0.0176041 0.140977 0.400309 
-4.92752e-18 1.57963e-18 1 

-0.512206 -0.142984 -0.250776 
0.280928 0.112056 -0.356463 
-8.31171e-18 -5.53546e-18 1 

-0.381537 0.0107995 -0.422327 
-0.0544771 0.0670814 -0.0679905 
5.73623e-19 7.62581e-18 1 

-0.581968 0.769603 2.1541 
-0.690858 0.556721 0.332377 
1.26164e-17 2.79082e-18 1 

-1.14 0.240076 -11.6543 
-0.496546 0.487431 -5.834 
5.46424e-18 -1.00254e-17 1 
