# vtk DataFile Version 3.0
Output file generated by Yade's KinematicLocalisationAnalyser
ASCII
DATASET UNSTRUCTURED_GRID

POINTS 13483 float
620.265 31.8845 0.42602
768.882 63.0694 -0.472996
121.282 6.00042 -0.46387
794.795 7.63937 0.474733
508.787 7.82183 -0.250317
319.564 35.2422 -0.453219
158.26 6.93709 0.457244
581.443 10.2696 0.172421
505.504 24.3999 0.135206
724.361 15.5475 -0.528855
213.218 8.87087 -0.111443
260.613 6.32417 -0.259008
667.438 35.5811 0.14376
645.725 15.5833 0.0966656
138.566 17.3811 0.459286
224.336 34.6643 -0.392452
220.572 12.9267 -0.298724
293.297 9.57949 0.392325
346.065 33.6802 0.486986
534.007 8.63794 0.345163
418.379 37.1864 0.0957657
601.733 45.3038 0.35092
792.273 41.5446 -0.493948
716.569 51.136 -0.488348
466.732 16.279 0.316451
244.506 44.5923 -0.125894
500.082 28.5267 -0.458876
598.864 20.0463 -0.250036
45.4126 15.3364 -0.460342
728.864 46.8898 -0.378275
491.272 4.9453 0.329931
16.7997 23.5347 0.301994
782.517 64.4106 0.250427
504.636 2.48717 0.482968
79.175 45.1068 -0.100389
531.647 30.593 -0.339873
540.558 16.6765 -0.425999
349.118 22.4097 -0.177911
545.718 26.3143 -0.333015
356.515 33.641 0.453173
244.425 14.5246 0.370044
441.439 37.0572 0.0755995
682.378 7.23341 0.133886
195.27 6.21504 0.377336
56.1242 7.0214 0.0859826
69.4725 8.93911 -0.296737
698.27 7.84903 0.547931
23.4366 11.849 -0.275026
620.822 48.3154 0.378623
692.917 32.0008 0.313075
174.486 32.8227 0.323882
768.831 48.773 -0.135806
35.3499 28.2701 0.11283
544.451 3.00857 0.322311
143.768 7.50657 -0.483356
604.743 34.8425 0.433883
513.16 28.181 0.127667
177.028 0.947914 -0.275666
32.864 2.36531 -0.332006
354.705 17.8227 0.253245
632.251 51.9575 -0.135872
470.37 32.6928 -0.209557
406.812 1.03292 0.197539
707.51 11.316 -0.387198
27.324 43.3875 0.23562
260.17 30.7856 -0.330392
724.001 9.80567 -0.203141
684.328 56.729 0.347682
425.615 8.69617 -0.475525
582.267 3.65616 -0.341451
747.135 39.069 0.404171
132.315 7.68268 0.286996
508.38 26.0398 -0.158083
486.753 15.1752 -0.13044
299.458 16.5537 -0.365883
20.6159 13.8079 0.283746
792.68 56.8614 0.308934
338.648 39.2581 -0.299491
687.895 26.3657 0.321242
697.655 12.7133 0.326532
784.876 19.1717 -0.329863
473.71 34.7244 0.178145
93.816 39.337 -0.2831
703.015 46.9796 -0.273226
662.619 45.4078 -0.120464
795.616 50.6532 -0.123331
782.412 2.61375 -0.716611
296.55 30.1644 0.417239
636.142 6.409 -0.144582
24.631 5.36443 -0.555204
135.187 38.6582 0.164649
523.589 14.8567 0.219343
775.378 40.1856 0.489718
198.368 28.8592 -0.239465
44.9875 34.6229 0.330237
503.545 1.15641 0.137864
239.66 8.86185 -0.395422
747.195 50.5472 -0.330694
766.988 37.6994 0.269784
368.454 20.7837 -0.255014
165.529 27.6149 0.434475
561.758 40.3839 -0.449245
388.034 15.3165 -0.444343
422.456 30.1636 0.0973892
386.018 4.48808 0.415188
561.027 10.5996 -0.11347
799.193 13.5007 -0.29987
81.5249 39.9296 -0.398181
342.19 4.80716 -0.198503
574.803 9.46967 -0.327381
367.947 43.9422 0.44523
25.7486 24.9899 0.47889
30.7347 5.78269 0.320598
581.882 33.8292 0.505914
516.098 25.4194 -0.144301
26.7752 37.0607 0.332446
94.9085 31.5738 0.228766
331.981 16.0338 -0.292332
615.293 18.8384 -0.124987
486.119 38.478 0.299921
737.405 8.49792 -0.669269
731.725 6.01345 0.220658
396.004 37.4195 -0.100624
651.546 30.7471 -0.0984408
242.87 17.2973 0.537913
337.314 3.69946 0.467129
105.341 32.2495 -0.379863
117.858 24.5234 0.251891
557.258 40.6965 -0.0957889
312.803 18.6295 0.501342
729.861 39.8441 -0.134119
688.439 56.614 -0.109722
492.49 21.1217 -0.351484
766.943 9.45455 0.331705
438.41 24.7054 -0.219761
283.894 24.125 -0.292362
692.066 43.5173 -0.327625
285.266 29.0663 0.398723
592.734 12.3702 -0.204555
339.75 36.0282 0.212544
517.825 11.5771 0.483036
375.827 31.6051 0.0935796
441.605 17.3286 -0.104528
325.732 42.1579 0.428947
194.547 30.2428 -0.130161
773.479 63.0566 0.152544
796.768 16.7053 -0.314394
6.00235 12.4368 0.434201
445.672 23.0016 -0.429256
39.0697 22.6889 -0.0920559
386.277 31.5449 0.46656
405.551 25.2502 -0.271396
76.0883 11.8306 -0.493674
52.8749 33.5618 0.300986
231.147 13.6261 0.439939
634.529 44.63 0.434898
594.847 20.942 -0.455032
76.6348 20.9776 -0.520647
719.778 52.7557 0.456465
755.307 4.11482 -0.553176
680.266 48.3484 -0.499031
704.881 3.21376 0.572574
565.637 28.383 0.404011
602.94 46.1981 -0.486182
527.374 18.8406 -0.393714
792.469 3.33876 0.245023
228.834 24.9707 -0.127534
130.834 35.9183 -0.205294
253.434 6.65255 -0.406673
96.2948 4.48221 0.275617
65.7186 10.0721 -0.224135
283.032 36.0807 -0.32477
17.1762 25.2122 -0.373192
572.364 19.51 0.438535
621.671 43.2527 -0.224057
476.545 21.2655 -0.359022
797.474 76.6577 -0.192557
418.666 8.66028 -0.11554
447.98 37.4706 0.361876
553.035 3.42689 -0.195511
22.5731 24.3913 -0.380964
595.201 4.57904 0.482946
563.131 4.34205 -0.290363
211.425 11.3167 0.480208
437.546 16.5761 -0.185603
320.017 6.36176 0.352921
399.33 18.9479 -0.339624
752.462 67.2225 -0.0980221
197.572 25.491 0.460807
776.192 10.138 -0.36285
750.86 63.6312 0.316433
394.627 10.3061 -0.155688
721.226 3.6567 0.546845
623.325 27.674 -0.396245
739.248 24.0098 -0.470142
443.433 44.0995 -0.303471
512.245 12.7798 0.429139
479.038 44.5309 -0.23016
459.096 8.64178 0.119293
682.884 50.0853 0.277519
681.799 44.1371 0.325202
196.872 39.3222 0.193772
782.677 19.2697 -0.124408
604.512 46.3588 0.257319
11.9999 16.4509 -0.170297
420.192 25.1358 0.344821
192.219 23.5819 0.39588
95.4392 40.2598 0.198253
771.701 31.3518 0.458255
676.173 51.6283 -0.248192
328.563 25.7325 0.347295
549.898 10.2194 0.319944
84.3072 45.0158 -0.174007
254.484 25.9163 -0.471859
574.744 25.1797 0.358182
502.596 19.0436 0.393011
270.148 0.889233 -0.342812
571.073 41.7287 -0.402407
550.56 42.8826 -0.460776
497.59 34.4582 0.409837
515.798 1.67117 -0.663394
711.499 23.5638 -0.342573
184.217 12.1892 0.168049
516.788 37.8055 -0.46491
582.978 41.8751 0.168724
74.8357 0.955177 0.269452
258.788 4.73928 0.176464
796.183 18.6785 0.236239
784.993 21.2293 -0.421736
800.852 20.0303 -0.627896
312.459 8.59738 -0.238178
747.33 30.0801 0.480856
419.254 43.0486 -0.386668
463.403 0.813515 -0.401857
668.635 43.3983 -0.543981
27.5617 30.8812 -0.306083
340.7 41.9449 0.569506
259.65 2.87064 0.328691
788.668 64.1786 -0.210946
718.281 65.6002 0.0804009
295.844 10.9296 0.237683
687.761 37.6473 -0.0797753
576.912 2.51186 0.267839
560.829 6.31533 0.431218
99.1544 18.5115 -0.500213
312.4 1.03535 -0.227744
353.854 2.27336 -0.358609
14.2613 7.52599 -0.458995
4.55989 32.1449 0.257525
166.4 18.6 -0.34514
70.0022 42.2865 0.217748
68.5421 29.5896 -0.35313
437.411 14.7034 -0.417159
378.849 35.2779 0.472451
766.668 49.5676 0.118979
19.9838 4.08332 0.27556
72.4957 6.93763 0.141022
642.567 41.7347 0.145652
303.666 0.915965 0.374238
376.835 16.0435 -0.0958746
242.487 4.61469 0.399619
670.888 28.4694 -0.169749
466.527 8.40293 0.417647
748.716 30.5817 -0.395285
650.407 33.9233 0.296397
687.454 24.481 0.0933674
434.097 27.3443 0.464189
104.935 45.5119 -0.319692
560.998 44.322 0.0728018
738.045 18.4308 0.279307
244.916 30.7628 -0.25682
32.7418 17.0137 0.199173
347.019 13.6973 0.50424
110.513 41.1585 0.47009
275.889 42.4697 -0.20214
439.671 1.63972 -0.329148
777.727 43.5065 0.388107
698.684 0.806113 0.603703
342.736 3.21173 0.54134
309.09 26.7754 0.135826
478.221 41.3067 0.219417
83.8723 8.18825 0.460157
203.406 45.2342 0.377631
769.473 42.9807 -0.3805
512.121 40.5416 -0.0789241
205.781 41.3259 -0.265338
165.368 42.7343 -0.0542891
798.38 46.6189 0.439886
798.331 15.2654 -0.509536
628.152 3.47173 -0.653977
195.84 25.2785 -0.107198
567.847 29.5766 -0.10134
569.866 29.0929 0.266958
423.217 5.69784 -0.135776
498.431 0.921807 -0.304044
763.93 51.7789 0.468988
87.4521 31.5154 0.223369
676.691 23.6901 -0.574364
283.02 15.6047 -0.349611
9.77951 2.34027 0.345275
129.324 37.6331 -0.200977
69.1394 23.2246 0.482651
723.859 41.342 0.344799
785.804 72.4163 0.164615
190.785 28.7544 -0.178944
791.707 16.743 0.397107
46.4968 36.8222 -0.261246
93.7514 29.933 0.151453
654.398 14.8012 -0.524648
428.107 17.5137 -0.595995
537.249 16.754 0.0936735
245.468 28.8576 0.191202
643.56 4.49164 0.424549
800.391 12.1164 0.362584
30.5247 31.8698 -0.283371
278.731 7.70312 0.18206
228.785 15.4453 -0.269833
1.08817 36.7731 0.146282
232.181 14.5506 -0.397057
218.103 10.9753 0.124412
220.448 26.2621 0.269829
137.287 28.2369 -0.117734
566.93 15.341 -0.344154
171.899 14.1233 0.376383
781.942 62.533 0.228389
179.083 3.82554 0.510329
48.7178 38.0205 -0.431179
761.765 70.5349 -0.425821
290.277 32.2803 -0.383981
693.472 30.2624 0.437064
785.951 44.6281 -0.481059
310.492 9.2324 -0.105034
737.868 42.8078 -0.337329
339.611 2.5619 -0.396389
430.671 23.997 0.39163
687.748 16.5692 0.481879
108.509 11.7962 -0.430366
500.107 3.87544 -0.49087
751.143 26.1633 0.173815
90.8203 7.75647 -0.249075
290.871 14.749 0.191339
438.385 12.0392 -0.232669
792.325 5.06564 0.614205
411.826 2.01843 -0.518281
181.936 39.2365 -0.315626
741.32 16.1895 -0.407341
132.656 36.9199 0.195692
271.75 31.4767 -0.416204
414.486 21.6505 0.221534
595.234 14.1171 -0.348818
400.554 9.89417 -0.481985
472.26 27.4706 -0.423518
768.702 64.6185 -0.379064
48.9405 10.9748 0.112756
309.207 39.2309 -0.295139
392.547 26.3051 -0.388586
424.502 21.1168 -0.259758
538.437 45.2104 -0.356796
756.918 48.4301 0.252961
686.988 44.7181 0.441812
232.757 34.5929 0.37727
13.8198 32.3953 0.161934
680.057 44.8797 -0.155309
527.951 41.4353 0.401928
236.755 39.7628 -0.112304
704.285 42.0603 0.103462
155.518 9.40934 -0.203942
379.119 21.5175 0.279417
479.897 42.536 0.11193
428.523 19.1475 0.202334
765.408 63.4104 -0.32347
441.137 3.87801 0.520481
51.2659 25.5673 -0.297022
486.633 32.1028 0.322067
449.753 42.6295 0.399096
787.378 58.9412 -0.238824
736.364 48.5428 0.219514
562.054 17.9313 -0.156689
777.365 56.8485 -0.486458
303.247 2.17565 -0.480102
391.614 30.2615 0.578829
29.9352 38.9481 -0.306668
736.988 46.5081 -0.136285
632.148 21.0913 -0.494528
479.484 0.778445 -0.471879
129.666 4.6362 0.268936
441.2 41.5094 0.119787
12.251 0.908517 -0.311545
791.465 9.48107 0.0910387
383.173 39.5091 -0.422092
[...]
POINT_DATA 13483
TENSORS Strain_matrix float
-0.46728 -0.376117 1.03575 
0.0267922 0.12141 0.81779 
2.42584e-18 1.1044e-17 1 

-0.605379 0.491681 -14.7632 
0.463401 0.519049 7.06449 
3.86356e-18 3.90466e-18 1 

-0.108956 -0.0275006 -0.876603 
0.0249764 -0.0437682 2.27496 
-1.61834e-18 8.83406e-18 1 

-1.43163 0.267986 -0.122135 
-0.337937 0.493908 -0.619726 
7.03429e-18 -8.44115e-18 1 

-0.308622 -0.0762004 -0.046006 
0.017016 0.0542047 -0.452132 
8.34864e-18 1.6246e-17 1 

-0.0838595 -0.0143091 0.0773185 
-0.0042961 -0.0350395 -0.459913 
-1.16191e-17 -4.74249e-19 1 

-0.104286 -0.0123294 0.454926 
-0.0057376 -0.0662762 0.519975 
9.47844e-18 -4.55337e-18 1 

-0.10038 -0.0447219 -0.133297 
0.0439845 -0.0786437 0.0209379 
-1.22988e-17 -6.51747e-18 1 

-0.207745 -0.0194932 -0.314447 
-0.00547467 0.211424 0.973531 
0 9.02424e-18 1 

-0.312471 0.327639 0.170993 
-0.28402 -0.00822808 -0.233105 
6.68047e-18 4.81537e-18 1 

-0.0573489 0.00528927 -0.067059 
-0.00576164 -0.0757846 -0.00057928 
7.88995e-18 -1.45865e-18 1 

-0.0973645 -0.0423877 0.190692 
-0.0677131 -0.0905688 0.0689056 
-2.14097e-17 -1.30084e-17 1 

-0.241782 0.381315 -1.58061 
-0.171963 0.192554 0.216156 
6.70227e-18 -7.99314e-18 1 

-0.210284 -0.216221 -0.065838 
0.250097 0.0475408 0.291797 
1.21599e-17 -8.74259e-18 1 

-0.125272 -0.0265473 -0.391693 
0.0063005 -0.00546487 0.427347 
1.32472e-17 2.76163e-18 1 

-0.0920234 0.00447563 0.232617 
-0.0162543 -0.0231745 -0.0392991 
-7.84427e-19 1.48306e-18 1 

-0.091919 -0.045386 0.026103 
0.0125587 -0.108855 -0.024461 
2.74534e-18 9.70203e-18 1 

-0.169667 -0.0103611 -0.0287902 
0.00739245 -0.0638896 -0.0121772 
3.23262e-18 -6.67306e-18 1 

-0.143929 0.033278 -0.0181084 
-0.0241371 -0.0183795 -0.789045 
-3.55028e-18 3.64796e-18 1 

-0.0889294 0.0568314 0.238367 
-0.118204 -0.0723086 0.377259 
-4.51686e-18 -8.8204e-18 1 

-0.205588 -0.0140812 -0.334977 
0.0737157 0.0544105 -0.161329 
-3.46002e-18 -1.5646e-17 1 

-0.35802 0.119016 -1.10319 
-0.0260498 0.223679 1.70876 
1.23734e-18 6.60562e-18 1 

-1.01525 -0.519549 3.14019 
0.168189 0.541613 0.152783 
-1.02257e-17 3.17746e-19 1 

-0.497869 -0.29372 4.49811 
-0.0707625 0.410543 -1.94538 
-4.04627e-18 -6.53807e-18 1 

-0.0729863 -0.056004 -0.124567 
0.0754818 -0.0408703 0.222229 
-2.52411e-18 -9.31977e-18 1 

-0.0536778 0.0380526 0.358914 
-0.0667419 0.0002021 -0.0153283 
1.31957e-17 2.80573e-17 1 

-0.218955 0.0296889 -0.203517 
0.00394338 0.0704354 0.0579773 
-7.35448e-18 -9.33378e-18 1 

-0.127252 -0.219894 -0.0291687 
-0.122337 -0.0277902 1.00928 
2.36717e-17 -1.53202e-17 1 

-0.101672 0.00739604 0.35997 
0.0681848 -0.0325861 -0.805306 
-5.37708e-18 -1.55108e-19 1 

-2.11912 -0.79567 1.85848 
2.48286 1.44114 -2.76096 
-5.32928e-18 2.56446e-18 1 

-0.112729 -0.0215682 -0.0859891 
0.0041274 -0.10472 0.229543 
1.05855e-17 -7.72761e-19 1 

-0.0705579 -0.00458097 -0.242735 
-0.0624231 -0.0557045 0.0487711 
1.73974e-17 -2.16538e-18 1 

0.13074 -0.994722 -0.873349 
0.361882 -0.086059 0.943023 
5.24023e-18 -2.48149e-18 1 

-0.152948 0.14957 -1.73272 
0.00922562 0.0654656 0.134393 
-5.22608e-18 -1.50218e-17 1 

-0.0531396 -0.0259381 0.121701 
-0.0593811 -0.131081 0.300314 
1.38085e-19 -3.25267e-18 1 

-0.109236 -0.044721 0.00947923 
0.0285621 -0.00171682 0.745474 
1.13692e-18 -5.73746e-18 1 

-0.1119 0.0616677 -1.87176 
-0.00611418 -0.0343077 0.146013 
2.8689e-18 -8.40448e-19 1 

-0.391783 0.215624 -0.318511 
-0.252208 0.0842533 -0.526484 
-9.41881e-20 -1.04663e-17 1 

0.0061592 0.0622242 0.698105 
0.0598089 0.00265331 -0.184345 
7.71963e-19 -4.40019e-18 1 

-0.106531 -0.0354805 1.64661 
-0.0259852 -0.00560275 1.41469 
-3.91144e-18 -6.90896e-18 1 

-0.14673 -0.0142004 0.0628892 
-0.080751 -0.0642616 0.102817 
-1.20429e-18 -6.21568e-18 1 

-0.0687212 -0.00634516 -0.175733 
-0.0520838 -0.0200443 -0.0609543 
1.62452e-17 -2.18813e-18 1 

-0.35861 0.162368 0.0305994 
-0.212776 -0.0257946 0.0402802 
-1.28383e-17 -9.08803e-18 1 

-0.0637884 -0.0273358 0.660046 
0.0109772 -0.085248 -0.155736 
-7.34476e-18 1.9867e-18 1 

-0.119051 0.0526396 0.108156 
-0.0400106 -0.0400592 0.151857 
-4.45848e-18 5.42338e-18 1 

-0.0887981 -0.00657627 0.204576 
0.0110751 -0.062844 0.012675 
5.77791e-18 5.73623e-18 1 

-0.481178 -0.259216 -0.557633 
0.141932 0.203051 0.475433 
9.04044e-18 1.37633e-17 1 

-0.0666245 -0.0669488 -0.0259835 
-0.0118999 -0.106635 -0.0254667 
7.27527e-19 -2.28651e-18 1 

-0.11994 -0.304176 -0.245089 
0.304121 0.0222049 -0.115703 
1.44999e-17 -7.77615e-18 1 

-0.833911 0.924228 -5.43388 
0.0242827 0.604557 -2.39038 
-6.21184e-18 -7.70123e-18 1 

-0.0952943 -0.0620627 -0.416065 
0.014559 -0.033283 0.017209 
2.61316e-18 0 1 

-0.0510701 -0.306059 0.155562 
0.445914 0.0542953 -0.106502 
-2.11186e-18 -6.56111e-18 1 

-0.12606 0.0185795 -0.033848 
0.00496111 0.0179267 -0.0496258 
5.05659e-18 2.89829e-18 1 

-0.1357 0.0483292 0.106374 
-0.0229661 -0.0400496 -0.0289794 
4.86942e-18 -7.42586e-18 1 

-0.124783 -0.010802 0.0982174 
-0.0187541 -0.0725185 -0.252351 
-5.8679e-19 6.23115e-18 1 

-0.11405 -0.214267 -0.733941 
0.108428 0.00413724 1.45053 
9.99655e-18 7.96779e-18 1 

-0.175876 0.117685 -0.0343708 
0.0865077 0.0501584 -0.007508 
1.23284e-17 -8.79984e-18 1 

-0.0909931 0.0943967 0.0140896 
-0.00649288 -0.0565466 0.0238875 
3.01459e-18 -2.48505e-18 1 

-0.0445483 0.0199985 0.0152961 
-0.0347279 -0.137431 -0.120435 
1.17015e-18 -1.56629e-17 1 

-0.0886447 -0.00821877 -0.156218 
0.00520934 -0.024341 -0.139777 
-8.35232e-18 6.1265e-18 1 

-0.0567811 -2.08613 -2.69871 
0.040329 0.719614 -1.04002 
1.32713e-18 -1.38152e-17 1 

-0.0897274 -0.0481496 -0.244435 
0.139818 -0.00187791 -0.0543428 
-1.36541e-17 4.04336e-18 1 

-0.102451 -0.0915389 -0.274466 
-0.0114785 -0.05002 -0.141201 
-2.09968e-18 1.09976e-17 1 

-0.491099 -0.285781 0.257913 
0.208993 0.219502 0.748651 
-3.52521e-18 5.58158e-18 1 

-0.199315 -0.00676715 0.131832 
-0.0258692 0.0938986 0.422027 
1.0585e-17 -7.03963e-18 1 

-0.18441 0.0518897 -0.140289 
-0.0583853 -0.00445555 0.377853 
-5.44976e-20 -8.97724e-18 1 

-0.481536 0.383411 -0.241497 
-0.463799 0.25826 0.0796797 
-8.2674e-18 7.51498e-18 1 

0.0415061 -0.511078 0.248955 
0.565196 0.202753 0.552074 
1.43703e-17 -1.12088e-17 1 

-0.123225 0.0218909 0.065578 
-0.0630887 -0.0713381 0.340567 
-6.14827e-18 1.00961e-18 1 

-0.198794 0.0842459 -0.0943952 
-0.153736 -0.0637571 -0.506045 
-7.78869e-18 -8.44557e-19 1 

-0.777934 -0.810022 -0.911459 
0.312364 0.45839 -0.160964 
8.89837e-18 1.33476e-18 1 

-0.0887311 0.0143206 -0.114868 
-0.016075 -0.0712352 0.139198 
1.98248e-18 5.15445e-18 1 

-0.233735 0.049325 0.467028 
-0.126558 0.164939 1.05528 
3.33254e-18 -3.27508e-18 1 

-0.0891544 -0.0485515 -0.182147 
0.0041237 -0.0781161 0.215081 
3.65181e-19 3.8344e-18 1 

-0.107788 -0.00569579 -0.356829 
0.0229763 -0.0734696 -0.104727 
4.47128e-18 -5.66005e-18 1 

-0.0843728 -0.0480971 0.0554682 
-0.0141618 -0.0981742 0.0670422 
-4.35634e-18 -4.64677e-19 1 

-4.43322 6.45887 11.4178 
-1.69161 2.34923 2.06174 
6.43975e-18 1.33236e-18 1 

-0.108571 0.0616427 -0.114475 
0.0344873 -0.0252773 0.166226 
-1.13091e-18 -4.04518e-18 1 

-0.703606 -0.0770288 -0.687026 
-0.106286 0.148439 -1.08595 
-4.69604e-18 -8.5666e-18 1 

-1.01361 -0.538533 -1.18967 
0.143101 0.482428 0.132872 
-2.09428e-18 1.66752e-17 1 

-0.509443 0.252096 -0.0258632 
-0.376829 0.129683 -0.0607043 
1.5237e-17 -1.2545e-17 1 

-0.0577215 -0.0425884 0.128659 
0.0478888 -0.0106903 0.137098 
6.31035e-18 -1.68276e-18 1 

-0.077457 0.00325905 -0.161145 
0.0157052 -0.0381498 0.0460499 
-1.93315e-18 -5.343e-19 1 

-0.323703 -0.0720707 0.0489953 
-0.0376633 0.0703368 0.356404 
2.97051e-18 -4.33137e-18 1 

-0.217329 -0.284236 -0.242651 
0.248497 0.105069 -0.308835 
1.22247e-17 8.01178e-18 1 

-0.154244 0.0893998 0.336944 
-0.115627 0.0276505 0.0974938 
3.29197e-18 -2.65415e-17 1 

-1.00195 -0.0334492 16.1729 
0.0661184 0.3487 -9.96115 
-5.45537e-20 1.01947e-18 1 

-0.0788208 0.030785 -0.00498633 
0.0684259 -0.0470837 -0.425172 
-2.39564e-17 -6.05397e-18 1 

-0.339077 0.0719209 -0.222789 
0.102159 0.0315773 -0.07808 
8.2626e-18 1.25364e-17 1 

-0.112857 0.0103513 0.731488 
-0.00437453 -0.0554879 -0.751945 
6.78937e-18 1.49738e-18 1 

-0.128707 -0.0837984 -0.110669 
-0.0450522 -0.0308265 -0.00263705 
2.50357e-18 2.15995e-18 1 

-0.194994 0.00484276 0.00559765 
0.0703547 -0.0198894 0.291447 
2.7261e-18 2.90784e-18 1 

-0.838053 0.974001 -1.61048 
-0.052448 0.36655 -1.20956 
1.08619e-17 9.56422e-18 1 

-0.121919 -0.0336117 -0.263103 
-0.083848 -0.00789819 -0.220221 
-3.38999e-18 -4.49999e-18 1 

-0.0973465 0.066497 0.238811 
0.0381005 0.00756105 0.438017 
-5.57277e-18 -1.87227e-18 1 

-0.115831 0.491215 -0.785623 
0.0070672 0.0924657 -0.342891 
7.24376e-19 3.16497e-17 1 

-0.123445 0.0337552 0.0856302 
-0.0180612 -0.0455115 -0.181671 
-5.16583e-18 7.92118e-18 1 

-0.149374 0.131695 -0.626495 
-0.29653 -0.0151497 -0.54181 
-3.51206e-18 1.6263e-17 1 

-1.62139 0.461046 -0.87379 
0.532677 0.389418 1.46314 
-7.73848e-18 5.89384e-18 1 

-0.0375415 -0.0296559 -0.214904 
-0.000718248 -0.0648322 0.0715635 
-1.4616e-17 -5.19706e-18 1 

-0.0862495 -0.0188293 0.975857 
0.0357522 0.00279175 1.43948 
7.95351e-19 -7.39138e-18 1 

-0.187835 -0.000858603 1.03101 
-0.0434739 0.0420619 1.09685 
3.22937e-18 -5.96544e-19 1 

-0.110864 -0.0167298 0.328529 
0.0918588 -0.0298263 1.92374 
-4.64475e-18 1.17129e-17 1 

-0.0838954 -0.0291895 0.190121 
0.0837895 -0.0389089 0.0829931 
9.51936e-18 3.68202e-18 1 

-0.103577 -0.0261494 0.0633403 
0.0169644 -0.0878459 0.222083 
1.07601e-17 1.18382e-17 1 

-0.11763 0.0686065 0.146929 
-0.0431169 -0.0850667 0.0176485 
1.1403e-18 7.3601e-18 1 

-1.05354 0.22112 -0.12343 
-0.801122 0.456147 0.598157 
-5.98146e-18 -2.27782e-18 1 

-0.0990351 0.0161057 0.385203 
-0.113431 -0.0265667 -0.012326 
6.92969e-18 1.43178e-17 1 

-0.129182 0.0461225 0.0941379 
0.0276016 -0.109467 -0.028828 
2.25669e-20 -1.02002e-17 1 

-0.190194 0.0238418 -0.784824 
0.0368939 -0.0660416 -1.64978 
2.08276e-17 -1.212e-17 1 

-0.122883 0.0748649 -0.0343462 
0.0263841 -0.034026 0.138488 
-3.19056e-18 1.48085e-17 1 

-0.0819995 0.0453465 1.08354 
0.0591149 -0.0510701 -0.964278 
-1.62329e-17 -3.46885e-18 1 

-0.068804 0.0368376 0.0426489 
-0.0617996 -0.0926719 -0.0372983 
-9.53508e-18 2.00539e-18 1 

-0.298105 -0.0484434 -1.40746 
-0.00642508 0.0835679 -0.499713 
-8.42624e-18 -8.74823e-18 1 

-0.0947304 -0.0161794 0.604704 
-0.275836 -0.012104 0.453766 
-4.09479e-18 3.88145e-18 1 

-0.085512 0.0441113 0.166907 
-0.0101724 -0.0315873 0.452436 
-8.80491e-18 -5.49745e-18 1 

-0.189902 -0.142045 -0.17727 
-0.0110179 0.0094373 0.0442713 
1.37211e-17 -5.74254e-18 1 

-0.0849937 0.0118396 -0.0452156 
0.04706 -0.0241803 0.0548322 
4.83997e-19 6.13063e-18 1 

-0.237766 -0.101613 -0.333825 
-0.114452 0.0772774 0.131472 
3.81979e-18 1.24253e-17 1 

-0.10599 -0.015737 -0.00246878 
0.0314397 -0.000722698 0.0846614 
7.33487e-18 4.57556e-18 1 

-0.636617 -0.572302 2.12481 
0.521842 0.37572 1.19656 
-7.83938e-18 -7.95788e-18 1 

-0.227052 0.221034 -0.268819 
-0.0685839 -0.0517235 -0.0103652 
3.33183e-18 -6.57238e-18 1 

-0.0741144 0.0698131 0.129686 
-0.0789582 -0.00346518 -0.0460701 
-1.99376e-19 -4.29904e-18 1 

-0.0623204 -0.131166 0.0316642 
0.218351 -0.0426592 0.0808852 
3.56983e-17 8.13999e-18 1 

-0.0996223 0.0102102 2.08322 
-0.0117268 -0.0385092 -4.7662 
1.14601e-18 4.11999e-18 1 

-0.093314 0.0462859 -0.192129 
-0.0280844 -0.134094 -0.164415 
-7.38217e-18 1.37427e-17 1 

-0.101277 -0.0230485 -0.232649 
-0.0597695 -0.0314767 0.126681 
9.48221e-18 1.03825e-17 1 

-0.304823 0.352164 0.0662193 
-0.0518739 0.217429 0.448731 
8.92341e-18 -4.46171e-18 1 

-0.0725656 0.00908483 0.256065 
-0.0188652 -0.010332 0.0198178 
-9.30418e-18 -3.77561e-18 1 

-0.0951876 -0.00162921 -1.10001 
0.0029936 -0.0171978 -7.83514 
-2.16201e-18 -3.52896e-18 1 

-3.1028 -1.38854 4.38723 
2.55494 0.672405 -4.5132 
-1.63529e-18 -3.27059e-18 1 

-0.351862 0.0312653 0.254501 
-0.148502 0.237364 0.484243 
-5.21089e-18 1.13817e-17 1 

-0.116387 0.113563 0.271215 
0.00483906 0.0668797 -0.0229142 
-6.25142e-18 3.72934e-18 1 

-0.762776 0.689943 0.129816 
-0.448363 0.304614 -0.449231 
-1.09061e-17 -1.31193e-17 1 

-0.30547 0.0353416 -0.151458 
0.00658651 0.123673 0.63692 
2.36372e-19 1.6338e-17 1 

-0.106227 -0.000232225 0.0232768 
-0.00453614 0.0355849 0.371426 
-2.86274e-18 -4.03543e-18 1 

-0.884701 -0.363508 0.186241 
0.542316 0.342811 -0.268047 
-9.7429e-19 9.69418e-18 1 

-0.110995 -0.0660893 0.0591273 
0.115514 -0.0159683 -0.992857 
1.62547e-17 8.13448e-18 1 

-0.10443 -0.0211916 -0.0171385 
0.0318267 -0.0568759 0.125569 
6.31425e-18 1.39543e-17 1 

-0.0960374 -0.0133665 0.175052 
0.0871776 -0.0751968 0.0708531 
1.25872e-18 3.61715e-18 1 

-0.154661 -0.00974218 -0.0319277 
-0.0105388 -0.0580169 0.137774 
1.50928e-18 8.11317e-18 1 

-0.082607 -0.0364658 -0.0386922 
0.0640304 -0.0197631 0.0410499 
9.68184e-18 2.09337e-18 1 

-0.116772 -0.0707688 -0.600789 
0.290767 -0.0214382 0.149827 
-7.76199e-19 1.82705e-17 1 

-0.0684564 -0.0434615 -0.892603 
0.0307851 -0.0178407 -0.163079 
-5.10399e-18 -4.32193e-18 1 

-0.0825731 -0.00563915 0.0969746 
-0.0319569 -0.0273344 0.0593758 
6.34e-18 8.14415e-18 1 

-0.0761246 -0.758881 0.528001 
0.383585 0.278538 -0.107728 
-1.42926e-17 -4.56775e-18 1 

-0.367924 0.403828 0.21002 
-0.314605 0.0622055 -0.0493089 
2.25017e-18 1.20009e-18 1 

-0.12398 -0.00118937 0.235141 
-0.071835 -0.0794919 -0.0769372 
-6.72624e-18 -9.91907e-18 1 

-0.0848524 -0.111736 0.675882 
0.0862948 -0.036784 -0.594031 
-8.99732e-19 6.61768e-19 1 

-0.0387797 0.0437247 -0.122145 
0.095361 -0.00420884 -0.370452 
1.02405e-17 -3.2738e-18 1 

-0.0986487 -0.0326216 -0.427873 
0.00819706 -0.0147827 1.71898 
3.31979e-18 7.06028e-18 1 

-0.179884 0.0825682 0.0600815 
-0.0510281 -0.00836423 -0.130636 
-7.43304e-18 -7.67767e-18 1 

-0.161399 -0.056342 0.0500563 
0.00629908 -0.0195693 0.162127 
-6.348e-18 -1.07774e-18 1 

-0.108937 -0.0264577 0.0305236 
0.0347292 -0.0192248 0.131836 
-1.06142e-17 8.49138e-18 1 

-0.0864703 0.0284614 1.34854 
-0.0380454 -0.0740822 1.05325 
3.90713e-20 -5.39184e-18 1 

-0.566745 -0.00773474 -0.385875 
-0.170222 0.268347 -1.31541 
5.16212e-18 3.71027e-18 1 

-0.211814 0.00417227 1.04787 
0.11207 0.012368 -0.872653 
4.44044e-19 1.912e-17 1 

-0.109005 -0.0065803 -0.0786109 
0.00118841 -0.0152406 6.57273 
-7.0106e-18 3.79957e-18 1 

-1.36986 -1.56085 -9.38983 
0.952922 1.31073 3.54143 
-5.43094e-18 4.00124e-18 1 

-0.802632 0.0550702 0.204231 
-0.0997636 0.192233 0.586115 
1.72078e-18 -3.37802e-18 1 

-0.245911 -0.205603 5.91612 
0.16182 0.142635 -7.05144 
4.97201e-19 -8.4824e-18 1 

-0.543059 -0.355352 -1.05791 
0.281965 0.0903454 -0.251122 
-3.81903e-19 -5.25116e-19 1 

0.0206413 -0.235219 0.845271 
0.0778482 -0.0360693 0.389742 
1.01256e-18 -4.79635e-18 1 

-0.35017 0.195623 -1.39616 
0.00140002 0.378855 -2.71347 
4.90054e-18 1.56922e-17 1 

-0.100955 0.0523822 -0.0543412 
-0.023805 -0.010952 -0.0539751 
3.47027e-18 3.47027e-18 1 

-1.74128 -0.0193335 -0.250029 
-0.278815 0.481068 0.256463 
2.6607e-18 -2.32532e-18 1 

-0.0477881 -0.00184276 -0.0219998 
0.0152943 -0.0713144 0.113881 
1.33537e-18 -1.44813e-17 1 

-0.10227 -0.00673108 0.148208 
-0.0478255 -0.00728132 -0.0434567 
5.87374e-18 3.79697e-18 1 

-0.0673453 -0.0400592 -0.0188713 
0.00337162 -0.0920724 0.442076 
4.39206e-18 -8.24548e-18 1 

-0.182662 -0.0319268 0.0720591 
0.0177346 -0.0115822 -0.455604 
-4.76295e-18 1.15338e-17 1 

-0.0944736 -0.00635425 0.383644 
-0.00949034 -0.0534461 0.0400754 
2.2265e-18 1.3397e-18 1 

-0.0642675 0.0174079 0.0408094 
0.0471068 -0.0155366 -0.0322439 
3.65225e-18 7.79614e-18 1 

-0.182196 -0.113715 -0.259545 
0.0129374 0.0329307 0.116378 
-9.35877e-18 3.14959e-19 1 

-0.306935 0.00942327 -1.47288 
-0.10961 0.125189 -0.162662 
4.15176e-18 5.7418e-19 1 

-0.0930514 -0.205682 0.00273785 
0.231483 0.00188991 -0.23226 
4.24846e-18 1.0968e-17 1 

-0.160577 0.0805295 -0.138256 
-0.0619366 -0.0657653 0.99563 
1.10475e-18 -1.33723e-17 1 

0.3355 -0.831831 -0.343169 
0.873148 0.45472 -0.0199871 
-1.84573e-18 -2.74223e-18 1 

-0.114556 0.00788176 -0.0086133 
-0.000776949 -0.0453887 -0.123629 
-1.12935e-17 -9.41123e-19 1 

-0.124027 0.0930152 -0.0799165 
-0.0485932 -0.0087102 0.214577 
3.7581e-18 -9.23678e-18 1 

-0.156892 0.0712997 -0.0529539 
-0.0295122 -0.0823478 -0.0459333 
-1.3503e-17 1.20134e-18 1 

-0.115341 -0.0648012 -0.736146 
-0.148866 0.0375085 -0.228589 
6.01772e-18 7.20211e-18 1 

-0.281428 0.0974467 -0.00274405 
-0.16724 0.0129346 -0.35958 
-6.70835e-18 -1.18633e-18 1 

-0.0723563 -0.00391736 0.0587273 
-0.0203629 -0.0774149 0.0862637 
-4.26517e-18 -1.39398e-18 1 

-0.0970764 -0.0177096 -0.0801674 
0.0226537 -0.0622117 -0.00598936 
6.97741e-18 -4.75164e-18 1 

-0.225948 -0.0263029 -0.186607 
0.122234 0.0380006 -0.242765 
9.0305e-18 -2.19947e-18 1 

-0.138493 -0.0236659 0.106496 
-0.0480547 -0.0480038 0.194335 
6.3774e-18 7.72309e-18 1 

-0.12192 -0.0346047 0.38238 
-0.0174319 -0.0318589 0.15009 
2.13678e-19 -8.06635e-18 1 

-0.02846 0.137202 -0.141824 
-0.15319 -0.0279145 0.134923 
-2.93146e-18 9.25723e-18 1 

-0.17209 -0.00909394 1.62193 
-0.139008 -0.0324648 1.92239 
6.24352e-19 -4.99482e-18 1 

-1.45402 0.316142 -0.468175 
0.29527 0.60484 1.26415 
-5.03581e-18 9.38251e-18 1 

-0.0250338 0.109326 0.240792 
-0.148662 -0.0248199 0.259311 
4.45055e-18 -2.5747e-18 1 

-0.120278 -0.102142 -0.0714837 
0.090851 -0.0495821 -0.0886086 
2.05825e-18 2.47174e-18 1 

-1.33222 -0.433516 -0.547428 
-0.0585779 0.388811 -0.480186 
1.92946e-18 9.16971e-18 1 

-0.649222 -0.102309 0.0138118 
0.115766 0.334855 1.3743 
-4.30153e-18 -2.77518e-19 1 

-0.782886 0.392729 0.569311 
0.119637 -0.0159625 -0.672145 
3.94604e-18 -1.6689e-17 1 

-0.128367 0.0406497 0.117446 
-0.0372921 0.0132542 -0.199267 
-6.31726e-18 1.18896e-17 1 

-0.15103 0.0985035 -0.0549499 
-0.0509061 -0.0381081 -0.187489 
-1.70201e-17 -8.38221e-18 1 

-0.141336 -0.025288 -0.3043 
0.0393072 -0.0113853 -0.204733 
-8.10893e-19 -1.84294e-17 1 

-0.109699 -0.044499 -0.115307 
-0.0522513 -0.0590664 0.292431 
-4.5277e-18 -7.79185e-18 1 

-0.418926 -0.436434 -0.334603 
0.446445 0.35434 -0.240449 
-6.1381e-18 3.91337e-18 1 

-0.119101 -0.101599 0.197632 
0.0816843 0.0163094 0.219107 
-5.74366e-18 -2.19853e-18 1 

-0.0752066 -0.00402493 -0.0489123 
-0.0346655 -0.0106266 -0.0740214 
-1.31214e-18 5.57658e-18 1 

-0.416728 0.0837695 -0.303801 
0.00457975 0.0620708 -0.191176 
3.13916e-18 -4.39693e-18 1 

-0.483736 0.0173024 0.891967 
0.0462291 0.233442 0.990141 
-6.87557e-18 2.65937e-17 1 

-0.285402 -0.0907733 0.113279 
0.1833 0.22789 -0.147335 
-8.53957e-18 -2.35708e-18 1 

-0.0484399 0.0079139 0.168638 
0.0300074 -0.061931 -0.119125 
-8.38745e-18 -2.38154e-18 1 

-0.0933831 -0.085568 0.243385 
0.0759992 0.000611602 0.00110525 
4.95643e-19 -1.39946e-18 1 

-0.0739175 0.00646746 -0.0863783 
0.0134558 -0.0139669 0.16127 
-1.07268e-17 -9.06969e-18 1 

-1.37484 -0.0116851 -3.80281 
0.191225 0.466783 1.91571 
1.27125e-17 -4.9083e-19 1 

-0.239457 -0.248111 -0.231298 
0.0352718 0.122397 -0.150141 
4.82709e-18 -3.72785e-18 1 

-0.0499453 0.0170931 -0.0550991 
-0.0682906 -0.0377683 -0.220995 
-2.00317e-18 -3.33861e-19 1 

-0.133124 -2.02845e-05 0.135338 
0.0177853 -0.035552 -0.656902 
-4.51831e-18 4.46773e-18 1 

-0.0855154 0.0435311 -0.0147204 
0.0731736 -0.0774847 0.45899 
-4.21267e-18 -2.03226e-17 1 

-0.0858556 0.0284816 -0.0531316 
-0.0492748 0.0154146 0.0147189 
-8.06628e-18 1.10866e-17 1 

-0.22214 0.0884346 0.803774 
-0.0839664 0.0970067 -0.553045 
4.58329e-18 5.77272e-18 1 

-0.266332 0.0368791 -0.160425 
0.0378708 0.179798 -0.317113 
2.64227e-17 9.89701e-19 1 

-0.113041 -0.0230811 0.0767122 
-0.00246171 -0.128085 0.028424 
3.06107e-19 -2.5961e-17 1 

-0.129751 -0.175492 1.21453 
0.15726 0.0362212 1.11363 
7.76005e-18 6.15025e-18 1 

-0.182906 -0.0496718 -2.53039 
0.0198779 -0.0156516 4.1372 
2.9861e-18 4.88952e-18 1 

-0.129255 0.0155177 -0.0897698 
-0.043691 0.0152625 0.0246276 
2.78598e-18 2.55382e-18 1 
