# vtk DataFile Version 3.0
Output file generated by Yade's KinematicLocalisationAnalyser
ASCII
DATASET UNSTRUCTURED_GRID

POINTS 13483 float
661.093 27.5759 0.424298
865.292 44.3805 -0.494367
129.419 6.15704 -0.445018
914.282 4.31162 0.334047
537.776 7.54913 -0.304738
338.129 34.4766 -0.453577
168.602 6.78763 0.416487
616.868 10.0105 0.138339
534.549 22.4643 0.143568
800.332 12.2445 -0.348212
226.303 8.76134 -0.11569
276.086 6.2661 -0.269431
714.906 28.1163 -0.145558
690.922 13.9738 0.0791245
147.742 16.7891 0.430649
238.191 33.9196 -0.397465
233.946 12.7899 -0.266542
310.17 9.41692 0.375496
366.16 32.0273 0.419752
566.027 8.51363 0.345629
441.996 36.109 0.101352
642.192 42.9458 0.267852
909.161 30.8776 -0.44406
771.223 40.9503 -0.464968
493.782 16.0082 0.295173
259.029 43.5393 -0.123214
529.275 26.8648 -0.473167
635.647 18.7855 -0.242771
48.6038 15.23 -0.455839
795.591 31.0688 -0.308265
519.308 4.88316 0.315038
17.9881 22.5185 0.291221
879.769 40.952 0.2528
533.306 2.47047 0.482528
84.2328 43.3714 0.100354
562.599 29.5663 0.322046
572.841 16.4927 -0.41013
369.199 21.8115 -0.180066
576.118 25.1834 -0.326915
377.062 32.5707 0.405175
259.144 14.5289 0.296377
467.085 34.9488 0.0687246
745.104 6.88477 0.126261
207.582 6.14896 0.378008
59.7911 6.84136 -0.066546
73.7634 8.76808 -0.282483
763.586 8.51622 0.487334
25.382 11.6052 -0.292096
664.933 43.3766 0.367356
746.995 22.6352 0.325872
185.868 31.9306 0.298969
859.536 32.4329 -0.14458
37.8516 27.6889 0.114191
577.025 2.93716 0.321158
153.241 7.40312 -0.468266
644.747 32.6808 0.395098
543.898 25.7301 0.117101
188.194 0.930494 -0.259682
35.2696 2.3944 -0.302131
374.759 17.5005 0.264876
677.154 44.4329 -0.132235
497.845 32.9607 -0.185103
429.466 1.03163 0.187674
776.421 7.6288 -0.329901
28.5391 42.0617 0.235835
275.762 29.9415 -0.304383
800.393 7.64572 -0.216602
738.005 43.0019 0.357826
449.328 8.52811 -0.472126
617.755 3.49847 -0.342684
834.763 29.0149 0.387931
141.124 7.477 0.280027
537.545 24.7771 -0.131723
514.646 14.7474 -0.130879
316.886 16.4345 -0.339556
22.3969 13.4311 0.251794
887.033 31.5594 -0.375822
358.1 38.0529 -0.282347
745.033 19.2267 0.381642
763.454 12.4526 0.259616
897.009 10.7893 -0.189707
501.523 34.015 0.172684
99.7072 37.715 -0.272579
757.109 33.4462 -0.242847
711.17 37.3359 -0.106347
918.538 36.0277 -0.142969
889.448 0.819715 -0.467054
313.433 28.7744 0.42545
678.983 6.26979 -0.0998017
26.3836 5.25267 -0.442072
143.267 37.1427 0.147592
554.336 13.9937 0.199447
877.08 23.9163 0.510131
210.971 28.3795 -0.236376
47.9386 33.8317 0.272427
532.163 1.15911 0.111244
254.171 8.86376 -0.351784
838.182 38.4649 -0.250339
863.679 24.9196 0.246085
389.558 20.286 -0.253047
176.89 26.5919 0.439318
596.633 37.5297 -0.420954
410.011 15.0479 -0.468715
446.261 29.1429 -0.0939889
408.006 4.43749 0.408611
594.363 10.8279 -0.0869798
919.355 11.222 0.186544
86.767 38.4718 -0.385792
361.775 4.7394 -0.177648
609.96 9.29788 -0.326923
388.622 42.9479 0.444207
28.1897 24.0176 0.459553
33.023 5.72665 0.317341
618.604 31.7207 0.421455
547.133 23.3661 0.143022
28.5877 36.1219 0.244344
100.69 30.1306 0.222278
350.942 15.7115 -0.30612
655.66 18.2993 -0.125978
514.563 37.4123 0.302621
819.634 7.39915 0.38344
810.971 6.19372 0.212892
418.219 36.4982 -0.0934654
697.955 24.4996 0.0952423
258.225 16.6513 0.499452
356.678 3.6589 0.467448
111.975 30.8181 -0.338499
126.035 23.7123 0.274423
591.482 37.8241 0.0725846
330.819 18.5155 0.471413
789.891 33.8356 -0.103708
742.384 42.6 -0.119373
520.948 20.1093 -0.392215
867.574 8.58051 0.31881
464.323 22.9118 -0.228514
299.992 23.8463 -0.307625
745.671 30.1198 0.268111
301.821 28.2202 0.39514
629.406 11.454 -0.176854
359.333 34.7758 0.189498
548.19 11.2806 0.438412
397.3 30.7691 0.0878366
466.746 16.4021 -0.108718
344.66 41.1597 0.430495
206.872 29.229 0.112895
870.801 42.2438 0.155373
914.674 11.7423 -0.275282
6.44604 12.028 0.454185
471.06 22.061 -0.415886
41.7333 22.1625 -0.0888633
407.925 30.5325 0.473598
428.522 24.7284 -0.258689
81.1702 11.7325 -0.450444
56.3756 32.514 0.421495
245.156 13.3155 0.430793
678.702 38.1176 0.40597
631.723 19.9434 -0.420234
81.3073 20.7678 -0.473443
774.095 44.2863 0.406319
852.701 2.45806 -0.426976
730.097 38.8473 -0.454444
771.422 2.35518 0.369235
600.989 25.9145 0.383015
643.654 43.7773 -0.434109
558.442 17.5627 -0.401506
911.229 3.02147 0.251553
242.848 24.2188 -0.116662
138.712 34.4553 -0.195631
268.553 6.49126 -0.370794
102.867 4.04278 0.256032
69.8737 9.83468 -0.19146
299.736 35.2294 -0.303499
18.1702 24.2569 -0.36244
607.299 18.8218 0.390059
664.704 38.3609 0.199323
503.59 20.8809 -0.359351
900.677 37.5461 0.379355
442.099 8.43178 0.087166
474.1 35.3189 0.365945
586.078 3.42269 -0.181472
24.9748 23.3811 -0.373407
632.228 4.32512 -0.358777
596.599 4.34275 -0.283085
224.406 11.1786 0.473026
462.407 16.0679 -0.191506
338.487 6.29256 0.319114
421.822 18.6791 -0.337755
824.877 41.1828 0.118653
209.346 25.1983 0.403724
880.798 6.91116 0.35265
823.952 37.3223 0.336186
416.943 10.1185 -0.177131
797.48 2.29526 0.398222
665.204 24.5108 -0.421647
827.809 17.608 -0.35569
469.03 41.7816 -0.270218
541.922 12.2353 0.334039
507.236 43.6239 0.218149
485.389 8.57142 0.134922
733.72 38.0303 -0.306602
731.22 34.4081 0.337132
209.109 38.3435 0.336367
894.78 10.736 -0.135915
645.717 44.1519 0.241567
12.2847 16.5563 -0.197155
443.51 24.9192 0.334632
204.066 22.7459 0.392941
101.362 38.62 0.198843
874.399 20.4038 0.428153
726.642 42.5717 -0.236369
347.345 25.1078 0.354874
582.668 10.0628 0.320081
89.6477 43.4674 -0.161414
269.631 25.5108 -0.472196
610.487 23.1233 0.361905
531.043 18.1317 0.393142
286.131 0.88893 -0.342156
606.308 39.221 -0.353635
584.416 40.0553 -0.447293
526.226 32.3461 0.384742
545.167 0.769785 -0.483277
782.905 17.8125 -0.380004
195.939 11.8434 0.162004
546.751 35.4221 -0.423657
619.609 38.8133 0.121671
79.3186 0.95409 0.270231
274.183 4.6812 0.169085
913.935 13.6476 0.179344
897.363 12.7049 -0.400408
921.719 15.5379 -0.565527
330.559 8.47497 -0.225378
834.992 21.797 0.388037
443.993 40.9133 -0.311699
489.727 0.814382 -0.397947
717.752 34.8467 -0.584869
29.7837 29.8958 -0.298749
360.334 40.3892 0.481754
275.076 2.82284 0.307121
883.093 38.1972 -0.243125
794.045 46.1269 -0.219385
313.038 10.712 0.176092
738.62 28.1108 -0.0842838
611.612 2.65191 0.25854
594.273 6.39763 0.411816
105.507 17.7273 -0.491113
330.4 1.03644 -0.222569
374.265 2.2571 -0.366515
15.3188 7.54168 -0.331612
4.7707 30.3456 0.247041
177.086 18.4477 -0.356769
74.4789 40.9606 0.211869
73.0222 28.2559 -0.321477
462.112 14.2448 -0.416142
400.424 34.355 0.468044
857.418 34.3551 -0.11906
21.4437 3.97762 0.278228
76.9845 6.79672 0.135252
689.931 36.9709 0.147613
321.473 0.929709 0.320854
397.867 15.5828 -0.108008
257.057 4.4851 0.385797
722.967 20.6745 -0.180629
493.115 8.26617 0.402434
838.312 19.8753 -0.354165
697.148 27.9856 -0.299498
742.996 17.021 0.10472
458.506 25.9734 0.487551
111.347 43.7642 -0.310834
595.39 41.3431 0.0748516
825.328 13.1201 0.194252
259.469 29.7639 -0.240237
35.2759 16.6285 0.1704
366.83 13.5615 0.482909
117.662 39.5556 0.436199
292.08 41.6241 -0.187228
464.375 1.07314 0.168327
883.763 28.1192 0.376845
763.752 0.808087 0.484623
362.391 3.06321 0.476895
327.368 26.136 0.134798
506.08 40.3654 0.206072
89.058 7.97514 -0.332792
216.27 43.9542 0.377886
866.56 27.033 -0.345154
541.761 37.8318 -0.0741834
218.601 40.7161 -0.246584
175.631 41.3628 0.332098
921.067 31.784 -0.407937
917.575 11.2168 -0.457863
668.474 3.53397 -0.471863
207.882 24.1058 -0.092113
603.145 27.1423 0.0990942
605.21 26.7691 0.258739
446.874 5.55383 -0.135236
526.843 0.933541 -0.277867
855.254 36.4636 -0.499562
93.0828 30.3219 0.215504
729.341 17.7234 -0.451311
299.631 15.3595 -0.32592
10.8539 2.33459 0.3344
137.207 35.9911 -0.199677
73.3874 22.6387 0.456961
782.481 35.288 0.319466
889.425 42.8976 0.165274
203.041 27.782 -0.173883
909.043 11.5326 -0.284684
49.3197 35.778 -0.254054
99.4703 28.5249 0.149036
701.371 12.6849 -0.437932
451.745 17.8542 -0.477493
569.436 16.3543 0.10396
260.093 27.824 -0.180007
686.662 4.48565 -0.400945
922.381 10.7299 0.336306
32.7715 30.9765 -0.273765
295.019 7.66966 0.182227
242.661 14.9458 -0.269758
1.10218 34.8429 0.146036
246.191 14.3145 -0.363307
231.378 10.8207 0.126526
234.257 25.7308 0.265617
145.488 27.4003 -0.116992
601.446 14.7997 -0.321967
183.038 13.9836 0.34479
877.28 39.5562 0.181787
190.458 3.76048 0.475623
51.9136 36.7163 -0.370216
831.919 47.1065 -0.426371
307.167 31.1653 -0.374159
753.71 22.4988 0.414469
895.317 28.276 -0.510118
328.556 9.08841 -0.112473
821.545 29.2653 -0.323791
359.092 2.62282 -0.357566
454.661 23.4776 0.378413
749.907 15.6166 0.440982
115.73 11.695 -0.396345
528.588 3.96167 -0.457522
842.399 17.6748 -0.201105
96.7149 7.58031 -0.180616
307.68 14.4862 0.196073
462.967 11.5147 -0.197317
909.455 2.70892 0.391142
434.758 1.86915 -0.471185
193.696 38.1309 -0.278856
828.252 10.2162 -0.349121
140.575 35.4776 0.175584
287.667 30.9176 -0.398096
437.75 21.3021 0.214094
632.026 13.2485 -0.307761
423.148 9.74468 -0.436534
499.572 27.27 -0.399722
866.428 43.9037 0.380679
52.1962 10.7499 0.103054
327.174 37.5962 -0.256158
415.012 26.1644 -0.358561
447.736 20.8922 0.240594
572.17 43.5792 0.35653
847.732 35.1375 0.243292
737.563 33.796 0.361828
246.863 33.591 0.376694
15.4385 30.4927 0.158368
729.488 35.2972 -0.142811
558.325 40.204 0.386474
251.032 38.7131 -0.100627
761.126 30.524 0.14422
165.729 9.16027 -0.193946
400.697 20.6566 0.292415
507.838 41.5252 0.0989845
452.669 19.3079 0.201776
862.077 46.3148 0.290989
465.855 3.34999 0.412409
54.7334 24.71 -0.286262
514.859 31.1461 0.335964
475.577 40.4779 0.384409
880.614 33.8356 -0.234923
818.578 28.1895 0.240259
594.587 18.1081 -0.162112
870.998 35.3948 0.42686
320.552 2.02387 -0.43922
413.904 28.7986 0.44869
31.8559 38.0108 -0.294954
825.015 30.2209 0.139598
674.029 19.2577 -0.479469
507.041 0.77907 -0.480671
138.403 4.45924 0.281414
466.984 39.3162 -0.0938839
13.4264 0.909243 -0.312362
908.366 5.43729 0.168169
405.058 38.4147 -0.403618
[...]
POINT_DATA 13483
TENSORS Strain_matrix float
-0.0639512 -0.13807 -0.289085 
0.015593 -0.015095 -0.341955 
2.83066e-18 1.31161e-18 1 

-0.163384 -0.141423 19.7272 
0.0287083 0.0275938 7.28455 
4.59327e-18 -3.18319e-18 1 

-0.0478764 -0.00970548 -0.298387 
0.00720707 -0.084753 0.538832 
-5.45406e-18 2.46409e-18 1 

-0.236287 -0.0116971 0.0927426 
-0.028006 0.0465949 0.38774 
-5.23722e-18 -1.04089e-17 1 

-0.0780002 -0.0253662 0.0611429 
0.00852836 -0.0691276 0.0341612 
7.35725e-19 -8.60232e-18 1 

-0.044371 0.000814295 -0.767905 
-0.0105752 -0.0374784 -0.44544 
-6.74867e-19 5.64889e-18 1 

-0.0440407 -0.0318022 0.0626136 
-0.00527683 -0.0904514 -0.886734 
-8.70725e-18 -9.054e-18 1 

-0.0616776 0.020497 -0.0749195 
0.0186659 -0.0587528 -0.0261325 
1.30321e-17 1.30321e-18 1 

-0.0489946 0.0182083 -0.105459 
0.0328889 -0.0281741 -0.109323 
-4.08475e-18 7.14831e-18 1 

-0.149139 0.0407421 -0.038585 
0.0226424 -0.0869319 -0.45529 
-2.93017e-18 -7.8419e-18 1 

-0.0310074 0.0147662 -0.0471117 
-0.0095613 -0.0717528 0.0292885 
-1.1539e-17 1.03544e-17 1 

-0.0504173 -0.0332715 0.166831 
-0.0657173 -0.0944064 0.0164132 
-6.11757e-18 -1.63729e-17 1 

-0.160968 0.144133 -0.291052 
-0.0518915 0.100836 -0.163594 
6.38167e-18 -1.45443e-17 1 

-0.0947979 0.00122296 -0.145615 
0.0306795 -0.0443122 0.200003 
-7.41544e-18 4.05377e-18 1 

-0.0449114 0.0198387 0.0807358 
0.00816025 -0.0546844 -0.483877 
1.10086e-17 -1.16217e-17 1 

-0.0309251 0.0189455 -0.112832 
-0.0280728 -0.0313559 0.129047 
4.45639e-18 -4.64951e-18 1 

-0.0444384 -0.0174876 0.0183164 
0.00168092 -0.109074 0.018833 
5.10516e-18 -4.2543e-18 1 

-0.0926696 0.00266067 0.019005 
0.02181 -0.0822534 0.0887976 
-1.0158e-17 -6.99514e-18 1 

-0.120636 -0.0297981 0.0397543 
-0.0667133 -0.0431295 -0.0726833 
2.30241e-17 -2.50502e-17 1 

-0.05821 0.0355571 0.176002 
-0.0528973 -0.0938643 0.0157916 
2.03816e-20 4.48395e-18 1 

-0.093488 -0.0145117 -0.142074 
0.0259977 -0.0119223 -4.21727e-05 
2.5971e-18 -3.86372e-18 1 

-0.171139 0.0277621 0.163239 
0.0358084 0.0593909 -0.211459 
5.05993e-18 6.01722e-18 1 

-0.239387 0.196782 -0.642976 
-0.0256902 0.0948907 -0.286538 
9.67771e-18 -1.09514e-17 1 

-0.126619 -0.0211187 0.530644 
-0.00938997 -0.0142167 -0.641726 
3.93489e-18 3.58602e-18 1 

-0.0290505 -0.0181459 -0.191464 
0.0722324 -0.0516446 -0.0490387 
-2.57581e-18 -6.11209e-19 1 

-0.0206225 0.0641054 0.0700146 
-0.070645 -0.0355622 0.0371925 
-1.01432e-17 -1.22726e-17 1 

-0.0629934 0.00422886 -1.85065 
-0.00727939 -0.037488 0.156894 
2.88745e-18 -2.18113e-18 1 

-0.0786907 -0.15935 -0.133819 
-0.0296263 0.000636713 0.564375 
1.71841e-17 -2.0581e-17 1 

-0.0540534 0.0296048 0.345588 
0.0488945 -0.0692609 -0.537532 
-7.93667e-18 1.59646e-18 1 

-0.0617403 -0.056807 0.299553 
-0.0483062 0.0533092 0.211295 
1.1362e-17 -2.70272e-18 1 

-0.0518856 -0.0233975 -0.260288 
0.0091641 -0.151724 0.411291 
5.19203e-18 1.01986e-17 1 

-0.0448373 0.0387361 -0.113409 
0.0540402 -0.12482 -0.109688 
-1.09313e-18 5.81454e-19 1 

-0.187623 -0.0479196 -0.125592 
-0.0348647 0.0841628 0.485308 
-3.46832e-19 1.53907e-18 1 

-0.0727803 0.0218256 -1.59583 
-0.0105554 0.0185572 -1.51339 
8.30117e-19 6.03431e-18 1 

-0.0412634 -0.00391277 0.107299 
-0.0306077 -0.0877776 0.131791 
1.05476e-17 1.14106e-17 1 

-0.0557154 -0.0262419 -0.0628962 
0.0487138 -0.0538644 0.21097 
-5.95729e-18 -1.45128e-18 1 

-0.053281 0.00235686 -0.488909 
0.00310821 -0.0618412 0.0479538 
1.76608e-18 -3.12847e-18 1 

-0.0447162 -0.0636189 -0.261455 
-0.047787 -0.100349 -0.0276389 
-3.50854e-18 -1.12741e-17 1 

-0.0557525 -0.0324955 -0.258829 
0.100729 -0.0319491 0.204371 
-6.39084e-19 -4.3079e-18 1 

-0.0574343 -0.0201998 0.549772 
0.00109061 -0.0325285 -0.257393 
-3.86507e-18 1.8059e-18 1 

-0.0656346 0.0686863 0.342307 
-0.0434036 -0.108292 -0.275455 
-2.16503e-18 1.77801e-17 1 

-0.0200124 0.000138386 0.0191326 
-0.0592809 -0.0358197 0.169604 
-2.24706e-18 1.28077e-18 1 

-0.171091 -0.0373601 0.0698074 
-0.046541 -0.0251453 -0.033228 
9.14743e-18 -2.05496e-18 1 

-0.0257772 -0.0301059 0.119146 
0.0171292 -0.0960909 -0.13122 
-4.83581e-18 1.05448e-17 1 

-0.0345694 0.0303961 0.0449125 
-0.00550619 -0.0792597 0.029581 
-1.07507e-17 1.0066e-17 1 

-0.0405474 0.001416 0.151571 
0.00819776 -0.0790986 -0.000833716 
-1.06269e-17 7.12962e-18 1 

-0.129193 0.0113325 0.32211 
-0.0376163 -0.0611326 0.604018 
-9.47362e-18 -1.46024e-17 1 

-0.0304797 -0.0218546 -0.0182852 
-2.86752e-06 -0.133192 -0.012975 
7.43604e-18 -5.03747e-18 1 

-0.133912 -0.0595355 -0.135939 
0.0677035 -0.0110967 -0.182292 
2.62563e-18 -5.08003e-18 1 

-0.0835673 0.12273 0.864181 
-0.0620838 -0.0173392 0.0723829 
-3.4898e-18 4.93678e-18 1 

-0.0436533 0.0167432 -0.175219 
-0.0606225 -0.0436681 0.00980361 
-9.23694e-18 5.55141e-18 1 

-0.0996221 -0.0159092 -0.0305806 
0.0117015 -0.055807 -0.185632 
-1.6401e-18 -4.51026e-18 1 

-0.0855107 -0.0298674 -0.0844009 
0.0345546 -0.00174488 -0.0072578 
-9.53443e-18 8.10812e-18 1 

-0.0793427 0.0177396 0.0666515 
-0.000233809 -0.0619365 -0.0755876 
3.56884e-19 -7.79027e-18 1 

-0.0592021 -0.00416004 0.565667 
-0.0114831 -0.087842 0.104089 
-4.52532e-19 -1.38346e-18 1 

-0.065945 -0.00263525 -0.16707 
0.00497651 -0.0134459 1.47231 
-5.13814e-18 4.41216e-18 1 

-0.0495828 -0.028831 0.0955115 
0.0927655 0.013648 0.280061 
-3.23893e-18 1.18531e-17 1 

-0.0444528 0.00578083 -0.151121 
-0.0149604 -0.096248 -0.16939 
1.12641e-17 -4.94381e-17 1 

-0.0216783 0.0181951 0.0727267 
-0.0194456 -0.139299 -0.110049 
-1.06203e-17 -6.26959e-18 1 

-0.0380974 0.0456678 0.162152 
0.0171117 -0.0989156 -0.115891 
-1.59793e-18 -4.38053e-18 1 

-0.0540009 0.0564962 -0.151214 
0.0583635 0.0389722 0.0387292 
2.34935e-18 4.6987e-18 1 

-0.0473085 -0.0125013 -0.102132 
0.0436906 -0.00855821 0.000100122 
1.49958e-18 1.46471e-18 1 

-0.0599013 -0.0427966 -0.157654 
-0.00120127 -0.0404033 -0.037997 
-4.89636e-18 3.43061e-17 1 

-0.117505 -0.0202025 0.119474 
0.0357706 -0.0455562 0.255316 
4.90154e-18 1.2409e-19 1 

-0.0468584 0.0222662 0.0561682 
0.0339108 -0.013743 0.0411314 
-7.2854e-19 -1.06583e-18 1 

-0.11865 -0.0231194 -0.374384 
0.0209963 -0.0428859 -0.0973776 
-6.5776e-18 -5.02126e-18 1 

-0.13447 0.123889 -0.0128361 
-0.00340351 -0.0606302 -0.0379788 
1.43009e-17 3.78064e-18 1 

-0.103634 -0.104383 0.00388575 
0.126527 0.0323215 0.361083 
-1.08765e-17 -7.47242e-18 1 

-0.0693064 -0.000833418 0.537243 
-0.0431301 -0.0877079 0.27378 
1.53066e-18 2.5332e-18 1 

-0.111366 -0.00591927 0.11239 
-0.021237 -0.0926043 0.098354 
5.15431e-18 -5.69687e-18 1 

-0.243875 0.189679 -0.512884 
-0.063745 0.132623 -0.788516 
2.1689e-18 5.61363e-18 1 

-0.0393837 0.0181589 -0.156767 
0.00112655 -0.0828489 0.0388253 
4.90571e-18 6.52709e-18 1 

-0.0419736 -0.0345596 -0.106284 
-0.046891 -0.0553848 0.119303 
6.01481e-18 4.43061e-18 1 

-0.0470803 -0.0134021 -0.0572465 
-0.030563 -0.0608053 0.0128526 
8.55907e-18 4.29942e-18 1 

-0.0660703 -0.00521638 -0.201624 
-0.00042149 -0.0688589 -0.146504 
5.72581e-18 1.11657e-18 1 

-0.0201833 -0.0176679 0.061798 
-0.0362149 -0.120183 0.0743743 
-2.69074e-18 -6.41197e-18 1 

-0.118491 0.011163 0.107038 
0.102955 -0.0259244 0.38829 
7.72164e-18 7.30444e-18 1 

-0.046392 0.0123667 -0.114443 
-0.0179414 -0.0589048 0.345832 
2.44955e-18 -1.50924e-17 1 

-0.221975 0.0502105 -0.404638 
0.152192 0.0134878 0.0857115 
-4.9987e-18 -3.56291e-18 1 

-0.0983003 0.062292 -0.196715 
-0.0207613 -0.0371031 -0.30624 
-3.32686e-19 3.32686e-18 1 

-0.159839 0.0334724 -0.0137469 
-0.0399539 -0.0646294 0.216388 
-1.8178e-18 2.12664e-18 1 

-0.0244422 -0.00213106 -0.0230826 
0.0192438 -0.0265477 -0.0980569 
-6.59995e-18 -9.82082e-18 1 

-0.0478049 0.0304426 -0.246515 
-0.00939844 -0.0122945 -0.0854118 
2.2818e-18 -3.4477e-18 1 

-0.0990977 0.0402565 -0.119473 
-0.107825 -0.0435148 -0.109768 
-1.143e-17 1.07733e-18 1 

-0.127555 0.0161673 0.316531 
0.0194218 -0.0213126 0.300443 
-1.66606e-17 -1.88119e-17 1 

-0.184576 -0.0237179 0.293693 
-0.0109789 0.00037752 0.163361 
-9.22859e-19 4.15937e-18 1 

-0.208392 -0.177715 -1.33277 
0.00627191 0.0398767 0.507725 
-4.38921e-19 8.66137e-18 1 

0.00300073 -0.00839696 0.168912 
0.0769009 -0.125161 -0.0708722 
1.85113e-17 3.01815e-18 1 

-0.0730648 -0.00485377 0.0310077 
-0.0130684 -0.0651785 -0.121637 
1.15087e-18 -4.96884e-18 1 

-0.0519328 0.0153609 0.512813 
-0.00179936 -0.0907184 -0.0612871 
-6.38493e-18 -2.95824e-18 1 

-0.0671773 0.00467843 -0.124515 
-0.0170864 -0.0265203 -0.084522 
1.31066e-17 -8.98206e-18 1 

-0.038659 0.0262308 -0.0110403 
0.00246492 -0.0770953 0.262708 
-1.58155e-17 1.14019e-17 1 

-0.192668 0.0506599 -1.08164 
0.0300755 0.0183673 -1.61694 
3.24781e-19 1.8193e-18 1 

-0.0760716 -0.0132256 0.125072 
-0.0243273 -0.0573283 0.118396 
-1.65787e-17 6.45697e-18 1 

-0.0487721 0.0544814 -0.0913381 
-0.00584963 -0.00154795 -0.118211 
4.5294e-18 -1.06046e-17 1 

-0.0705887 0.00612883 0.0494016 
-0.00879409 0.101921 -0.35306 
-1.79184e-18 -2.71039e-17 1 

-0.0591373 0.0307273 0.0473652 
-0.036226 -0.058119 -0.0670095 
-8.88404e-18 -4.49022e-18 1 

-0.256259 0.168352 -0.0984588 
0.00110181 0.0631607 0.0293227 
-3.19108e-18 5.35278e-18 1 

-0.255537 -0.0217779 -0.26533 
-0.0513309 0.105496 -0.126185 
-4.17997e-18 -2.43601e-18 1 

-0.0311369 0.0209222 -0.0159882 
-0.0429941 -0.0718587 -0.0433186 
3.72916e-18 4.6905e-18 1 

-0.0693141 -0.0231529 -0.309472 
0.0367213 -0.0404303 0.0945397 
4.63368e-18 9.3103e-19 1 

-0.070292 -0.017816 0.341522 
-0.00437214 -0.0400644 -0.23368 
-1.40151e-18 -4.58285e-18 1 

-0.0450054 0.0200244 0.221019 
0.088432 -0.0834445 1.60843 
8.71426e-20 -3.13713e-18 1 

-0.0629344 -0.0119234 0.112632 
0.0297028 -0.0291837 0.0991133 
-2.79251e-18 2.96137e-18 1 

-0.0535549 -0.0273024 -0.0736724 
0.0237235 -0.0901697 0.202524 
2.05137e-18 -2.83301e-18 1 

-0.0767955 -0.00106581 0.223235 
0.0323386 -0.0536952 0.0440058 
6.07521e-18 1.20457e-18 1 

-0.199096 0.0563669 0.0260584 
-0.0334191 -0.0227139 0.0321921 
-1.81282e-17 -1.53762e-17 1 

-0.0369291 -0.00129342 0.109351 
-0.0466085 -0.040923 0.170421 
-8.31241e-18 -1.52172e-18 1 

-0.0719814 0.0014765 0.0172384 
0.00936688 -0.0956902 0.0335774 
-1.09974e-17 5.61572e-18 1 

-0.0817738 0.0268909 0.334753 
0.0306368 -0.0963785 -0.408045 
-6.56697e-18 -5.7461e-18 1 

-0.0596049 0.0325376 -0.732925 
0.0174424 -0.0510678 0.135684 
-3.50097e-18 2.47085e-17 1 

-0.0202753 0.0496702 -0.477141 
0.0495915 -0.0961147 -0.354297 
-2.46471e-18 -6.0115e-18 1 

-0.0261762 0.0119292 0.0764707 
-0.0376676 -0.100234 -0.0665135 
1.41427e-17 -3.34865e-18 1 

-0.0976354 -0.0511634 -0.418684 
0.0368223 -0.000273211 0.0148644 
-4.68918e-18 -4.16393e-18 1 

-0.082662 0.0282228 -0.0861037 
-0.0502743 -0.0573905 0.257619 
1.68797e-17 -3.86452e-18 1 

-0.042308 -0.00378211 -0.00780399 
0.0181133 -0.0273521 0.071665 
7.57303e-19 -8.79914e-18 1 

-0.0651676 0.000811503 -0.312451 
-0.0314495 -0.0554982 -0.0992103 
-4.43976e-19 5.15012e-18 1 

-0.0453986 0.0156161 -0.05645 
0.0290982 -0.0751409 0.029914 
8.77795e-19 -8.77795e-19 1 

-0.0919848 -0.0618861 0.0962399 
0.0683477 -0.0341174 0.200964 
2.67934e-18 -1.29216e-17 1 

-0.0528297 0.0434766 -0.103063 
-0.0409137 -0.0190754 -0.135845 
3.54366e-18 7.98572e-19 1 

-0.129785 0.0107867 0.228287 
0.0362824 -0.0976689 0.0606651 
4.24033e-18 -1.37469e-17 1 

-0.204637 0.129201 -0.212623 
-0.0406184 -0.00799153 0.0245276 
-2.20463e-17 -2.55863e-18 1 

-0.046571 0.0267053 0.102278 
-0.0319071 -0.0150175 -0.0202217 
-2.89731e-18 -3.26105e-19 1 

-0.0676473 -0.0240726 0.0001461 
-0.00884165 -0.0215432 0.123138 
-3.84914e-18 -1.52331e-17 1 

-0.0448037 0.00355204 1.06656 
-0.00516607 -0.0780368 -0.391553 
2.84765e-19 2.10881e-18 1 

-0.0563751 0.0164338 -0.327274 
-0.0239341 -0.129286 0.410342 
-3.66365e-18 -4.09945e-18 1 

-0.0710135 -0.0585696 -0.181248 
0.00833523 -0.0423411 0.0179038 
-1.0233e-17 -1.22274e-17 1 

-0.108766 0.0428885 -0.0897468 
-0.120368 -0.0145556 0.0455637 
2.86491e-17 6.10618e-18 1 

-0.0339883 -0.00852958 0.0441376 
-0.0206565 -0.050395 -0.0408801 
1.14901e-17 -6.11507e-18 1 

-0.0493287 -0.000361611 0.347007 
0.00833263 -0.0543302 2.67733 
-1.25872e-18 4.4246e-18 1 

-0.066561 -0.0689722 -0.10561 
0.0337994 -0.0121867 0.101968 
3.01391e-19 -3.04405e-17 1 

-0.138298 0.0378553 -0.173146 
0.040326 0.0673542 0.128183 
4.05007e-18 9.72016e-19 1 

-0.0426921 -0.00420829 -0.568272 
0.00369247 -0.0422668 -0.179197 
-5.95154e-19 7.24536e-18 1 

-0.152803 0.037717 0.0166324 
-0.0271063 -0.0604665 -0.0213717 
-1.08582e-17 6.02408e-18 1 

-0.0694855 0.00847318 0.102601 
-2.5629e-05 -0.00822787 0.543767 
4.22244e-18 -2.57881e-18 1 

-0.0443071 -0.0165644 -0.207941 
-0.0391559 -0.0302882 0.148707 
4.94536e-19 1.01844e-17 1 

-0.105473 -0.107663 -0.163654 
0.142603 0.0101749 0.179904 
4.18321e-19 -1.54256e-18 1 

-0.0785718 -0.00101187 -0.069732 
0.0457433 -0.0450812 -0.531852 
2.24026e-18 2.06183e-18 1 

-0.0610628 -0.00943723 -0.040463 
0.0144305 -0.0627756 0.143971 
-1.73597e-17 -5.90713e-18 1 

-0.0366908 0.00368359 0.0411117 
-0.0397539 -0.0531931 -0.292492 
5.26114e-18 2.55926e-18 1 

-0.0743018 -0.0116731 0.0447315 
0.0159235 -0.0489824 -0.249881 
4.5649e-18 1.90772e-18 1 

-0.0385817 -0.0440425 -0.031412 
0.0359045 -0.0370159 -0.0283187 
3.48348e-18 2.7122e-19 1 

-0.032553 -0.0210758 -0.122432 
0.0605679 -0.0488423 0.0292587 
-5.71063e-18 -1.70358e-17 1 

-0.0213281 -0.00649967 -0.046374 
-0.00178557 -0.0282031 -0.815688 
-4.15195e-18 1.95272e-17 1 

-0.0173653 -0.002176 -0.146881 
0.00308403 -0.0371306 0.0658138 
1.98094e-18 6.70289e-19 1 

-0.113741 -0.0825137 -0.514685 
0.0915507 0.0327068 0.0507725 
-2.69305e-20 5.72274e-18 1 

-0.134621 0.0229688 0.222467 
-0.0127904 -0.0603973 -0.033527 
8.6509e-18 4.05511e-19 1 

-0.0424385 -0.0193502 -0.231204 
-0.00575005 -0.11946 0.0548773 
-6.4493e-18 4.11143e-18 1 

-0.0572118 -0.0092914 -0.0496881 
0.0308718 -0.0728109 0.218056 
-9.47477e-18 -1.63358e-18 1 

-0.0198737 0.0123961 -0.021734 
0.0226316 -0.0468892 -0.115779 
-1.21215e-17 -1.39718e-18 1 

-0.0519228 -0.00673703 -0.847478 
0.0141982 -0.0306184 2.02685 
-1.17955e-18 -5.78647e-18 1 

-0.125845 0.0830043 0.0591119 
-0.0157081 -0.0270447 -0.0991166 
7.67731e-18 -6.47285e-18 1 

-0.0422058 -0.0369365 0.482304 
0.00362365 -0.0527447 0.248025 
-4.03438e-19 -1.3919e-17 1 

-0.0509015 -0.00151093 0.161209 
0.0259293 -0.0484108 0.272819 
6.36709e-19 -7.24213e-18 1 

-0.0380972 -0.00839342 1.16012 
-0.00434471 -0.0970933 0.238141 
-2.26406e-18 2.17617e-18 1 

-0.136112 0.0487309 0.00314865 
0.00391073 -0.00510317 -0.0373114 
9.12955e-19 6.26287e-18 1 

-0.187596 0.0277702 0.699285 
0.130732 0.056928 -1.44598 
-1.49521e-17 -6.00348e-18 1 

-0.0352891 -0.0196955 -0.394859 
-0.0242582 -0.0463715 -2.70265 
2.19605e-18 4.70484e-18 1 

-0.140805 0.00150213 0.974905 
0.0230277 0.143708 1.3721 
1.09574e-18 3.98452e-19 1 

-0.166647 0.0542226 -0.281664 
0.0110729 -0.0945841 0.364102 
-3.27569e-18 5.89625e-18 1 

-0.107794 0.0164782 0.792014 
-0.0213963 -0.00119218 -2.21191 
-1.04221e-18 -8.35541e-18 1 

-0.0867974 -0.046195 0.132775 
-0.0238401 -0.0797582 0.111911 
-3.77764e-18 -1.91157e-18 1 

-0.0444537 -0.0432836 0.35355 
-0.00677745 0.0138125 0.293027 
7.57776e-18 5.59963e-18 1 

-0.120643 -0.0176874 -0.337949 
0.0326332 0.075086 -0.382785 
-7.9295e-19 -9.23717e-18 1 

-0.0857731 0.00430257 -0.333913 
0.0767708 -0.06014 -0.452279 
-3.67183e-18 -7.64463e-18 1 

-0.194446 0.130914 -0.159794 
-0.0393517 -0.0799347 0.252108 
-3.39269e-18 -1.06437e-17 1 

-0.0183723 0.0445049 0.0400138 
-0.0137885 -0.081465 0.0399895 
-1.63998e-17 1.05587e-17 1 

-0.0777387 -0.00140442 0.0326534 
-0.00776492 -0.0205947 -0.00836947 
5.67132e-19 2.47108e-18 1 

-0.0190745 -0.0451953 0.0639175 
0.00295494 -0.11152 0.468861 
2.19765e-18 -3.16497e-18 1 

-0.044065 0.00966089 -0.101316 
-0.0145927 -0.114402 -0.213915 
-1.0889e-18 2.23224e-18 1 

-0.0276637 0.00556636 0.00884788 
-0.00460531 -0.0681145 -0.0631439 
-5.96267e-18 8.91583e-18 1 

-0.0184915 -0.00390042 0.0438273 
0.0217395 -0.0398286 -0.1969 
9.93331e-18 -1.08612e-17 1 

-0.054899 0.0306464 -0.222006 
0.0576469 -0.07897 -0.0943468 
1.26134e-18 6.88004e-19 1 

-0.0649954 -0.00335429 0.193675 
-0.0120354 -0.0192753 -0.389244 
-1.74294e-18 7.18738e-19 1 

-0.0718799 0.0269641 -0.132389 
-0.0528075 -0.0341853 -0.161581 
5.19363e-18 -4.61656e-18 1 

-0.0894545 0.00520747 0.135504 
-0.0262769 -0.0378161 -0.377521 
-2.72665e-18 -1.31658e-17 1 

-0.152784 -0.0484499 0.106165 
0.0860906 0.00564746 0.340797 
-9.88926e-18 9.17004e-18 1 

-0.0649222 -0.00195172 0.0429061 
-0.00437507 -0.0651584 -0.130649 
4.34682e-18 -1.99854e-19 1 

-0.0542014 0.0255349 -0.294325 
0.0248006 -0.0337381 0.0160883 
4.14306e-18 -4.93733e-18 1 

-0.0779798 0.0573144 -0.00955569 
-0.0328244 -0.0879228 -0.0445142 
-2.92552e-18 9.51647e-18 1 

-0.016958 0.08591 0.189685 
-0.120169 -0.054175 -0.212328 
8.71072e-18 -3.12902e-18 1 

-0.0824575 -0.00941691 -0.00755079 
-0.049673 -0.146643 0.215002 
-3.4886e-18 1.55049e-19 1 

-0.0452604 -0.00863024 -0.0379514 
-0.0359142 -0.063072 0.0126721 
8.02468e-18 -3.47992e-18 1 

-0.0529621 -0.00735508 0.805813 
0.0141555 -0.0798312 0.316635 
1.04487e-17 7.61625e-18 1 

-0.135532 -0.000776509 0.148011 
0.0923942 -0.00792707 -0.100911 
-1.15707e-18 -1.95811e-18 1 

-0.071206 0.0107357 0.0513504 
-0.0733428 -0.0590422 0.109468 
-4.95564e-18 1.19596e-17 1 

-0.063531 0.0120728 0.15515 
-0.0441642 -0.0722894 0.309535 
-1.20217e-18 2.21563e-18 1 

-0.118202 -0.0813481 -0.0724471 
0.0732904 -0.00946821 -0.0246076 
-3.546e-18 -1.37641e-18 1 

-0.0615482 -0.00536975 -0.153207 
0.0419899 -0.066872 0.302392 
3.84504e-19 6.05594e-18 1 

-0.149797 0.0742224 -0.153239 
-0.0494691 -0.0274652 -0.253417 
7.27527e-18 -3.72009e-18 1 

-0.10057 -0.0543878 0.0752102 
0.0730031 -0.0282449 0.131893 
4.99578e-18 -1.01952e-17 1 

-0.0667128 -0.0681335 -0.0903165 
0.0235684 -0.0610383 -0.0327674 
-7.00001e-19 -3.65715e-18 1 

-0.214296 -0.0740617 -0.453704 
0.0742311 -0.0231765 -0.019732 
5.33454e-18 -1.27954e-17 1 

-0.128225 -0.0280185 -0.340319 
0.00355669 0.00683391 0.138315 
2.2202e-18 -3.62737e-18 1 

-0.0890599 -0.0253004 -0.0786299 
-0.00349964 -0.0387504 -1.27061 
-1.07365e-17 -5.30696e-18 1 

-0.0747344 0.0337692 0.0515498 
-0.0443714 -0.00386997 -0.113038 
4.47195e-19 3.19425e-19 1 

-0.0463914 0.0173284 -0.496299 
0.0114759 -0.086798 -0.660332 
3.2905e-18 3.54904e-18 1 

-0.0219173 0.0321003 -0.113978 
-0.0546712 -0.13516 -0.163557 
7.84877e-18 7.78169e-18 1 

-0.0547936 -0.0254901 -0.0215628 
-0.0369636 -0.0789636 0.250424 
-1.88311e-18 -5.69381e-18 1 

-0.112636 -0.00842721 -0.0669084 
0.0760587 -0.0222769 -0.29197 
4.18102e-18 -7.44744e-18 1 

-0.0589986 -0.0274877 0.0505163 
-0.0156653 -0.0791621 -0.0704611 
-3.32232e-18 -7.5001e-18 1 

-0.0481794 0.00556688 -0.144817 
-0.0170683 -0.0385001 -0.0844058 
1.13155e-18 1.41008e-18 1 

-0.163566 -0.0246034 -0.0379203 
0.000620298 -0.0270606 0.175522 
1.59645e-18 -1.37032e-17 1 

-0.130025 0.113887 1.46683 
0.0422885 -0.0275967 -1.30927 
-1.78495e-18 1.48746e-17 1 

-0.0863822 0.00106882 -0.016724 
0.0361058 -0.0481449 -0.0866987 
-8.89522e-18 -1.66116e-18 1 

-0.0246012 0.00710699 0.00182415 
-0.0274316 -0.0563046 -0.0602493 
2.14105e-18 2.57143e-18 1 

-0.058243 -0.0191092 0.320108 
0.000656909 -0.034015 0.161283 
-1.02429e-17 6.23233e-18 1 

-0.0479122 0.0315345 -0.0149656 
0.00198048 0.00220361 -0.0154163 
-5.39421e-19 -3.64109e-18 1 

-0.121631 0.107446 -0.130585 
-0.0763872 0.0581586 1.34354 
-1.22635e-18 1.47087e-18 1 

-0.0574218 0.0218829 -0.0699328 
-0.077253 0.0066769 -0.0190819 
-2.99403e-18 7.83053e-18 1 

-0.0341995 0.00374372 -0.0618608 
-0.0504338 -0.0437173 0.122639 
-5.09487e-18 1.40435e-18 1 

-0.0932562 -0.0146898 -0.0418443 
0.0197197 -0.0569404 -0.48246 
-5.60274e-18 -1.24828e-18 1 

-0.0239348 0.0415528 0.0571892 
0.0535371 -0.128361 0.483801 
4.7821e-18 -1.23009e-17 1 

-0.0327601 0.00274176 2.37663 
-0.0256958 -0.0479422 -1.36678 
3.68906e-18 2.85463e-19 1 

-0.0945286 0.0438311 -0.0863935 