# vtk DataFile Version 3.0
Output file generated by Yade's KinematicLocalisationAnalyser
ASCII
DATASET UNSTRUCTURED_GRID

POINTS 13483 float
473.386 47.8261 0.467378
570.111 77.8522 -0.488935
108.981 6.1407 -0.419033
592.569 10.811 0.566487
419.228 10.7763 0.464336
285.945 42.8609 0.0684649
143.686 7.11027 0.489689
461.719 12.0501 0.205412
415.995 41.6107 -0.158466
543.813 18.3246 -0.56212
194.819 8.93723 -0.0873586
238.331 6.87754 0.320552
501.409 63.0435 0.15742
495.749 26.0713 -0.176077
125.504 18.1674 0.505148
204.483 35.3613 0.410483
201.879 13.2576 -0.311077
263.917 12.4171 0.48723
310.194 38.9791 0.504636
430.837 11.2663 0.675663
372.151 60.2233 0.118965
459.941 73.81 0.347845
589.867 54.3267 -0.510981
539.837 73.8777 0.218989
394.199 19.5005 0.317741
219.915 49.2113 0.138034
412.889 45.1501 -0.496208
472.444 23.0788 -0.328598
39.0722 17.8725 -0.494931
541.127 59.2641 -0.546366
410.352 6.84746 0.51759
15.6681 25.2514 0.316864
583.17 81.1566 0.257056
417.66 2.68642 0.599433
70.191 46.941 -0.10622
427.773 48.5371 -0.402577
436.971 21.9862 -0.588444
309.097 26.6095 -0.172436
436.638 38.0975 -0.299655
319.807 41.0685 0.566772
223.924 14.7055 0.369939
393.061 68.5419 0.0654286
511.878 7.7761 0.177903
177.873 6.20511 0.40524
48.9001 7.39231 0.0941368
59.9627 9.48766 0.288974
526.051 7.26907 0.576415
21.0966 12.6586 -0.330705
474.149 86.7669 -0.325871
519.042 64.3806 0.339672
157.69 33.7187 0.317369
571.878 63.5739 -0.117864
29.1222 32.9205 -0.10757
436.841 3.63002 -0.42447
130.219 7.2686 -0.545421
467.818 65.7589 0.552509
418.067 45.7311 0.123315
161.824 1.01907 -0.311212
28.7884 2.482 -0.287657
313.168 19.1475 0.327114
487.635 92.8333 0.131597
385.049 40.3334 -0.223558
349.578 1.05477 0.217799
529.175 16.455 -0.629576
22.8903 50.3991 0.23574
236.734 37.524 -0.421403
541.993 12.8664 -0.36374
510.163 93.4873 0.361014
363.308 10.5612 -0.648513
461.757 5.46725 0.63301
553.961 51.3624 0.450408
119.521 7.85049 0.285722
417.59 43.4767 -0.142123
406.067 22.0546 -0.150064
269.936 19.5472 -0.356898
18.5828 14.6579 0.340563
592.171 75.5789 0.391631
303.615 44.9715 -0.360635
521.91 57.0455 0.367729
524.928 11.868 0.414647
585.488 25.7631 0.262055
387.68 43.4117 0.191309
84.6794 42.1291 -0.284445
527.943 80.9716 -0.265713
492.859 70.2859 -0.114723
590.566 65.6579 -0.10894
582.147 2.79868 -0.660953
268.882 34.3107 0.521651
502.699 10.0903 0.302726
22.1928 6.62285 -0.654065
123.441 40.225 0.185254
426.956 24.1315 0.257577
575.802 51.4881 0.496284
180.727 29.8572 -0.256669
38.5318 38.9914 0.296319
417.511 0.989404 0.320558
219.178 8.89276 -0.469147
550.87 62.783 -0.375302
568.76 49.9696 0.252985
323.236 26.9601 -0.246254
148.842 30.774 0.502046
444.245 58.6758 -0.448877
337.821 23.8654 -0.505024
375.327 51.0017 0.0992794
336.667 10.8984 0.515062
447.997 13.0824 -0.160792
596.172 16.1069 -0.283816
72.5677 42.2062 -0.426685
302.791 5.66405 -0.180259
456.937 10.694 -0.467352
327.519 54.8837 0.476655
22.6649 29.0472 0.459156
27.6637 6.2649 -0.321872
458.832 43.2885 0.399267
420.584 40.3483 0.177525
23.0387 44.445 0.405163
86.1723 34.3222 0.250552
294.912 18.9484 0.328573
478.558 26.9113 -0.218669
397.215 50.8424 0.324313
554.256 8.20398 -0.67359
548.324 6.52002 0.257978
353.793 51.8992 -0.127749
492.366 49.0142 -0.115619
222.001 17.846 0.576627
299.881 4.56955 0.474413
94.6737 34.0591 -0.398362
106.615 25.7899 0.261889
440.778 62.327 0.08212
281.233 20.0463 0.489783
538.188 50.8799 -0.145151
515.628 93.2371 -0.106074
404.656 33.9802 -0.44519
570.581 13.3038 0.481053
369.148 29.3237 0.246833
255.86 27.4831 -0.295264
518.727 80.602 -0.318291
257.435 32.8522 0.375501
469.621 14.8885 -0.259238
304.7 41.638 0.232582
420.718 22.7355 0.56551
336.474 41.6873 0.0940126
374.151 19.227 -0.185618
292.122 49.6666 0.440071
176.887 31.3015 -0.140482
574.588 78.2585 0.172792
593.19 19.4029 -0.33052
5.76524 13.1884 0.417899
373.492 28.8994 -0.496828
33.608 27.0184 -0.0858562
346.396 44.5182 0.532011
353.763 37.4033 -0.260525
66.4299 12.0682 -0.531865
45.3667 35.548 -0.505711
211.451 14.1637 0.484203
488.203 84.1428 0.41179
468.783 25.1955 -0.577589
68.6372 22.1259 -0.504034
544.237 73.0521 0.44665
566.849 8.4374 -0.580401
505.892 84.8361 -0.450011
532.351 4.82058 0.507453
447.931 40.1963 0.497589
460.943 72.9339 -0.647622
428.6 30.2121 -0.36644
589.867 6.0625 0.379464
210.065 25.6456 -0.113512
119.179 37.6546 -0.223284
231.565 6.617 -0.473265
85.5933 4.79018 0.281351
56.4984 11.4117 -0.207539
255.81 40.1597 -0.418101
16.2558 26.8828 -0.377795
456.831 25.5247 0.445559
476.588 81.9494 -0.189489
394.499 28.9862 -0.361914
592.519 97.9316 0.342371
357.226 11.4338 -0.195764
398.623 71.3975 0.396301
444.224 3.07951 -0.422812
19.7071 28.3569 -0.372438
472.347 5.72889 0.596572
450.241 5.7646 0.637729
193.174 11.2426 0.509609
371.123 17.274 -0.227283
285.666 6.28312 0.492635
345.453 26.6719 -0.351433
569.441 88.1215 -0.0359189
180.397 26.7339 0.481737
579.209 13.7617 -0.291204
567.213 83.0302 0.308183
342.429 16.9478 0.270259
539.49 4.07004 0.456184
474.453 40.207 -0.490219
549.25 32.3281 -0.493888
392.995 75.8368 0.273208
416.415 25.2107 0.491371
389.274 55.3943 0.25592
388.237 10.6942 -0.334301
508.165 87.3159 0.260509
508.723 80.6063 0.286632
178.983 40.481 -0.374263
584.027 27.4181 -0.126226
461.904 74.0455 0.296184
10.9185 18.3733 0.182445
356.728 32.8433 0.35652
175.62 24.224 0.457745
86.322 43.1345 -0.219399
575.543 43.3256 0.450275
500.598 85.346 -0.221595
295.072 31.5687 0.398382
442.184 12.3508 0.619522
75.1945 47.1763 -0.206909
231.046 27.0709 -0.478479
454.501 32.0953 0.417312
411.721 34.1791 0.480046
245.549 0.872925 -0.54322
452.149 54.0039 -0.515709
440.092 69.9791 -0.450592
409.395 52.2364 0.381125
424.002 1.90571 -0.611282
531.385 31.5358 -0.378791
167.841 12.8231 0.208433
422.17 66.0675 -0.443443
448.886 66.8308 0.149492
65.6082 0.965358 0.331973
236.579 5.31556 0.232872
592.3 21.1456 0.225702
586.898 26.601 -0.593166
596.119 24.1463 -0.678904
279.617 10.1255 -0.251931
557.058 38.6517 0.443063
369.725 66.087 -0.31423
391.389 1.29435 0.588004
498.988 73.0474 -0.549024
23.3069 37.7529 -0.539761
305.977 47.7837 0.534342
237.401 3.53905 0.467523
587.694 83.3757 -0.202035
541.18 96.2295 0.224935
266.115 13.8177 0.285925
513.455 70.8401 -0.0892132
458.733 2.64987 0.33184
448.76 9.1687 0.596942
87.9828 19.0351 -0.525851
278.876 0.99491 -0.277607
313.215 2.23964 -0.376623
12.6988 8.22866 -0.631758
4.5359 32.5849 0.277876
151.716 18.737 -0.314293
62.2037 43.4816 -0.221639
60.8535 30.5139 -0.346275
371.465 15.5116 -0.626077
338.552 45.8761 0.465051
569.447 64.2766 0.133652
18.2322 4.51901 -0.262644
62.9639 7.42029 0.224977
480.805 55.8808 -0.159265
271.679 2.44123 0.421258
328.606 22.7714 0.0870777
221.541 4.93643 0.388633
507.269 54.4714 -0.199162
392.811 9.13279 0.68047
558.573 38.3241 -0.460677
491.901 53.1599 0.320994
526.653 48.883 0.110951
366.329 33.4796 0.580985
95.3218 48.6369 -0.311732
445.988 62.1085 0.0848336
554.465 18.6527 0.184028
224.303 34.6509 -0.251091
28.1105 18.9233 -0.167126
307.355 14.2831 0.637501
100.013 43.3934 0.46884
250.843 47.6728 -0.225722
375.246 2.23489 -0.352573
577.22 56.4557 0.381781
527.507 0.788614 0.595889
303.474 4.00317 0.537025
279.158 30.1551 0.120509
389.801 51.8793 0.13154
73.9772 8.36988 0.50806
185.171 46.9898 0.398309
570.43 56.4248 -0.40821
416.832 64.4859 -0.0777985
187.237 42.6439 -0.318987
150.906 45.8696 0.38998
593.366 61.0312 0.424055
594.681 18.4648 -0.606488
496.714 5.30968 -0.525617
178.676 26.5249 -0.105712
446.878 41.8276 0.121193
449.738 39.8638 0.259103
361.035 7.58682 -0.133972
412.974 0.958341 0.480504
566.535 66.28 0.495055
78.8243 33.7032 0.231062
511.827 52.2541 -0.58077
254.237 17.8399 -0.312008
8.46759 2.55758 -0.389202
117.743 39.2254 -0.194227
61.4336 25.6121 0.470551
536.405 60.1016 0.327598
582.864 90.6829 0.185024
173.013 30.2867 -0.170398
588.325 18.2502 0.491515
40.2712 40.606 -0.254335
85.0123 32.6917 0.157443
501.728 32.5344 -0.483646
365.847 19.6059 -0.568826
435.601 22.9444 0.164942
225.097 32.8451 0.194583
504.726 14.9908 0.54946
597.616 15.0355 0.517163
25.329 37.7291 -0.358665
253.728 7.90903 -0.202804
209.573 16.2403 -0.309461
1.10012 36.8677 0.164415
212.534 14.8147 -0.474866
199.494 11.2692 0.121392
201.744 26.9607 0.274966
124.783 29.6673 -0.126095
451.671 21.3085 -0.448028
156.027 14.6888 -0.426575
582.957 79.1439 0.235445
163.61 4.30073 0.568366
42.8592 41.1062 -0.408646
575.64 95.8428 -0.426724
262.578 36.0046 -0.385162
524.733 59.828 0.498304
582.495 57.9787 -0.507505
277.957 11.1969 0.236199
545.105 49.9933 -0.382406
301.539 2.37219 -0.393059
364.302 31.1885 0.440599
522.479 35.859 -0.554107
97.482 12.5166 -0.439228
414.492 3.9361 0.449383
560.066 34.5152 0.209819
80.6771 7.81772 -0.318163
261.661 17.6291 -0.222464
372.625 12.7017 0.351126
590.513 7.75175 0.6067
354.13 1.97592 -0.580038
164.751 40.8436 -0.28798
554.314 21.0223 -0.566885
120.972 38.6424 0.211863
245.94 36.0906 -0.381364
355.588 27.9498 -0.212906
472.01 16.5173 -0.488742
344.435 10.4838 -0.665615
391.045 35.7594 -0.569096
569.763 79.3695 -0.40342
42.736 12.0811 0.207104
276.502 47.346 0.350302
344.648 36.6916 -0.46672
361.522 23.9668 -0.327116
437.851 82.313 -0.356864
560.152 62.068 0.292343
513.912 82.3192 -0.350692
212.107 36.5548 0.406997
12.6312 36.36 -0.198488
506.971 81.4906 -0.146845
424.871 78.2972 -0.458388
215.602 42.1608 -0.162463
525.821 74.7106 0.112285
141.012 9.61813 -0.195118
334.097 29.2969 0.275548
390.788 53.8206 -0.111427
366.432 22.6374 0.213752
566.751 77.8579 -0.344191
375.527 4.85445 0.67435
43.4234 29.1606 -0.29233
400.16 45.486 0.405564
401.251 76.0855 -0.323267
588.905 77.3107 -0.236823
548.371 68.8321 0.239552
447.771 24.2675 -0.185658
579.278 72.8676 -0.477054
271.974 3.72385 -0.618657
350.941 43.4966 0.510632
26.3033 46.229 0.312178
543.405 57.2897 0.192353
485.361 31.6121 -0.562647
402.592 0.74227 0.544409
116.702 4.82353 -0.381375
391.566 72.6644 0.0996154
10.9113 0.884245 -0.297911
589.018 11.7555 -0.163906
340.843 51.3006 -0.457799
500.326 13.6046 0.396759
[...]
POINT_DATA 13483
TENSORS Strain_matrix float
-3.15385 -0.34282 6.76425 
-0.928794 0.607959 3.70485 
1.47452e-18 -1.14685e-17 1 

-0.438621 0.869981 -62.5615 
0.63263 1.00372 -13.9012 
2.57537e-18 -1.0534e-17 1 

-0.179817 -0.135123 0.194319 
0.108587 -0.00872415 0.429715 
1.69069e-17 1.0543e-17 1 

-1.62637 0.296944 -2.36727 
-0.654516 0.748742 -0.545478 
-8.18964e-18 1.34865e-18 1 

-1.85123 -0.0598277 0.104119 
0.40549 0.764091 0.621111 
-7.42543e-18 -9.28179e-19 1 

-0.190941 0.00869969 -0.184211 
-0.0579341 0.0152919 -0.126924 
-6.31241e-18 1.61756e-17 1 

-0.13927 -0.0149282 0.596217 
-0.0226143 -0.0606537 -1.03145 
9.75072e-18 4.1348e-18 1 

-0.417875 0.0656984 0.378954 
0.157712 0.0572283 -0.194325 
-1.14701e-17 -1.13314e-18 1 

-0.616143 0.276778 -2.39028 
-0.223963 0.437013 1.94413 
-1.7538e-18 -1.73991e-17 1 

-0.14763 0.594639 0.317473 
-0.999752 0.206871 -0.339929 
1.10733e-18 -1.25959e-17 1 

-0.138734 -0.0737548 0.111908 
0.0953561 -0.0589508 -0.0973583 
3.48399e-18 -6.44798e-18 1 

-0.323039 -0.0136584 -0.958599 
-0.125166 0.0540364 -1.12154 
4.45813e-18 5.87169e-18 1 

-1.44657 -0.621823 1.65288 
0.320517 0.585513 -0.930553 
2.59448e-18 -7.19377e-18 1 

-0.175953 -1.21655 -1.22356 
0.695006 0.823348 -0.450563 
8.75251e-18 1.66745e-17 1 

-0.202342 -0.015943 -0.0440332 
0.146847 0.0640904 -0.169617 
1.32263e-17 7.45062e-18 1 

-0.226161 -0.180255 1.40635 
0.0963943 0.0399206 0.849934 
6.44378e-18 -1.4767e-18 1 

-0.119795 -0.073196 0.0219677 
0.0354475 -0.103901 -0.0572242 
1.66383e-18 -4.638e-18 1 

-0.310467 -0.0298151 -0.0636209 
0.111087 -0.101446 0.0737408 
1.41405e-17 6.62835e-19 1 

-0.409597 0.0167269 0.343632 
0.0684299 0.0477604 0.689728 
-7.27843e-18 7.08544e-18 1 

-0.68986 0.201955 21.3844 
-0.495906 0.293313 8.89861 
-5.53263e-18 6.80664e-18 1 

-0.115126 -0.624741 -0.39479 
0.591807 0.231221 0.00906522 
1.28702e-18 -4.96016e-18 1 

-1.2119 0.01513 0.993067 
-0.206206 0.573816 0.786893 
-2.85026e-18 1.16934e-18 1 

-1.6505 -1.11682 -2.63199 
0.162364 0.852165 -2.61898 
-1.23278e-17 1.1286e-17 1 

0.481425 1.00706 0.13828 
-1.08863 0.804262 -0.0486668 
4.10099e-18 1.06626e-17 1 

-0.452249 -0.579995 1.14786 
0.197789 0.357375 0.608533 
1.83856e-17 7.82201e-18 1 

-0.29666 -0.54862 0.762053 
0.243819 0.282986 -0.543457 
3.41604e-18 4.02437e-18 1 

-0.898965 0.172292 12.7654 
0.104819 0.374641 1.90406 
-6.05389e-18 8.56537e-18 1 

-0.327351 -1.00751 -1.23015 
0.636811 0.396845 0.513837 
-1.1401e-17 -2.26559e-17 1 

-0.294052 -0.232725 -4.06116 
0.167091 0.162301 -7.07516 
-1.29816e-17 -1.2202e-17 1 

-8.12029 1.83777 -10.63 
1.4531 -0.599765 -2.48548 
-8.34898e-19 9.86503e-18 1 

-0.838792 -0.512678 0.229283 
0.715649 0.308044 -0.202819 
3.26877e-19 5.88379e-18 1 

-0.380312 -0.391531 -1.11114 
0.0522204 0.150073 0.202013 
4.61534e-18 1.10217e-18 1 

0.424941 -0.976531 -1.8625 
0.579709 0.292865 2.16651 
-2.63181e-18 -6.00327e-18 1 

-1.14044 -0.0243221 -1.25924 
-0.0489763 0.582455 -2.37527 
1.05939e-17 1.16988e-17 1 

-0.109853 -0.159075 0.0360178 
0.144603 -0.0718875 0.237189 
1.58188e-18 -5.40476e-18 1 

-0.680593 1.35445 -6.44519 
-0.856807 0.843835 0.269603 
7.19159e-18 6.72625e-18 1 

-1.01857 -0.112263 -1.5869 
-0.0399938 0.409618 -1.78391 
-5.6638e-18 -1.4038e-17 1 

-0.809202 0.175672 0.159327 
-0.111476 0.255037 -1.31893 
-7.24747e-18 -9.1882e-18 1 

-1.07189 -0.412935 -3.46178 
0.181826 0.340863 -0.56532 
6.11177e-18 8.02486e-18 1 

-0.270298 0.0962765 -11.575 
0.132741 0.206912 8.04045 
-9.85569e-20 6.63682e-18 1 

-0.410537 -0.0820075 0.186046 
-0.0247652 0.114264 -0.248337 
1.25938e-17 8.52704e-19 1 

-0.141177 -0.21706 -0.0168066 
0.386044 0.0918321 -0.251905 
-1.15168e-17 7.08726e-18 1 

-1.36619 0.693793 -1.03512 
-1.61417 1.29083 -0.224272 
1.65569e-17 1.27361e-18 1 

-0.176341 0.080483 0.406101 
-0.0879432 -0.0668544 1.31302 
5.12417e-18 2.56393e-17 1 

-0.268012 0.123509 0.252801 
-0.0520271 0.011861 0.117012 
8.32048e-18 8.89103e-18 1 

-0.226138 -0.114265 0.187519 
0.00862591 0.0955861 -0.192806 
2.52754e-18 4.19387e-18 1 

-0.59719 -0.665909 -2.66449 
0.239404 0.36273 4.7674 
1.10036e-17 -3.77196e-18 1 

-0.0593873 -0.0197471 0.00646722 
0.0298644 -0.194975 -0.0272986 
-7.19096e-18 5.01047e-18 1 

0.111211 -0.615319 0.132943 
0.652361 0.159694 -0.0555623 
-3.5949e-18 6.63674e-18 1 

-1.50634 -0.885752 8.74849 
-0.0793362 0.138336 -2.49734 
-1.35807e-18 -2.07851e-18 1 

-0.226508 0.0582802 -0.0891121 
-0.0785352 0.0989928 0.588358 
-2.9094e-18 3.00032e-18 1 

-0.0463117 -0.432143 0.585355 
0.547581 0.185171 -0.0620248 
2.59354e-18 5.70315e-18 1 

-0.262583 -0.0390484 -0.663317 
-0.200199 0.108377 0.680822 
3.59544e-18 -2.95576e-18 1 

-0.681563 0.148496 0.139733 
0.0213531 0.218153 0.442749 
-2.11733e-19 -1.73974e-17 1 

-0.201777 0.045853 1.00532 
-0.00262117 -0.0835916 0.551879 
5.47543e-18 -4.70887e-18 1 

-1.17579 -0.177589 -14.0873 
0.313847 0.568383 -15.4028 
1.52102e-18 -2.91045e-18 1 

-1.57585 0.38163 -5.35174 
0.169764 0.492437 2.06266 
9.29085e-18 5.54678e-19 1 

-0.142918 0.107436 0.834263 
0.0218863 -0.0275708 -0.519269 
-2.37165e-18 9.34064e-18 1 

-0.0916094 0.132207 0.0954744 
-0.111536 -0.122222 -0.0691777 
-7.76304e-18 9.52266e-18 1 

-0.479862 -0.0920594 2.018 
0.203724 0.361015 -0.203825 
3.5671e-18 1.29732e-17 1 

-0.815801 -2.93662 -13.9698 
-0.0401571 1.09015 -1.39685 
4.70463e-18 -5.96693e-18 1 

-0.0517432 -0.435467 -0.891643 
0.531692 0.23925 0.421402 
9.60015e-18 1.67538e-17 1 

-0.164947 -0.268397 -0.30186 
-0.0337798 -0.0576601 -0.160383 
-7.18247e-18 1.17387e-17 1 

-0.555183 -0.811177 -2.0232 
0.534439 0.463767 3.19505 
1.48143e-17 6.3539e-18 1 

-0.0622425 -0.0332645 0.0930883 
0.0464518 -0.000664276 0.0258832 
2.84298e-18 -3.77511e-18 1 

-0.540936 -0.106452 0.771263 
0.320066 0.230443 0.680644 
1.59806e-18 -4.98789e-18 1 

-1.01137 0.30052 0.314601 
-1.40011 0.551626 -0.0569185 
1.87785e-17 7.69197e-18 1 

-1.93678 1.83402 22.3204 
0.192903 0.368829 4.1485 
4.62481e-18 2.86842e-18 1 

-0.431659 0.0714244 0.508191 
-0.246985 0.0329315 0.126275 
-4.36375e-18 -6.80626e-18 1 

-0.690804 0.150924 0.0857539 
0.0702762 -0.0216666 0.511292 
9.7846e-18 9.74112e-18 1 

-1.36013 -1.77469 -0.456603 
-0.00568293 0.566877 -1.49084 
1.03041e-17 1.0723e-17 1 

-0.14327 0.0619716 -0.11012 
-0.0600681 -0.046427 0.251483 
1.59965e-18 3.02177e-20 1 

-1.3512 -0.561449 -8.1826 
-0.0922671 0.556476 1.33088 
8.80575e-18 -2.05219e-18 1 

-0.811418 -2.5195 0.955548 
0.406534 0.811447 -0.794794 
-8.65968e-19 4.05923e-18 1 

-0.237742 0.0186681 0.532453 
0.0557393 0.0570186 -0.0214177 
-5.37042e-18 1.80481e-18 1 

-0.190306 0.0606989 0.0406655 
-0.101881 -0.0827355 0.0561253 
-6.71699e-18 -3.23411e-18 1 

-5.70177 5.35883 8.90095 
-1.45207 1.84231 2.23033 
-3.03918e-18 9.48834e-18 1 

-0.196223 0.0722585 -0.536206 
-0.00790554 -0.0266976 -0.274699 
-1.77004e-18 3.09756e-18 1 

-1.40387 -1.82766 -0.82512 
-0.550699 -0.278967 -1.3223 
-4.13979e-18 8.11363e-19 1 

-1.23438 -1.55804 0.152289 
0.969 1.2704 1.78008 
2.75806e-18 -1.07542e-17 1 

-0.367693 0.643586 0.228665 
-0.827445 0.438886 0.133934 
3.10793e-18 -3.45326e-19 1 

-0.118064 -0.307103 0.0567801 
0.330794 0.0339811 -1.04348 
4.15058e-18 2.72686e-17 1 

-0.0991322 -0.034025 -0.183635 
0.0620022 -0.017283 0.349045 
-7.61414e-18 6.03385e-18 1 

-0.344841 0.835522 -0.935351 
-0.496391 0.400882 -0.00112552 
5.84152e-18 1.02082e-17 1 

0.342394 -0.934622 0.19736 
0.797733 0.445317 -0.310143 
4.5827e-19 4.72681e-18 1 

-0.336483 0.0617196 -0.164498 
-0.114779 0.220997 0.0500351 
4.82689e-18 -4.29926e-18 1 

-1.73554 0.210722 2.11367 
0.0808818 0.769823 1.38041 
-1.54319e-17 3.57569e-18 1 

-0.264454 -0.0140961 -9.30963 
0.0565985 0.0999587 -0.2379 
-4.80365e-18 -1.25473e-18 1 

-1.38877 -0.388627 -2.13291 
0.916135 0.472066 0.328683 
-3.49886e-18 -4.85556e-18 1 

-0.277603 -0.0462007 -14.7883 
0.0116993 0.0854694 1.0889 
5.16427e-18 4.55006e-18 1 

-0.160808 -0.0484287 -0.122297 
-0.10482 -0.0314885 -0.100883 
3.94189e-18 -4.21843e-18 1 

-0.527237 0.259931 -0.898113 
-0.0467234 0.170162 0.807987 
3.51098e-18 -4.17762e-18 1 

-0.17495 0.532009 -4.64479 
-0.505374 0.24183 3.75962 
1.74814e-17 -9.30567e-18 1 

-0.116744 -0.0687474 -0.468543 
-0.103916 -0.00586116 -0.220253 
2.43518e-18 -8.1354e-18 1 

-0.0427904 0.284276 -0.0503374 
-0.22996 0.0230777 -0.0811096 
-5.28911e-18 -2.91208e-18 1 

-0.839661 0.632165 -0.971829 
0.0675058 0.428123 -0.545122 
-1.72998e-17 -9.52741e-18 1 

-0.272196 0.0581794 -0.0292681 
0.020814 -0.0358035 -0.8118 
7.76796e-18 4.04996e-18 1 

-0.25673 -0.0318331 -0.560704 
-0.139764 -0.0286934 -0.431926 
-3.8774e-18 -9.16477e-18 1 

-1.67165 0.176078 0.982098 
0.529513 0.491458 -0.937366 
-5.3742e-18 -1.79862e-18 1 

-0.569619 -0.0487229 0.154871 
0.411807 0.253235 0.130664 
-1.72638e-17 5.64996e-18 1 

-0.230583 -0.193386 -0.216123 
0.0220685 0.143386 -0.0778827 
3.47596e-18 -1.46672e-18 1 

-0.223919 0.078383 14.9056 
-0.691916 0.443292 -4.98602 
1.18314e-18 -4.67108e-18 1 

-0.394729 0.0332575 -2.93858 
0.00198715 0.0588313 4.28829 
-1.24196e-17 9.2733e-19 1 

-7.74178 7.13729 2.59302 
-0.738933 2.21647 -1.45819 
-6.80873e-18 -3.5935e-18 1 

-0.783899 0.487288 2.23987 
-0.559743 0.442586 0.77616 
1.23109e-17 3.046e-18 1 

-0.561542 -0.437004 0.0148805 
0.359407 0.199341 0.364546 
7.98465e-18 -1.56891e-17 1 

-1.53062 -0.0912127 0.943786 
-1.0676 0.463637 0.611961 
5.70841e-18 -8.86058e-18 1 

-0.215816 -0.0140653 0.419849 
-0.0389733 0.023968 1.03275 
-5.29798e-18 -4.72507e-19 1 

-0.29639 -0.0728438 -0.223218 
0.0891868 -0.0664534 0.367176 
4.98932e-18 -7.76116e-18 1 

-0.66959 0.178714 -1.51611 
-0.391724 0.100544 -2.39291 
6.34282e-19 1.41581e-17 1 

-0.211515 -0.488366 2.17473 
0.0947142 0.786238 16.5205 
-4.08748e-18 7.15575e-18 1 

-0.286298 -0.137143 0.00398601 
0.140348 0.239843 -1.8839 
-2.28428e-19 -7.09292e-18 1 

-0.369418 0.333443 -0.424817 
-0.208999 0.139318 -0.269998 
3.4394e-18 -1.43472e-17 1 

-0.0747453 0.276325 -0.513165 
-0.228797 -0.00249099 0.111263 
1.47795e-17 -1.66334e-18 1 

-1.47214 0.442882 -4.25763 
0.371196 0.310429 1.55529 
-3.65915e-18 -9.22572e-18 1 

-0.149023 -0.0550397 -1.68593 
0.00526756 -0.0148634 -1.43646 
-7.49024e-18 2.34999e-17 1 

-0.288901 -0.268886 -0.224652 
-0.0196414 0.0141819 0.0581899 
6.81035e-18 -1.09867e-18 1 

-0.323237 0.242073 -0.0617007 
-0.193516 0.023804 -0.375509 
1.25269e-17 1.72245e-18 1 

-1.60136 -2.43919 1.50428 
0.235098 0.524129 -0.914717 
8.91654e-18 4.83609e-18 1 

-0.0335147 -0.461588 -0.106688 
0.41531 0.0714269 -0.00765116 
-2.60289e-18 -1.53281e-17 1 

-0.869218 -0.653738 7.2131 
0.451829 0.40222 -1.31445 
-2.29402e-18 3.19871e-18 1 

-0.388672 -0.00135784 -0.0291682 
-0.514187 -0.0902703 -0.15465 
1.97375e-17 8.11246e-18 1 

-0.158989 -0.252826 0.15415 
0.216703 0.071388 -0.0253394 
3.23809e-18 2.22792e-17 1 

-0.264882 -0.689966 -1.30877 
0.909863 0.614734 0.449549 
-4.18235e-18 -1.29738e-17 1 

-0.288722 -0.012173 -5.03294 
0.0952953 0.122506 4.64388 
-6.31883e-19 1.88168e-18 1 

-0.592114 -0.0946317 -0.330633 
-0.0355097 -0.00277448 -0.0588115 
1.07909e-17 5.84505e-19 1 

-0.19524 0.140081 -0.25691 
-0.209039 0.00659595 0.0985538 
-4.92901e-18 -6.85776e-18 1 

-0.356623 0.444979 -0.396909 
-0.151454 0.198954 0.406457 
9.53406e-18 -4.19681e-18 1 

0.302289 0.708023 0.141154 
-0.829669 0.253539 -0.049013 
-3.84909e-18 -6.45426e-18 1 

-0.407727 0.124286 -0.669899 
0.0259564 -0.00485924 -0.331933 
2.04552e-17 1.54995e-17 1 

-1.40323 1.56763 -5.74701 
-0.233197 -0.589336 2.1156 
-1.20124e-18 -8.2022e-18 1 

0.0387745 -0.106142 0.166563 
0.0963122 -0.0324004 -0.142106 
1.52386e-17 1.92031e-17 1 

-0.72664 0.511632 -5.45754 
0.148347 0.242985 -0.649664 
-1.63771e-18 7.69044e-18 1 

-2.30796 0.944142 1.07226 
-1.68205 1.30517 -0.0924233 
-8.24546e-18 -5.80284e-18 1 

-0.880707 0.570312 2.21586 
-0.188732 0.239275 -0.159397 
-8.07366e-19 -8.5705e-18 1 

-0.185893 -0.0269297 1.25154 
-0.108213 0.124124 0.00215125 
-5.30286e-19 1.07741e-18 1 

-1.1146 -0.209361 -1.24012 
0.308406 0.494644 0.62078 
-1.20545e-18 7.8354e-18 1 

-0.130589 0.100764 -0.271093 
0.145504 -0.00162796 -0.531547 
1.27194e-18 -5.17338e-18 1 

-0.490279 -0.118045 -0.484782 
0.315698 0.0950179 0.118523 
4.14593e-18 -1.1388e-17 1 

-0.144066 -0.062222 0.302255 
0.0619146 -0.0628741 0.106473 
-4.58866e-18 4.58866e-18 1 

-0.258561 0.339132 -0.738792 
-0.363609 0.0739456 0.590726 
-1.45259e-17 1.65127e-17 1 

-0.152151 0.0479549 -0.548364 
0.123781 -0.00374897 0.164633 
4.85334e-19 2.25268e-18 1 

-0.298174 -0.779694 1.95473 
0.543549 0.398541 -0.0986407 
-7.80791e-18 1.34267e-17 1 

-0.11619 -0.0157161 -2.31555 
-0.0296141 -0.0285363 -2.39226 
5.25141e-18 -8.28771e-18 1 

-0.0863705 0.0534834 -0.00297696 
-0.108917 -0.0199002 -0.230746 
4.30118e-18 -5.92138e-18 1 

-0.0492314 -0.91508 0.644992 
0.449024 0.287336 -0.293015 
-8.92808e-18 -6.41286e-18 1 

-0.564558 0.0609059 1.13294 
-0.0401541 0.0418252 -0.278377 
-2.0804e-17 8.32514e-18 1 

-0.171559 -0.00411176 -0.374247 
0.000678499 -0.0615409 -0.363013 
5.24155e-18 2.22192e-17 1 

-0.321891 -0.507212 -3.14109 
-0.16747 -0.00442927 -0.515041 
4.437e-18 9.49026e-18 1 

-0.167321 0.132732 -0.333068 
-0.139042 0.159376 -0.273157 
-5.35072e-19 -2.28435e-18 1 

-0.525331 0.435846 -10.3782 
0.119327 0.19106 -11.094 
-2.54399e-18 3.43014e-18 1 

-1.26622 1.21917 0.542759 
0.334964 0.653408 -1.55784 
-7.28874e-19 -4.6469e-18 1 

-0.230247 0.047373 -4.47439 
-0.0372855 0.0336234 0.861723 
1.04321e-18 -2.19225e-19 1 

-0.194095 0.132558 -0.392318 
-0.112141 0.0546835 -3.37019 
-6.77485e-18 5.13546e-19 1 

-0.195858 0.10537 0.296786 
-0.155963 -0.0209916 0.778598 
-3.26193e-18 1.49165e-17 1 

-0.690778 -0.679511 1.11157 
-0.524651 0.0658637 0.772727 
1.32921e-18 -1.61768e-17 1 

-1.34626 -1.29218 17.35 
-0.0743056 0.534805 -2.10989 
-4.30228e-18 -4.12547e-19 1 

-0.159954 0.090897 3.21076 
-0.0327195 0.0164268 2.57364 
2.8286e-18 3.45402e-18 1 

-5.78464 0.925137 -4.86444 
1.11666 1.41221 -0.494325 
-1.43953e-18 6.93716e-18 1 

-3.2757 -2.15979 3.54532 
0.0193853 0.709418 3.59841 
-1.60021e-18 7.18144e-18 1 

-0.490096 -0.323259 -22.0221 
0.552668 0.316065 -2.27254 
-1.03016e-17 -3.6459e-18 1 

-1.8143 -0.588531 -1.00233 
0.678174 0.572263 -0.276275 
7.27006e-18 -6.29082e-18 1 

-0.785612 -1.44032 1.67369 
-0.0342241 0.333107 -1.77428 
-3.6057e-18 1.4714e-17 1 

-0.594236 -3.3805 447.245 
0.051402 0.591437 17.6509 
-1.91847e-18 -4.94362e-18 1 

-1.08733 -0.711467 1.89606 
-0.034418 0.390154 0.786529 
1.11103e-17 -1.0163e-17 1 

-2.35303 -0.32996 0.127496 
0.317225 0.582256 0.192608 
9.85163e-18 -1.25093e-17 1 

-0.038307 -0.00765845 0.0531413 
0.0307876 -0.0838353 0.0748523 
4.41449e-18 1.02607e-17 1 

-0.139912 0.00966511 0.0238082 
0.00544239 -0.012867 -0.0397952 
-4.77662e-18 6.11523e-18 1 

-0.14322 -0.099569 0.154077 
0.130475 -0.102237 -0.558614 
-5.40431e-18 -1.06091e-17 1 

-0.264406 -0.157053 0.0308714 
0.0462283 -0.0206774 -0.624564 
3.63514e-18 -6.67032e-18 1 

-0.268352 -0.0530999 -1.02647 
-0.15913 0.118059 0.325861 
-1.12843e-17 1.63352e-17 1 

-0.160008 0.132986 -0.298299 
0.00928134 0.0492766 -0.748379 
3.2968e-18 -6.23231e-19 1 

-0.488728 -0.348131 -3.89592 
0.0296019 0.278784 0.0743701 
2.35667e-18 5.61854e-18 1 

-0.471686 -0.461369 -1.29291 
-0.0612526 0.141551 1.21832 
5.09758e-19 -5.74637e-18 1 

-0.127233 -0.506093 -0.00763024 
0.640993 0.302715 0.164262 
1.67497e-18 1.38618e-18 1 

-1.12948 -0.349377 7.04762 
0.417828 0.574354 -0.0272198 
-5.3198e-18 -7.46639e-19 1 

0.566152 -1.03599 1.46115 
0.945151 0.715979 -0.696435 
-4.05304e-19 1.14701e-17 1 

-0.370373 0.357841 -0.0210069 
-0.0955613 0.147045 0.0421051 
-6.3428e-18 5.00747e-18 1 

-0.400247 0.466247 -1.43542 
-0.379325 0.591229 -14.4657 
2.1065e-18 -2.38634e-18 1 

-0.35819 -0.070726 -0.00538812 
0.111752 -0.100557 -0.479285 
3.21255e-18 -4.41726e-18 1 

-0.271482 -0.312209 -3.15359 
0.340484 0.103643 0.458626 
-6.62094e-18 3.4847e-20 1 

-1.10175 0.624199 -0.128686 
-0.224044 0.356749 -0.659812 
2.28671e-18 5.68214e-18 1 

-1.16665 0.394479 -2.68716 
0.0510839 0.319147 -1.36843 
-1.02123e-17 -1.94784e-17 1 

-0.145482 -0.0680506 1.86957 
0.0873848 -0.0316478 2.43171 
5.46017e-18 -4.18863e-18 1 

-0.94789 -0.171367 0.445369 
-0.38606 0.228238 -0.950814 
5.30961e-18 -5.05231e-18 1 

-0.310304 0.0843398 0.756992 
-0.189082 -0.0681554 0.0602946 
-1.21733e-17 -4.90042e-18 1 

0.035755 0.448583 -1.25452 
-0.393575 0.29284 -0.431098 
4.88426e-18 -6.58671e-18 1 

-0.252915 -0.0296386 -0.299404 
0.315275 0.186704 -0.578439 
5.01949e-18 8.48364e-18 1 

-0.161479 -0.177163 -1.60866 
-0.0429014 -0.0674029 -1.87928 
-1.49175e-17 5.87583e-18 1 

-2.56857 0.0764236 2.97508 
0.50559 0.533663 1.44716 
8.47697e-18 -1.15144e-17 1 

-0.229982 0.142308 -0.165895 
-0.143237 0.18599 -0.255646 
-6.87527e-18 3.48567e-18 1 

-0.772858 -0.0188187 -1.58466 
-0.00423234 0.477786 -2.84349 
6.25231e-18 -3.72699e-18 1 

-3.63146 -1.02374 -3.72215 
0.161603 0.715258 -0.462184 
1.58077e-18 -9.033e-18 1 

-3.08198 -0.639748 -0.315883 
-0.384661 0.7586 -2.51401 
-1.25137e-17 -9.91675e-18 1 

-2.94333 -0.349528 3.38837 
0.296443 0.575059 0.314753 
4.75862e-18 -2.46021e-18 1 

-0.0247366 -0.280466 0.0606699 
0.256365 0.0591763 0.280039 
-1.56815e-17 8.9517e-18 1 

-0.232354 0.370486 0.234625 
-0.399071 0.0134495 -0.17887 
-1.26419e-17 1.7287e-17 1 

-1.88254 2.3776 -5.64404 
0.010314 1.06553 -0.087235 
-6.15993e-18 1.47919e-17 1 

-0.648558 -0.0621863 0.167001 
-0.309577 0.12243 0.0893966 
4.9938e-18 -1.33861e-17 1 

-0.284603 -0.51188 1.03311 
0.701961 0.3345 -3.04715 
2.09033e-17 0 1 

-0.169296 -0.452479 0.468962 
0.208412 0.0719967 0.471737 
-6.73085e-18 -1.20739e-17 1 

-0.394791 -0.0558945 -0.209856 
-0.0667078 0.212816 0.560164 
8.33928e-18 1.32947e-17 1 

-1.46033 0.793501 -2.1879 
-0.386198 0.605126 0.186263 
6.38572e-18 6.05824e-18 1 

-0.687026 -0.271916 1.6967 
0.19617 0.599926 1.4002 
-1.16833e-18 -1.33055e-17 1 

-0.391642 0.181034 -0.438035 
0.079288 0.172714 -0.524704 
-5.20438e-18 2.89381e-18 1 

-2.02739 -0.298591 1.56278 
-0.0182846 0.549548 -0.218287 
0 -8.93675e-18 1 

-0.108579 -0.208209 0.616008 
0.0885206 0.0339522 -1.11277 
-2.8649e-18 8.41294e-18 1 

-0.130826 -0.00736694 -0.15723 
0.038041 0.03284 0.415951 
-1.95067e-18 -5.38114e-19 1 

-1.75427 -0.864014 -4.41997 
0.135501 0.603112 0.741378 
-2.65963e-18 7.76978e-18 1 

-3.55779 3.49727 -16.9637 
0.429168 0.348792 -0.951816 
-4.94838e-18 7.9819e-18 1 

-0.356775 -0.399739 2.12601 
-0.184669 0.153667 -1.51265 
-2.02207e-18 -2.30853e-18 1 

-0.946522 0.100822 -0.772116 
0.16322 0.205138 -2.35218 
1.40396e-17 -3.68373e-19 1 

-0.137449 -0.00291561 -0.341666 
0.04492 0.0562113 -0.281569 
2.50159e-18 8.24701e-19 1 

-0.423679 0.0325055 1.95414 
0.052854 0.268509 -3.38356 
2.7876e-19 -1.57964e-18 1 

-1.34305 -0.398816 1.12411 
-0.27366 0.423207 -2.53653 
-3.2085e-18 1.09001e-17 1 

-0.687491 0.333983 1.6558 
-0.0499965 0.30849 -1.10151 
5.11229e-18 1.54033e-18 1 

-0.30593 4.32694 21.9859 
0.0194689 0.217676 -1.15576 
-3.65166e-19 1.71326e-18 1 

-0.53735 0.308332 -52.1455 
-0.226165 0.137517 -0.0781047 
1.27686e-18 2.04298e-19 1 

-0.824426 0.893311 7.60654 
-0.732744 0.50091 2.20641 
8.12274e-18 -2.73608e-19 1 

0.0196845 -0.567517 0.0860617 
0.471002 0.113146 -0.279487 
7.38396e-18 3.95198e-18 1 

-1.43501 -0.0524579 7.92396 
0.318779 0.443344 -2.20535 
1.68442e-17 -4.16851e-17 1 

-0.809614 0.359802 -0.909619 
0.359534 0.253325 0.167897 
-1.68957e-17 -2.09418e-17 1 

-0.132731 -0.0028084 -0.0222964 
-0.0554905 -0.0495392 0.0502151 
7.16428e-18 -1.7991e-18 1 

-0.793934 -0.103065 -78.6448 
0.512921 0.459871 -2.42672 
-2.27906e-18 2.29517e-18 1 

-2.71435 -4.40177 -1.12298 
0.822998 1.60027 -2.79208 
2.20707e-18 -6.15433e-19 1 

-0.208712 -0.347177 0.484168 
0.00984354 0.252083 0.367796 
-1.02043e-17 -1.31431e-17 1 

-0.143058 -0.0536222 -0.375781 
0.064533 -0.0834006 -0.23208 
-6.38735e-18 -3.54853e-19 1 

-0.369375 -0.0320362 -0.435875 
0.0109151 0.0896007 -0.0293184 