# vtk DataFile Version 3.0
Output file generated by Yade's KinematicLocalisationAnalyser
ASCII
DATASET UNSTRUCTURED_GRID

POINTS 13483 float
471.313 42.8101 -0.629799
560.068 88.4709 -0.541539
108.287 5.83671 -0.488284
596.091 9.36204 0.559544
404.008 14.1805 0.381811
278.735 54.3438 -0.522196
142.522 7.11688 0.486751
449.13 11.6458 -0.176365
403.926 40.1178 0.161146
547.624 18.8216 -0.430113
190.333 9.70292 -0.172563
232.806 6.12442 -0.269746
489.775 56.2592 0.14843
486.467 35.1719 -0.0883124
123.847 19.5115 -0.455453
198.699 39.6815 0.386445
196.765 13.2978 -0.294697
258.888 12.1828 0.475903
300.777 45.6668 0.438125
417.734 10.7879 0.487258
358.528 64.2577 -0.0994614
456.476 51.3708 0.299263
586.282 69.1105 -0.46452
512.761 63.6161 0.444785
379.709 22.946 0.322453
216.894 48.2422 -0.177832
398.392 50.6315 -0.492925
459.669 23.7373 -0.229489
39.6531 18.2072 0.511255
533.27 47.8527 -0.363897
393.979 4.36486 0.468607
13.2082 26.3317 0.332006
574.529 86.8967 0.242831
403.187 3.99138 0.566894
70.2295 48.376 -0.108051
417.115 45.8725 0.355014
424.271 27.3874 -0.475843
297.731 32.3567 0.193884
427.362 39.1836 -0.410231
309.538 54.9262 -0.414369
219.239 14.8569 -0.318815
365.832 60.995 0.0594012
515.098 5.21081 0.26199
175.406 6.193 0.428372
49.3116 7.31231 0.0695114
60.6901 9.12391 -0.283211
527.854 8.384 -0.525614
21.7987 12.0429 -0.30129
450.841 64.796 0.377523
514.362 36.8452 0.486296
154.761 35.4294 0.282055
555.431 77.1238 0.134121
30.7129 30.5095 -0.121834
424.614 2.60816 0.583142
128.688 7.22846 -0.50332
466.885 44.6446 0.4663
405.997 46.6833 -0.137529
160.23 0.97495 0.294462
30.3075 2.3476 0.342203
302.281 27.693 0.277471
447.301 84.543 -0.13197
385.48 47.5681 -0.173325
332.383 3.78424 -0.30088
536.43 9.47759 -0.585977
22.6374 44.7958 -0.273172
232.057 35.1769 0.298728
551.15 11.7729 -0.270687
501.205 83.2903 0.346184
348.055 9.07482 -0.662966
451.708 5.49229 -0.438158
553.602 56.7787 0.445431
118.552 8.25226 0.25768
403.76 45.6298 -0.132989
393.51 25.1108 -0.145425
265.046 18.651 -0.394157
18.979 13.8611 -0.265062
574.98 78.8718 -0.316294
292.779 50.3578 -0.331084
515.317 35.1899 0.355149
526.013 14.9095 0.244837
586.054 40.7607 -0.225636
385.349 52.6199 -0.179147
84.2781 44.2926 0.154496
507.918 54.5848 0.264153
478.4 74.2428 0.103362
590.767 74.1091 0.114355
586.228 0.777555 -0.73612
263.88 31.1349 0.464105
492.587 10.3926 -0.283794
22.6164 5.40035 0.656836
122.085 44.019 -0.181369
415.78 22.9263 0.22782
568.817 62.6128 -0.488901
178.957 33.1618 -0.234085
39.2137 40.1206 -0.302517
403.105 2.54544 -0.211217
214.874 8.65201 -0.455454
534.658 82.4596 0.261304
562.937 47.5966 0.257453
311.36 42.4226 -0.254333
148.993 28.2288 -0.477023
434.707 73.6788 -0.430236
325.211 29.741 -0.480856
350.598 37.3247 0.112539
320.35 20.1425 0.501864
434.728 13.949 0.167589
597.236 22.3545 0.177509
72.7083 43.6067 -0.380786
300.808 5.91273 -0.162238
445.228 14.532 0.392446
315.512 68.6424 0.0724726
21.3665 26.5021 -0.460421
28.2527 5.73571 0.286362
444.271 47.3449 0.475787
409.42 41.4916 -0.164042
21.9303 37.9737 0.410983
84.0462 33.4443 0.226087
290.55 17.2079 0.395509
475.543 23.4831 0.125497
382.145 64.2859 -0.299764
561.225 13.3601 0.412715
558.327 7.4513 0.244304
338.657 50.1859 -0.10987
488.079 51.5556 0.105438
217.36 18.3158 -0.4936
297.004 5.09374 0.479612
93.36 34.7913 0.30428
106.122 25.9878 -0.269675
431.697 79.4228 0.0799556
276.693 18.8089 0.524005
531.686 55.7431 0.110816
505.733 84.0496 0.107851
396.405 35.6463 -0.390417
586.03 18.0042 0.329939
358.938 32.8908 0.286991
250.113 30.8061 -0.30852
502.889 68.2736 0.274453
254.634 33.6537 0.42296
459.352 14.8136 -0.24453
294.726 47.4593 0.11311
410.477 20.4826 0.527129
324.131 52.784 -0.0840879
361.017 17.7677 -0.107918
282.65 58.4432 0.449932
175.901 32.771 -0.122512
565.092 86.7308 0.16096
594.177 27.7381 -0.260006
5.99613 12.8683 -0.444047
360.864 27.2054 -0.508714
34.66 25.2591 0.0808782
328.923 50.0679 -0.451459
338.822 34.9793 -0.254388
66.909 12.2931 -0.489322
44.7193 39.9237 -0.428188
207.17 14.2273 0.461138
447.342 78.4876 0.391619
456.803 25.8757 -0.487598
67.0215 21.9922 0.50319
516.086 65.8516 0.429965
576.51 7.18537 0.551825
494.949 76.7427 0.47028
534.28 1.77829 -0.519531
437.91 41.3771 -0.419817
455.886 49.8893 -0.470684
416.974 29.4299 -0.392801
595.837 6.12305 0.205729
206.62 28.5817 0.112185
119.186 39.5563 -0.198045
227.146 7.17024 -0.42379
85.4122 4.76738 0.30269
57.5431 11.385 0.190813
252.809 42.0418 -0.355877
14.324 27.6097 -0.383432
439.814 28.2406 0.477465
455.078 67.1726 -0.188006
388.779 32.8024 -0.418671
587.89 88.3461 -0.350582
341.755 8.92503 -0.204029
365.03 53.3298 -0.398105
431.959 3.38122 -0.330923
19.5485 25.0586 -0.377019
460.83 6.42203 0.512794
439.929 8.6536 -0.278456
188.672 12.4243 0.504927
357.609 18.3394 0.184148
282.075 6.34505 0.41798
332.659 30.387 -0.405239
542.668 70.1708 0.109209
177.795 28.5969 -0.408687
589.387 11.6547 -0.445526
545.07 67.2146 -0.343217
328.993 20.3404 0.2015
550.141 2.30022 0.504187
474.436 41.3694 -0.386705
557.889 27.9255 0.539335
372.219 58.2276 -0.276025
404.372 20.7341 0.45063
375.411 59.1121 0.22452
375.903 14.0559 0.207691
498.714 77.0026 0.275509
497.989 72.8819 0.312509
176.342 42.6521 0.345761
583.816 40.3989 -0.109478
459.303 48.3838 0.347819
10.3714 18.7905 0.194855
347.077 31.8037 0.415324
172.549 26.5394 0.410104
85.723 45.5048 -0.257134
567.734 53.2392 0.416682
492.771 81.8888 0.228538
287.022 30.5288 0.420177
428.61 10.4298 0.302284
75.1875 49.4868 0.168177
227.127 28.6464 -0.470711
441.661 33.1903 0.431866
401.943 30.3556 0.482121
241.539 0.871619 -0.542585
440.793 65.5639 0.346739
422.278 75.7069 -0.459713
394.924 62.8666 0.408604
408.978 5.43995 -0.583892
539.477 21.7418 -0.403649
166.068 13.0768 -0.182209
405.85 59.8719 0.497878
446.211 52.3247 -0.139817
65.9268 0.978109 -0.343632
231.551 4.6179 0.227454
592.881 31.1727 0.156278
586.397 42.6584 -0.4091
597.557 35.778 -0.477873
274.994 8.63214 -0.256412
561.606 33.7263 -0.464297
357.013 69.8507 0.308447
377.053 3.74398 0.553762
484.574 69.0057 -0.420599
22.5689 31.8166 0.335804
294.837 51.9192 -0.592835
232.573 2.80678 0.513811
578.413 85.0855 -0.174025
523.609 65.3168 -0.244575
261.201 13.4449 0.275832
496.998 61.8936 0.0880523
448.366 2.57516 0.33216
437.323 8.04361 0.55895
88.1924 19.951 -0.494812
274.935 1.03329 -0.249165
308.82 2.59705 -0.359228
13.1674 7.89304 -0.661541
2.68392 38.7826 -0.273583
148.931 19.8726 -0.332321
62.2501 45.2606 -0.234151
60.9267 32.4993 -0.323755
358.31 14.9637 -0.463928
324.994 58.6818 0.510076
551.864 78.471 0.114252
18.3904 4.09568 0.350074
63.7529 7.31691 -0.157832
458.297 74.0859 -0.174096
266.499 0.920529 0.400239
314.567 33.0439 -0.0764946
217.211 4.68743 -0.344563
505.406 44.7811 0.174955
379.136 13.587 0.49223
565.749 33.5833 -0.431722
480.979 59.4769 -0.305268
519.124 28.0763 0.078897
357.096 37.7272 0.510298
95.412 49.1792 -0.303163
437.143 76.925 -0.0090595
555.401 24.9479 0.177923
219.075 32.8874 -0.223201
29.0545 19.4895 0.182642
302.043 16.6284 0.463349
99.3211 42.809 -0.53012
247.348 50.1645 -0.190358
361.308 2.11195 -0.344008
571.03 72.4711 0.388217
529.352 0.738863 -0.540801
301.195 4.27046 0.488035
274.62 32.5824 0.150884
378.801 58.1031 0.0498351
74.0065 8.19819 0.606019
180.748 50.1248 -0.380181
563.226 57.8436 -0.386293
403.431 65.0178 0.0732784
184.014 46.9745 -0.275662
147.317 46.5598 -0.483868
594.865 67.3786 -0.44082
596.301 24.1135 -0.437134
487.083 3.66493 -0.694076
176.552 27.2026 -0.100454
438.084 46.5606 -0.117675
438.104 39.6833 0.313861
345.996 5.74722 -0.138151
400.17 0.965194 0.383338
549.959 81.4371 -0.519481
78.7509 34.465 0.215891
509.574 32.7703 0.50298
248.516 20.7812 -0.329006
8.713 2.36704 0.330377
117.237 40.753 -0.179193
60.5854 27.2655 0.437481
519.86 51.343 -0.324393
578.94 95.5355 0.17438
172.211 31.063 -0.169885
591.116 32.2224 -0.289525
40.7343 42.9813 -0.261125
83.6176 31.5022 0.159713
495.466 34.0309 0.406217
351.254 17.2721 -0.65501
422.632 28.0779 0.146575
219.936 31.1077 0.192081
497.634 10.817 -0.535553
597.489 26.7263 0.623219
25.561 33.3793 0.279115
247.947 8.72855 0.243164
204.824 16.0133 -0.224366
1.07406 47.6502 0.150498
208.236 15.1127 -0.396288
194.608 11.1266 0.102584
197.493 30.021 -0.290737
123.083 30.772 0.138275
437.761 21.1639 0.380674
153.475 14.794 -0.331356
572.06 84.6948 -0.221392
161.992 4.02064 -0.509568
41.9131 46.1346 0.4656
526.88 91.7047 -0.426093
260.081 36.0036 0.42408
515.376 37.5666 -0.609658
575.162 68.1287 -0.455906
273.183 9.368 0.177562
548.49 53.5641 0.351107
298.931 2.62294 -0.322254
353.481 27.8609 -0.364758
518.16 20.721 0.466852
96.7359 12.0973 0.508391
400.319 4.13999 -0.494057
567.153 27.5384 0.214115
79.872 7.69023 -0.401174
256.337 17.2928 0.198475
359.119 12.5284 -0.209507
594.262 2.25287 0.629386
335.478 3.5661 0.709165
161.748 40.1475 0.26485
557.674 21.4669 -0.389196
120.493 41.2327 -0.194512
241.057 38.0122 -0.367361
342.195 26.6989 0.21496
460.125 16.5155 -0.465721
331.592 16.209 -0.55023
385.111 38.5042 -0.489325
560.988 89.157 0.388774
43.462 12.0309 0.12169
271.534 51.9928 -0.285866
331.621 40.8216 -0.410521
348.85 24.1693 0.326865
418.184 63.278 -0.413298
543.591 79.1719 0.182054
503.513 73.9077 0.356885
207.097 36.6455 0.383022
9.02537 38.615 -0.149662
496.005 72.9372 -0.136238
417.06 56.5526 0.553988
211.785 41.1527 0.110761
512.476 50.7445 -0.118007
139.831 9.62867 -0.202542
320.18 38.6324 0.26322
377.432 59.773 -0.120725
351.152 20.8886 -0.20096
556.891 90.5746 -0.290729
361.556 3.60611 0.696268
45.4856 28.2605 0.314788
391.19 56.0807 -0.363906
368.972 53.0089 0.386315
576.368 80.1677 0.212291
545.314 53.4011 -0.234456
432.154 24.4174 0.135489
566.141 79.8908 0.411422
266.148 2.25071 -0.47416
332.063 46.2146 -0.475511
24.9186 40.1677 -0.30148
549.553 55.1938 -0.154546
482.726 27.1485 0.569932
383.504 0.777577 0.632561
115.922 5.19164 -0.405263
369.677 60.2761 -0.0972075
11.0274 0.883017 -0.31666
593.945 9.87538 0.180464
329.961 60.6829 -0.397947
489.454 10.8003 0.323894
[...]
POINT_DATA 13483
TENSORS Strain_matrix float
-0.0732562 -0.141074 6.0553 
-0.00405196 0.0664557 -1.26029 
0.000982543 -0.000563335 0.645539 

-0.0225141 0.251521 -39.4477 
-0.00861776 -0.00308632 0.905943 
-6.21837e-05 -0.00249684 0.483431 

-0.00535804 -0.0112706 -0.0244731 
-0.00108586 -0.000364186 -0.00583818 
6.56516e-05 -0.000512576 0.0275236 

0.0420055 0.00728869 -0.137528 
0.0174057 -0.000178121 0.0600598 
0.00425598 -0.00446345 -0.00619422 

-0.00252252 0.0247688 -1.98996e-05 
-0.0224604 -0.00938003 0.0482397 
-0.00045819 -0.00618463 0.0163739 

-0.253206 -0.0620457 -12.9983 
-0.036639 0.185595 13.9087 
0.0169365 -0.0104427 1.75995 

-0.0161989 -0.0111604 -0.0617643 
0.00502633 0.0049323 -0.0693931 
0.000143243 -0.000400748 0.0190085 

-0.0148532 -0.00411501 -0.0122659 
-0.00724558 0.00737556 -0.0267878 
-0.000530697 0.0010706 0.0103478 

-0.117038 0.0640238 -0.0758036 
-0.16154 0.0287233 -0.106435 
-0.00299286 0.000395612 0.116274 

-0.197651 -0.6467 -0.150265 
0.0380747 0.201812 -0.640016 
-0.0839052 -0.11116 0.722068 

-0.221182 -0.206668 0.0352019 
-0.111555 0.182767 0.0829468 
0.0374184 -0.0148628 0.265396 

-0.0194228 -0.173083 -0.0276428 
0.141146 -0.00560011 0.0388797 
-0.0115781 -0.0576331 0.391803 

0.0195919 -0.381082 -0.361713 
0.21624 0.138969 0.189602 
0.0150935 -0.0311178 -0.00616765 

-0.0239369 -0.0593474 -0.019218 
-0.000255983 0.0426367 -0.033766 
-0.000121614 -0.00275513 0.00830908 

-0.00969765 -0.0110699 0.0788803 
0.0103427 0.0140481 0.0330965 
0.00100327 -0.000881195 -0.00736218 

0.0350609 0.0490054 1.23856 
-0.22443 0.0398734 0.317799 
0.00220709 0.00531388 0.144316 

0.00123946 0.00335347 -0.244369 
-0.0113553 0.0299222 -0.200371 
0.00148585 -0.00202702 0.0240694 

-0.030152 0.0123318 -0.056575 
0.00250086 -0.0082935 -0.0127221 
-0.00260477 0.000174803 0.049612 

0.0130082 0.280599 0.559556 
-0.135996 0.0547029 -0.335011 
-0.00648127 -0.0128998 -0.043522 

-0.0225821 0.000652853 -0.0117332 
0.0209731 -0.0262745 -0.207246 
-0.00724541 0.0021665 0.0487673 

-0.0168607 -0.0396034 0.0601918 
-0.00883303 -0.009564 -0.00747672 
-0.000716897 -0.00109934 0.0049839 

0.00343497 -0.0371812 -0.111344 
0.018948 -0.0132523 0.0184584 
0.00140297 -0.00225753 0.00899728 

-0.00451372 0.0132013 -0.994315 
-0.00556881 0.0105047 0.00998457 
0.00124881 -0.000950648 0.099422 

-0.0670043 -0.032073 -0.211454 
-0.0439611 0.0244878 -0.011529 
-0.00279468 0.00374843 0.0014667 

0.0215425 0.013151 -0.131962 
-0.00427145 -0.0407089 -0.0423357 
-0.000384154 -0.00196328 0.0294938 

0.0181907 -0.338831 -0.0612868 
0.331913 0.073834 0.0685553 
0.00915015 -0.0358024 -0.0500523 

-0.155691 0.114924 0.503955 
-0.0509559 0.125686 -2.70699 
-0.000519272 -0.00113224 0.229722 

-0.0338293 -0.000417417 0.0544725 
0.0134542 0.0271937 0.0750735 
-0.00227122 -0.00201039 0.103443 

-0.0374848 -0.0432192 2.06586 
-0.00909681 0.037367 0.7786 
-0.00444195 0.00400683 -0.0508297 

0.0163623 -0.133679 -0.531331 
-0.108033 -0.0328672 0.239307 
0.0322413 -0.0132463 0.158437 

0.00208017 0.0388558 -0.0335551 
-0.0182732 0.00936031 0.00279834 
-0.00140351 -0.00103449 -0.00426518 

-0.261075 -0.0469925 -0.649115 
-0.0797284 0.171649 -0.00226 
0.00407612 -0.00536874 0.0280495 

0.00663493 0.00826275 0.101398 
-0.0434811 0.000168943 0.0217024 
-0.00092089 0.000426742 -0.00492964 

0.00364772 0.0136605 0.149855 
-0.00901653 -0.0085447 0.0578267 
0.00116308 0.000809475 -0.0055143 

-0.0131946 0.0213469 -0.00179866 
0.0203681 0.0106955 -0.0100741 
0.000107106 -0.000413544 0.00864259 

-0.0529303 -0.0544382 -0.00572589 
0.0545733 -0.0482592 -0.769038 
-0.0121517 -0.0137488 0.15632 

-0.0420084 -0.012367 -0.264233 
-0.0204809 0.0329008 -0.330292 
-0.00165375 -0.00129212 0.0516306 

-0.0591161 0.0602819 0.24441 
0.160049 0.0124555 -0.0936256 
-0.00282424 0.00191616 0.0829204 

-0.0212897 0.0247997 0.0484265 
-0.0541046 0.000270844 0.0293199 
-0.000911457 0.00123656 0.0277618 

0.0481277 -0.00582333 0.246185 
0.00149614 -0.13144 0.22787 
0.000586708 0.000235046 -0.0110392 

-0.0152685 -0.0414117 -0.0445477 
0.0724722 -0.0086842 -0.0760989 
0.000109357 -0.000187826 0.0531789 

-0.0566522 0.023365 0.017458 
-0.174217 0.062115 0.202276 
-0.0102549 -0.000886347 0.0249224 

-0.0318762 -0.075965 -0.272799 
-0.117142 0.092835 0.171623 
0.00504208 -0.0112693 -0.126309 

-0.194218 0.128101 -0.301308 
-0.0813953 0.0666282 -0.357059 
-0.0327525 -0.108304 0.575459 

-0.0636608 -0.0459171 -0.0367463 
0.0537887 0.039514 -0.0482305 
-0.0435531 0.0288706 0.0948106 

-0.0777276 -0.0103839 -0.227791 
-0.193087 0.0788846 -0.105525 
0.00446996 0.0374438 0.37173 

-0.0211261 -0.00831694 0.00960044 
-0.0167546 -0.00218105 0.0102248 
0.00137183 -0.00276394 0.00956088 

-0.0587372 0.0522109 -0.0344458 
0.126344 0.0299241 0.124627 
0.00378131 -0.00982633 0.0847371 

0.0799731 -0.0266605 -0.129938 
0.00742299 -0.183298 0.126834 
-0.0365 0.0462675 0.214922 

-0.207914 -0.127582 1.04041 
-0.222714 0.0560278 2.53764 
-0.0111572 0.00203601 0.0464496 

-0.149326 -0.0565463 0.3691 
-0.0103201 0.127908 -0.632575 
6.4303e-06 0.0167201 0.0181803 

-0.00902461 -0.0877687 0.0507338 
-0.0166215 0.00762609 0.00211978 
0.00085771 0.000376213 -0.0330156 

0.00816508 -0.0311407 -0.0664459 
0.0807293 -0.0134128 -0.175745 
0.00110112 -1.87816e-05 0.00239546 

-0.0160997 0.0161474 0.0185902 
-0.0117873 -0.00541583 -0.0120428 
0.000990355 0.000411965 0.0115352 

-0.0125025 0.00246206 -0.0229213 
-0.00309504 0.00507673 -0.0152152 
-0.0012309 -0.000223443 0.00462685 

-0.0792647 -0.0395037 -0.34669 
0.0572694 -0.000451626 -0.378388 
0.00117288 -0.00315101 0.0420909 

-0.098594 0.052218 0.0979674 
-0.00144949 0.113669 0.397058 
0.02324 0.00403907 0.0734831 

-0.0212036 0.0869498 -0.111749 
0.00187982 0.0105771 0.0129441 
0.000112601 -0.0112138 0.064117 

-0.0233895 -0.00584623 0.0321888 
0.00247795 -0.00499971 0.0430727 
0.000457091 -0.0011166 0.0241751 

-0.736604 -0.105555 -0.3988 
0.235878 0.240582 0.749565 
-0.0132734 0.0538111 -0.0769798 

-0.182749 1.31641 -3.66637 
-0.0225845 0.212057 0.236772 
-0.000147021 0.00119668 -0.0028177 

-0.1469 0.411338 -0.300659 
-0.032567 0.189229 -0.918165 
-0.00104745 0.00404298 0.0142606 

-0.788353 -1.66423 0.0301363 
0.0688723 0.694481 -0.177273 
-0.0172552 0.0335564 0.212328 

-0.0273595 0.00903319 0.271524 
-0.00408777 -0.0121629 0.466513 
-0.00033838 -0.000503292 0.100853 

-0.250712 0.0510022 0.652939 
0.0287254 0.199189 -0.139058 
-0.00697637 0.0160228 0.0423671 

-0.200996 0.547168 -0.427657 
0.0759019 0.242921 0.409779 
-0.00133343 0.00214958 -0.0151122 

-0.0174075 0.0627343 0.0210047 
-0.0374999 -0.0140581 -0.021973 
0.00424988 -0.0048077 0.0271415 

-0.00320851 0.018612 -0.0122809 
-0.0228351 0.0103996 -0.00643822 
0.00953449 0.0398704 0.0204711 

-0.0397169 0.0310229 -0.253106 
-0.0375188 0.010719 -1.50362 
0.00283255 -0.00225704 0.24903 

-0.00971164 -0.0110169 0.00543854 
0.00778038 -0.000628728 0.00966501 
-0.00125877 0.00124976 0.00780331 

0.00745587 0.0274339 -0.0125524 
-0.0223213 0.00946246 -0.018062 
-0.000547418 1.5037e-05 -0.00984211 

-0.0199961 -0.00615578 -0.0842136 
-0.0176329 -0.0203445 0.00470439 
-0.00231314 -0.00584463 0.0526611 

-0.0524843 -0.0339413 0.106031 
0.0146009 0.0460621 0.44808 
-0.00143375 0.0027438 0.082827 

-0.0102013 -0.00123171 -0.148543 
-0.0319105 -0.0587276 -0.34933 
-0.00263324 0.00118124 0.0874178 

-0.00992039 -0.0211894 -0.0867084 
-0.0217019 0.0598871 0.415818 
-0.00363352 0.00335318 -0.0265852 

-0.0259603 0.0575573 -0.0791165 
-0.0983572 -0.0202356 -0.162292 
5.97945e-05 0.000332226 0.0364985 

0.0144608 -0.0428492 0.104795 
-0.0114517 -0.0124836 0.212353 
0.00156626 0.000246344 -0.0200055 

0.0237015 -0.0202092 -0.0817891 
-0.0173538 -0.00622288 -0.137949 
-0.00182635 0.00016918 -0.0242104 

0.0192869 -0.398332 0.341305 
-0.169143 -0.131076 0.0743063 
-0.109339 0.0753308 0.459712 

-0.0182369 0.00656631 0.0859792 
-0.0340996 0.00695343 0.0295944 
-0.000988931 0.00215843 0.0290979 

0.0052205 0.0444538 -0.179849 
-0.0375674 -0.0107132 0.0104902 
-0.00152793 -0.00499437 -0.0264531 

-0.0816889 0.122356 0.365505 
-0.0132723 0.0442614 -0.685203 
0.0197498 0.00102665 -0.0414013 

-0.0063795 0.0187392 0.0187655 
-0.0253133 0.00735251 -0.0232298 
0.000358352 -0.000722349 0.00599524 

-0.151495 -0.190324 1.0063 
0.0697509 0.0724706 0.683671 
-0.0122737 0.00846645 0.0323497 

-0.0136213 -0.0141193 -0.0251413 
0.0196268 0.00584746 -0.0323672 
3.12836e-05 0.000517656 0.00377924 

-0.00516176 -0.00208651 0.0461438 
-0.0133848 0.0141266 0.0113728 
0.000351546 -0.000732814 -0.023412 

-0.115501 0.555986 7.12317 
0.00113273 0.0612399 -3.53593 
0.00491022 0.00189124 0.206588 

-0.152155 0.183304 0.311278 
-0.0761108 0.0633484 0.272164 
-0.0302968 0.0173011 0.0692031 

-0.000727003 -0.00751757 0.0169031 
0.0430091 0.00848009 0.0438012 
0.00833083 0.000970818 0.00689623 

-0.0383819 0.00594079 -4.64833 
-0.0124735 0.0385748 3.81295 
-0.00022774 0.000672596 0.553477 

-0.0161437 -0.0752391 -0.0172913 
0.0595658 0.022414 0.0691875 
0.0014954 -0.00503196 0.0144447 

-0.117152 -0.0424168 0.0785477 
-0.00946581 0.0625013 -0.161758 
0.00524154 -0.00258534 0.0453297 

-0.0585898 0.0393624 -0.540732 
-0.160214 0.056157 -0.909934 
0.0015411 -0.00131575 0.0432183 

-0.113508 0.0206011 0.209581 
0.076261 0.0714757 0.64801 
-0.00312208 -0.00209162 -0.00382266 

-0.195229 -0.110665 0.0178771 
0.267201 0.226235 1.07239 
-0.0171139 -0.0251484 -0.0807578 

0.00345266 0.0116871 0.0116367 
-0.0154115 -0.0126004 -0.0208367 
-0.0014405 0.00672767 0.031581 

-0.0224315 0.00838171 0.0562238 
-0.0103922 -0.00981069 -0.0299837 
-0.00194804 -0.00271973 0.133405 

-0.000772434 -0.0225609 -0.0105479 
0.00803944 -0.00613937 -0.00864119 
0.00121936 -0.000906679 -0.00225974 

-0.00242258 -0.0910547 0.26726 
0.0667874 0.00806623 -0.0227082 
0.00217502 -2.60368e-05 0.0379065 

-0.0560986 0.166312 -1.05902 
-0.14143 -0.0100754 0.259364 
0.015564 -0.000265044 0.073277 

-0.0118376 -0.0370701 0.309804 
0.0168754 0.01146 0.234571 
0.00903193 -0.00803015 0.107552 

-0.143435 -0.196997 4.5659 
-0.020797 0.0191115 0.326052 
-0.0109051 -0.00601132 0.376091 

0.00996729 0.00170051 2.02874 
-0.203184 0.0419818 3.79031 
0.00637173 -0.000635026 0.175765 

-0.0630547 0.134229 -0.0290625 
-0.207077 0.0592958 -0.421842 
0.00333448 0.00261503 0.0128227 

-0.136328 -0.0447726 5.83181 
0.000856556 0.213836 -3.89991 
-2.36325e-05 -0.00116875 0.106818 

-0.0173175 -0.0176125 0.000757505 
0.001007 -0.00479063 0.0176145 
0.00270409 0.00242762 0.024149 

-0.197343 0.0152072 -0.189953 
-0.148841 0.13242 -0.167335 
-0.062529 0.0438909 -0.103021 

-0.00614857 0.027239 0.144453 
-0.00685914 0.000776808 0.243188 
-0.000106339 0.000282198 0.0104727 

-0.0111035 0.061772 0.0235179 
-0.0498915 0.0234583 0.0469456 
0.0209706 0.000867507 0.022897 

0.00618561 -0.0380541 -0.0318337 
0.0383487 -0.00737662 0.00594602 
-0.00307246 0.000430136 0.0308226 

0.029065 0.0199949 -0.248665 
-0.04623 -0.1148 -0.102964 
0.00696241 0.0256405 0.0407278 

-0.00767564 -0.0577821 0.388036 
0.0764573 0.017865 -0.0565422 
0.00946512 0.00193558 -0.104433 

-0.0277587 -0.00993324 0.00816775 
0.00520043 0.00692884 0.034922 
0.00193737 0.00289262 0.0193756 

-0.0761531 -0.0529804 -0.0666906 
0.0381287 -0.0792078 0.0551335 
-0.00365253 0.00715552 0.172957 

-0.0300977 -0.104969 -0.122898 
0.0605997 0.0143045 0.232477 
0.000722511 -0.00102549 0.0614786 

-0.00312036 -0.0538827 1.08122 
0.00290455 -0.00343389 -0.0158493 
-0.00141637 -0.00115785 0.0776023 

0.0888609 0.140479 -0.118468 
0.111023 -0.229778 -0.0768179 
-0.00177958 0.000490038 0.0289836 

-0.102189 0.0207907 -0.00893167 
0.012046 0.0309889 -0.202721 
0.0102947 0.0116333 0.0859781 

-0.0138698 -0.0201765 0.0180514 
-0.00119927 0.000198479 0.0213838 
0.00043293 0.000906462 -0.00134079 

-0.0443632 0.0539117 0.101723 
0.0748131 0.0592186 0.185154 
0.00513646 0.0330317 -0.0946641 

-0.185142 -0.658063 0.109127 
0.0697659 0.405115 -0.340481 
-0.056499 0.00219796 -0.0919747 

-0.0131147 -0.10236 -0.270382 
-0.0276736 0.0540747 0.369331 
0.0358536 -0.00789502 0.109185 

0.0736464 0.0627652 0.403403 
-0.204683 -0.104528 -0.0404925 
0.0184234 9.16928e-05 0.141706 

-0.0259469 -0.0336346 -0.161543 
0.0140742 -0.0292289 -0.0184916 
-0.00599738 -0.00545551 0.0517082 

-0.0611986 0.0233369 -1.30994 
0.0444636 0.0438022 -1.12653 
-0.00930265 0.00500223 -0.0299318 

-0.0297031 -0.145664 0.103692 
0.0388234 -0.0907062 -0.0370474 
-0.020399 -0.0283929 0.132241 

-0.104847 -0.0696636 0.27366 
-0.0394802 0.128361 -0.058287 
-0.000320221 -0.00109755 0.0239182 

-0.0251147 0.0357677 0.0444748 
0.104262 0.00831294 0.242021 
-0.000572054 -0.000766336 -0.0222931 

-0.0230658 -0.0054189 -0.159496 
-0.0116829 0.0331463 0.0919596 
0.0317242 0.033652 0.369308 

-0.0583903 0.0100993 1.16649 
0.037164 0.0638717 1.12902 
-0.00269562 0.00124749 0.0606542 

0.028165 -0.153785 0.129465 
0.0267284 -0.00982599 -0.233903 
-0.00218452 0.00200303 -0.0266176 

-0.00782963 -0.0014089 0.0118653 
-0.00658985 0.00899141 -0.00831474 
0.00249284 -0.00133614 -0.000129771 

-0.0136029 0.11245 -0.0774276 
-0.0345494 0.00955031 -0.132912 
0.00331975 0.00019662 0.0586072 

0.0368143 -0.00132349 0.128065 
-0.303543 -0.0157054 -0.154376 
0.00217691 0.00679055 0.0703898 

-0.14123 0.0585278 0.362555 
-0.0435551 0.130571 -0.306152 
0.00675477 -0.00624214 0.11384 

0.0511716 -0.0658871 -0.317072 
0.00937779 -0.0127072 -0.126338 
-0.0060394 -0.043553 -0.0285821 

-0.00666255 -0.021053 0.049893 
0.00127128 -0.073969 0.240736 
0.00534581 -0.0412834 0.115906 

-0.0217602 -0.0391293 0.365503 
-0.171992 -0.00265173 -0.562182 
0.0200814 -0.0119268 -0.0410218 

-0.0186786 0.000903816 0.051402 
-0.0125051 -0.0164045 -0.0469858 
-0.0071954 0.000789956 0.0463832 

-0.000894682 -0.0911595 0.00773309 
0.0227437 -0.0103497 -0.203464 
-0.000392117 0.00377674 0.00625935 

-0.014043 -0.04539 -0.0304988 
-0.0414015 0.0205258 -0.02661 
-0.00375627 -0.00715982 0.0854126 

-0.165442 0.0185666 0.0618012 
-0.153008 0.166113 -0.00032856 
0.0017591 0.00123597 -0.010924 

-0.013268 -0.02525 0.00516571 
0.0163931 0.0313105 -0.109624 
0.000818335 -0.00207607 0.00192491 

-0.0521134 0.0843419 -1.28033 
-0.189719 0.052693 -0.210141 
-0.0275561 -0.0197511 -0.0633772 

-0.0486979 -0.0461984 0.442527 
0.0375797 0.0483753 -0.633005 
0.0102523 -0.00595392 0.0141201 

0.0104547 -0.0115626 -0.0718756 
0.00867347 -0.0127455 -0.0169621 
-0.00532045 -0.000562798 -0.0577017 

0.0273783 -0.023138 0.0344217 
0.0592936 0.0131164 0.0471783 
-0.0038039 -0.00208695 -0.084525 

-0.0158851 -0.0140903 0.159708 
0.0327971 0.00259829 -0.132594 
-0.00178953 0.00241922 0.0702546 

-0.0788204 0.105299 -0.602199 
-0.181923 0.0745622 -0.501229 
0.00731974 0.0140324 0.0526261 

-0.141354 0.0180929 0.355862 
-0.0373434 0.0778873 0.283094 
0.0231158 -0.0316677 -0.0411204 

-0.0628812 0.0461917 -1.22832 
0.036209 0.0911101 -0.738303 
-0.0307363 0.0278872 -0.0353044 

-0.067394 0.442535 0.464651 
-0.273203 0.196704 -0.116321 
0.0049642 -0.00143308 -0.000402151 

-0.112049 0.130635 -0.123529 
-0.0213017 0.0645197 -0.0381132 
0.00451626 0.000445815 0.0634875 

-0.123268 -0.199554 1.24505 
-0.0310325 0.148252 0.917612 
-0.0013346 0.00582829 0.159619 

-0.0122861 -0.0374915 -0.0259401 
-0.0193465 -0.0196507 -0.0318846 
-0.000217035 0.00347829 0.0686975 

-0.0475592 -0.00569061 1.15636 
-0.0935984 0.0335083 -0.373962 
-0.0108976 0.0148009 -0.291673 

-0.0343641 -0.0234278 0.232305 
0.0421515 0.0420504 0.0848016 
0.00204595 0.00222172 0.0839402 

-0.0515616 -0.0569831 -0.0102423 
-0.0375602 0.0505686 0.277109 
0.00215567 -0.00382095 0.271885 

0.00334285 -0.0481171 0.0675524 
0.0333044 0.00722754 0.0116354 
-0.00091809 0.00114538 0.0692373 

-0.157474 -0.367503 -0.213561 
0.0697599 0.139453 -0.757152 
0.00819969 0.0284867 -0.0911993 

0.00490398 -0.071612 -0.759726 
-0.0139271 -0.0132701 -1.88039 
-0.00127751 0.000979283 -0.0489385 

-0.0372069 -0.0216029 0.0579918 
0.0366812 0.036109 0.137722 
-0.00337237 -0.00444679 0.0161141 

-0.0139226 0.057636 0.449216 
0.0426559 0.0287134 0.201043 
0.00457152 -0.00339925 0.0344694 

-0.025674 -0.0288712 0.47314 
0.0127079 0.00979346 1.87153 
-0.0014327 0.000659754 0.389534 

-0.0120031 0.0196157 0.263782 
-0.00489324 -0.00569485 -0.381941 
-0.0020931 -0.000402956 0.0443768 

0.0516883 -0.0275891 0.0364121 
0.0518011 0.0139845 -0.00345822 
0.00422556 0.00833023 -0.0435567 

0.0210793 0.055389 0.165864 
-0.176022 0.0199005 -0.5365 
0.00523316 0.0184684 0.0893618 

-0.0232085 -0.0483215 -0.11606 
0.0295269 0.0159062 0.0542837 
0.001141 -8.94662e-05 0.00441006 

-0.0830432 0.0140017 0.0543963 
-0.00110481 0.0328581 -0.413673 
-0.018398 -0.000738609 -0.0937514 

-0.027304 -0.093852 0.0554439 
0.025344 0.00609685 0.236375 
-0.0114765 0.00927431 0.0650607 

-0.0945899 0.0759924 0.323011 
-0.0183205 0.0363642 -0.132826 
0.0166596 0.000702665 0.168871 

0.042146 0.252601 0.189122 
-0.251142 0.00851582 -0.361577 
0.0120298 -0.0187085 -0.0307145 

-0.141363 -0.0583692 0.254288 
-0.140341 0.100521 0.363006 
0.00136913 -0.00786487 0.0702642 

-0.0182384 0.00558462 -0.103579 
-0.00376002 0.00230521 -0.0675476 
0.00134229 0.00110914 -0.0357922 

0.119333 -0.309582 -0.801139 
0.0422178 -0.134208 -0.278729 
-0.00285773 0.00742933 -0.0520341 

0.0097338 0.117442 0.84646 
0.0223692 -0.0403967 -0.633119 
-0.00534366 0.0112329 0.155681 

0.0028713 -0.00121582 0.065483 
-0.00884979 0.00638092 0.0334883 
0.000120018 0.000139502 -0.00360347 

-0.143787 0.291642 0.137622 
-0.378242 0.198664 0.231741 
-0.00334868 -0.0455962 0.320037 

-0.155346 0.140286 -1.04578 
-0.0738932 0.091436 0.343351 
0.0176004 -0.0134948 0.124344 

-0.0149708 -0.00299678 -0.0131863 
-0.000580097 -0.00860914 0.000852734 
-0.00418467 -0.00278443 0.0254899 

-0.00853758 -0.0226402 -0.00495896 
0.022583 0.0152341 -0.0346438 
-0.00708568 -0.0141899 -0.0591495 

-0.0127519 -0.00878389 -0.0301731 
0.00134358 0.00243804 -0.00316334 
0.00286957 -0.00357178 0.0231244 

-0.0127021 -0.0245666 -0.0292536 
0.0190254 -0.00645468 -0.00663881 
-0.00266016 0.0029175 0.0502912 

-0.0928757 -0.0106104 0.0780898 
0.052002 0.0732653 -0.679912 
0.0131272 0.01165 0.19376 

-0.00101821 -0.00122562 0.0104729 
0.0295643 0.0104913 -0.0103192 
-0.00549801 0.0316168 -0.0146269 

-0.042326 -0.0400025 -0.00617939 
0.0272788 0.00147027 0.0294648 
0.00485093 0.00282029 0.0695643 

-0.200124 -0.150109 0.399643 
0.032453 0.227953 0.228859 
-0.0188908 0.0469131 0.0745254 

0.00580729 -0.0175361 -0.0550753 
-0.00210258 -0.00362673 -0.0491968 
0.000800423 -0.00109435 0.00933989 

-0.0423904 0.0818947 0.664847 
-0.131585 0.0483324 0.0785622 
0.00500586 0.00126035 0.0281911 

-0.0331403 0.0931531 -0.107734 
-0.071387 0.0172916 -0.0643644 
0.0115812 -0.0148 0.0625293 

0.00665242 -0.0276386 -0.101623 
-0.00738057 -0.0157995 0.0166049 
0.00317263 0.000387481 0.0133436 

0.0761498 0.0991691 -0.0785762 
-0.106337 -0.0937242 -0.0178956 
-0.00370756 0.00159837 0.0834856 

-0.0139525 -0.000622995 -0.0204981 
-0.00103819 -0.00950141 0.0198591 
0.00368824 0.00142525 0.0174635 

0.0187643 -0.0576789 -0.0803569 
0.00583564 -0.0952797 0.131364 
-0.0177245 -0.0103494 0.257937 

0.00216552 -0.202379 -0.282132 
0.0783194 -0.0529468 -0.00100195 
0.021921 -0.0575091 0.119722 

-0.0186477 0.0578486 -0.195193 
-0.0799543 0.029766 -0.0718678 
-0.00118378 -0.0308631 -0.0625077 

-0.159611 0.111249 -1.04345 
-0.0755901 0.107749 0.256406 
-0.000139507 0.00235748 0.207644 

-0.0153684 0.0657668 0.000803943 
-0.0630648 0.0248092 0.0318261 
-3.59941e-05 0.000537248 -0.0143033 

0.000888525 -0.129277 -0.207186 
0.147326 -0.051467 -0.128475 
0.0471737 -0.0143547 -0.0494131 

0.00383321 0.013617 0.0964372 
-0.0281157 -0.00116263 0.0802949 
-0.000905249 4.11507e-05 -0.0191694 

0.0508943 -0.0512208 0.577063 
0.00837328 -0.0350794 0.487359 
0.000103208 -0.000696288 -0.0105713 

0.00724325 -0.100874 0.106809 
0.0788224 0.0203831 -0.0155777 
0.0178498 -0.0234155 0.0370682 

0.00189801 0.0907727 -0.210965 