# vtk DataFile Version 3.0
Output file generated by Yade's KinematicLocalisationAnalyser
ASCII
DATASET UNSTRUCTURED_GRID

POINTS 13483 float
569.338 40.194 -0.421805
683.745 76.3962 -0.544475
119.223 5.90748 -0.48152
714.583 6.01589 0.358553
486.731 9.08147 0.49726
312.839 36.8969 0.455579
155.38 6.87033 0.446527
542.346 11.851 0.199685
483.445 29.3656 0.142219
654.262 17.1221 -0.494958
209.488 8.82263 -0.0943159
255.865 6.22743 -0.258755
601.413 51.4993 -0.136313
586.967 31.4656 -0.112514
136.048 18.1485 -0.456737
219.497 36.485 0.397026
216.791 13.0916 -0.258875
287.275 10.1546 0.390821
340.162 33.8031 0.457225
507.236 10.1484 0.385241
408.035 39.8601 -0.099421
555.213 50.8528 0.296321
709.516 56.6046 -0.496417
633.242 54.3375 0.464331
451.578 17.2017 0.292795
239.434 45.5661 -0.139539
479.689 36.231 -0.461015
554.461 23.2044 -0.218792
44.511 16.2215 0.510216
650.308 40.1581 -0.405289
472.911 4.92044 0.460474
15.3674 24.4186 0.334477
697.919 74.5111 0.251918
484.592 2.4767 0.47381
78.0416 45.0433 0.107189
506.058 34.4896 0.356675
513.106 21.1512 -0.464008
342.801 23.2678 0.195549
518.212 30.6686 -0.351632
350.236 36.7463 -0.442659
240.629 14.7365 -0.316947
426.908 43.6798 0.0932337
616.188 5.54083 0.227445
191.851 6.25089 0.373049
55.0125 7.1662 -0.0955383
68.3306 9.04671 0.295305
629.339 8.49558 -0.518597
22.9001 11.7902 0.262633
556.399 65.5156 0.356075
619.773 33.8908 -0.423451
171.02 32.8611 0.288657
678.324 64.6927 0.114763
34.6033 28.2172 -0.115951
514.656 2.56268 0.516098
140.953 7.22821 -0.491236
564.543 40.9469 0.459335
488.991 33.192 -0.112509
174.09 0.972418 0.276763
32.4334 2.41952 0.296832
347.244 18.5552 0.263993
570.828 74.9406 0.135247
456.128 36.5062 -0.178287
395.848 1.03653 0.202332
638.167 9.51145 -0.518197
26.9312 43.2637 -0.238359
255.644 32.1994 0.286502
655.232 10.443 -0.238493
622.6 73.2698 0.363261
414.033 8.65023 -0.527901
543.707 5.36113 -0.497758
674.381 46.6221 0.379763
129.936 7.95136 0.245528
485.498 32.3302 -0.129104
470.223 17.5806 -0.0935808
293.525 17.0391 -0.355125
20.1398 13.8113 -0.277235
698.081 66.166 -0.319139
331.73 39.3899 -0.331626
618.329 33.0538 0.358194
628.014 15.225 -0.233908
708.541 29.5737 -0.240157
458.644 39.7997 -0.189007
92.4797 39.7673 -0.268678
627.391 48.6732 -0.205655
600.16 63.0188 -0.0960747
713.779 61.5861 0.121724
703.023 0.755694 -0.53319
289.83 28.94 0.50453
589.036 7.85656 -0.13511
23.8548 5.2291 0.568694
133.455 39.7346 0.153423
499.434 16.3023 0.220007
692.514 49.5064 -0.475611
195.671 29.6913 -0.220997
44.588 35.0603 -0.273676
483.48 1.15996 0.178499
235.77 8.79118 -0.419809
657.999 70.9721 0.239603
686.449 38.7009 0.276265
359.763 23.2201 -0.254764
162.601 27.5721 -0.448673
530.073 62.6777 -0.451435
378.259 16.1462 -0.497363
411.741 31.3578 -0.0979142
376.141 5.75598 0.398917
526.132 13.649 0.138208
718.236 14.7656 0.280941
80.3226 39.9331 -0.413083
334.756 5.02666 -0.214956
537.017 13.2846 0.447437
359.243 48.5933 -0.150365
24.7739 24.5396 -0.486774
30.1681 5.68305 0.312007
541.227 47.8735 0.407117
491.502 30.5039 -0.14729
25.8385 36.7833 0.419666
93.636 31.3483 0.229493
324.839 16.3785 -0.284202
572.23 21.0106 0.121026
464.611 49.9591 -0.219465
668.39 11.0973 0.439593
662.278 6.83366 0.309984
386.415 37.7514 -0.10858
590.808 46.4083 0.089633
238.573 17.3608 -0.481538
330.184 3.85676 0.46625
103.348 33.2842 0.326727
116.767 25.8446 -0.268329
525.742 61.8827 0.0743743
307.226 19.314 0.452418
651.394 46.0498 -0.113624
627.268 74.1443 0.0898331
473.028 26.745 -0.360617
697.854 13.4135 0.552502
425.173 27.1614 0.234278
277.131 25.8004 -0.306487
623.453 57.5479 -0.287978
279.936 30.0995 0.377107
552.726 14.7188 -0.285732
333.294 36.2668 0.184791
494.153 13.5441 0.475135
367.184 34.1895 -0.0876883
429.472 17.3285 -0.106874
319.291 43.3035 0.436465
191.695 30.0274 -0.12246
688.521 74.5414 0.158978
715.957 17.3464 -0.323905
6.07057 12.8007 -0.447797
431.131 25.2764 -0.398305
38.3861 22.6432 -0.081579
376.826 32.8695 -0.495613
396.113 25.8773 -0.270734
74.9447 11.9947 -0.514053
51.7119 35.653 -0.501232
227.275 13.4599 0.427941
570.787 68.3641 0.405193
551.343 25.7388 -0.532277
74.5709 21.7542 0.478853
636.688 56.5876 0.458886
686.145 2.20081 -0.433823
616.964 66.5775 0.493254
635.849 1.91683 -0.548912
531.253 40.2831 -0.40044
553.988 49.8554 -0.4766
502.121 22.2863 -0.390418
713.885 4.24536 0.388733
225.227 26.0685 -0.141294
129.005 36.7589 -0.191605
248.793 6.86383 -0.402387
94.8661 4.46356 0.288614
64.6172 9.97886 0.240305
277.658 37.5321 -0.3096
15.9417 26.0514 -0.360136
533.721 27.2133 0.445088
560.947 64.2667 0.285886
460.757 24.5494 -0.368962
710.807 75.9141 -0.347808
407.346 8.75616 -0.113744
432.225 41.4836 -0.406814
522.403 3.41764 -0.297219
21.9182 24.0814 -0.406596
553.84 6.29899 0.510421
530.431 7.99086 -0.453106
207.954 11.4951 0.550158
425.607 17.361 -0.184534
313.395 6.34204 0.366888
388.948 20.0482 -0.395437
664.076 60.0298 0.107135
194.201 25.8609 -0.395295
705.33 11.4135 -0.353989
666.255 57.248 -0.337615
384.548 10.685 0.18482
653.318 2.32503 0.474446
573.302 37.9239 -0.441525
671.312 25.8507 0.420377
430.601 49.7805 -0.261823
488.461 15.7129 0.381719
456.661 51.6108 0.226649
445.048 8.92095 -0.32274
620.644 66.8717 0.275893
619.726 62.6413 0.310026
193.926 39.46 -0.329833
706.328 29.2397 -0.129768
556.695 46.6576 0.368395
11.5064 18.0192 -0.200207
409.754 26.2223 0.357141
188.944 23.5001 0.405613
94.0179 40.985 -0.215301
690.269 42.1158 0.431338
613.976 71.3908 -0.228545
321.64 26.1125 0.358225
518.694 10.5524 0.292083
83.1615 45.1923 0.174797
249.592 26.8084 -0.473668
535.425 32.4794 0.364556
480.514 22.5749 0.417671
265.33 0.911532 -0.347606
539.594 63.1275 0.0386577
519.656 58.2194 0.400053
476.728 43.3657 0.381205
493.898 2.73316 -0.642092
643.47 20.9952 -0.383539
180.917 12.5308 -0.170955
491.851 44.0219 0.440203
545.028 52.2495 -0.133126
73.6801 0.940285 -0.260754
254.109 4.70782 0.186207
715.781 20.8813 0.18065
708.809 31.5519 -0.37892
720.536 24.053 -0.559473
305.977 8.59095 -0.2402
677.465 28.4475 -0.443748
407.607 47.3264 0.319123
449.999 0.93346 0.537749
605.124 59.461 -0.419211
26.5858 30.4911 0.352039
333.865 40.8738 -0.564323
254.971 2.82624 0.361416
701.737 72.6203 -0.190156
644.26 56.03 -0.245914
289.854 11.4749 0.261911
615.475 51.593 -0.0808062
540.132 2.67456 0.262447
527.787 8.22734 0.562095
97.9872 18.6436 -0.50062
305.796 1.03994 -0.228037
345.834 2.24813 -0.372875
13.6884 7.63988 -0.447816
4.4984 32.9195 -0.249392
162.983 19.1052 -0.384885
69.2514 42.6537 -0.219433
67.098 29.9348 -0.313864
425.373 14.648 -0.465565
369.193 38.3965 0.465476
674.772 66.9517 -0.116383
19.3313 4.02082 -0.268677
71.3613 7.03498 -0.135714
579.58 62.1151 -0.142494
297.084 0.952256 0.367941
366.613 16.4397 -0.114286
238.261 4.7246 -0.344353
608.026 40.5522 -0.183931
451.921 9.29716 0.457741
679.341 26.6677 -0.425853
587.055 51.0707 -0.28559
617.983 26.0079 -0.0856034
422.044 31.1903 0.49573
103.489 46.7131 -0.306486
528.257 66.3952 0.00793388
667.206 20.5015 0.224638
239.712 31.35 -0.232404
31.6707 16.8237 -0.170726
339.531 14.1657 0.489133
109.014 42.1206 -0.486991
270.671 44.046 -0.205507
427.949 2.19148 -0.249193
694.232 59.5952 0.405875
630.848 0.741342 -0.534561
335.228 3.49073 0.575804
303.105 27.629 -0.144214
458.179 48.3248 0.198858
82.5578 8.22073 0.476613
199.532 46.0776 -0.389936
686.165 46.9572 -0.406741
488.118 48.021 0.0719971
202.241 42.2175 -0.274608
162.444 43.7253 0.390363
717.568 54.615 -0.432318
716.975 15.8207 -0.558926
581.749 2.80834 -0.646472
192.681 24.7386 -0.0932374
533.141 42.534 -0.106774
532.137 38.7679 0.286828
411.772 5.64325 -0.132163
479.257 0.903742 -0.38309
673.589 69.6471 -0.532925
86.2268 31.5306 0.219538
608.96 30.6665 0.397552
276.664 15.854 -0.34074
9.20368 2.35675 0.343038
127.588 38.6235 -0.187317
66.5588 23.2807 0.464238
639.562 42.0108 0.310198
702.203 83.15 0.176227
187.872 28.6562 -0.180025
713.879 20.462 -0.315196
45.7894 37.5151 0.263801
92.4913 29.7294 0.152173
596.48 31.1576 0.392219
417.122 17.7715 -0.54009
509.786 20.5632 0.121089
240.249 29.4376 0.186522
593.86 7.53916 -0.513577
719.766 16.2056 0.510013
29.6528 31.4704 0.2548
273.09 7.76977 0.196043
225.032 15.4142 -0.231494
1.09168 39.1246 0.14726
228.327 14.4106 -0.412583
214.349 11.0757 0.111136
216.497 27.3351 -0.273064
134.706 29.2266 0.133089
531.673 20.4415 0.328064
168.535 14.3681 -0.328327
695.482 72.2854 -0.227586
176.107 3.96447 -0.500359
47.4681 40.113 -0.341891
651.452 81.4269 -0.426283
285.068 33.5159 0.413348
621.167 35.0638 -0.410124
698.787 56.2667 -0.469456
304.041 9.25884 -0.0960733
669.206 44.6505 0.393877
332.203 2.50606 -0.434126
419.205 24.8181 -0.37327
619.126 20.3902 0.449431
106.926 11.6538 0.512941
480.358 3.69965 -0.67332
682.027 21.9726 0.255923
89.4308 7.73739 -0.279877
284.692 15.2851 0.183704
426.027 12.2209 -0.255486
713.977 2.46917 0.475093
400.8 2.00776 -0.53254
178.661 39.2523 0.306963
669.007 16.8248 -0.371743
130.826 37.8553 -0.214886
266.277 33.2022 -0.374776
404.454 22.0348 0.227917
553.533 16.5008 -0.340538
389.96 9.4087 -0.612384
457.594 31.4649 -0.438756
684.636 77.097 0.391257
48.0911 11.0201 0.16199
302.587 39.8077 -0.278922
382.865 26.9074 -0.386119
413.342 21.1722 0.246936
509.807 51.1709 0.380327
667.246 68.1127 0.213132
624.626 63.5334 0.36001
227.838 35.7388 0.416115
13.889 34.0283 -0.153445
617.739 62.8811 -0.134305
503.047 45.5945 -0.48236
232.421 40.0678 0.0960614
625.411 43.6826 -0.125503
152.646 9.33145 -0.199398
370.578 22.7855 0.264222
458.473 50.4417 -0.154019
417.068 19.5052 0.209026
680.718 78.5028 -0.290644
428.656 4.22238 0.632159
50.451 25.7392 0.328629
470.003 39.1441 -0.329251
435.596 45.2647 0.360807
699.403 67.545 0.21753
665.63 45.0405 0.258714
526.477 24.2948 -0.140657
689.528 67.5747 0.410425
296.658 2.30438 -0.457681
383.151 29.9472 -0.46968
28.9945 38.6807 0.311147
670.7 45.9188 -0.137137
581.259 24.6105 0.501603
461.899 0.774427 0.561104
127.242 4.73828 -0.345386
427.93 48.0496 -0.100288
11.6273 0.910443 -0.314721
712.659 8.57358 -0.137502
[...]
POINT_DATA 13483
TENSORS Strain_matrix float
-0.501635 -0.169285 -0.539446 
0.327086 0.307132 0.518823 
-0.050252 -0.0215674 0.169382 

-0.0313679 -0.0115109 -2.60564 
0.00164065 -0.00861639 4.67042 
0.000515264 -0.0033616 1.50904 

-0.040278 -0.0155624 0.0459534 
0.0649272 0.015805 0.665657 
-0.00796279 -0.0160889 0.0792661 

-0.2794 -0.420758 0.00707345 
0.641997 0.413435 -0.0275151 
-0.0233831 0.00873768 0.136229 

-0.409512 -0.101568 0.711131 
0.142283 0.165765 0.28005 
-0.0433654 -0.0396016 0.190468 

-0.0134818 0.0193994 0.0313973 
-0.019853 0.00791286 -0.523852 
0.00415531 0.00798627 -0.0119772 

-0.00812059 0.0123027 -0.0142141 
-0.010326 0.0015126 0.0209838 
-0.0082877 -0.00247667 0.443785 

-0.0580535 -0.0229315 0.11819 
0.142227 -0.0266693 0.111363 
0.0134953 -0.0189722 0.276581 

-0.0445538 0.025947 -0.325865 
0.0337538 0.00651658 0.6113 
0.0254503 0.01663 0.103496 

-0.157869 0.111262 0.0797539 
0.110609 0.159336 -0.469753 
-0.0078802 -0.00994246 0.126445 

-0.0164104 -0.00563194 0.0319253 
0.0132024 0.0113334 0.0179899 
-0.000488408 0.00067226 0.0276833 

-0.0360445 0.0261325 0.0339822 
-0.0676189 -0.00849823 -0.00117762 
-0.000866744 0.00227726 0.063804 

-0.0884604 -0.572085 -0.970245 
-0.0763286 0.109702 -0.317494 
0.0431513 0.0044642 0.309674 

-0.102643 -0.126439 0.551164 
-0.00323688 0.207618 -0.0780991 
0.00499693 0.00536864 0.015102 

-0.0106521 -0.00253619 -0.0679755 
0.0166133 0.0148469 -0.137281 
0.000314201 0.00278592 0.00416681 

-0.0487805 -0.0132948 0.784174 
-0.017632 0.0944673 -0.276778 
-0.0296205 0.0231881 0.470022 

-0.00648153 0.00537672 -0.000620692 
-0.00699528 0.00756488 0.00296527 
-0.000364738 0.000699997 -0.00337093 

-0.0273995 -0.025822 0.0236335 
0.0434497 -0.00660355 -0.0354452 
0.00499268 -0.000791654 0.0473689 

0.0111905 -0.04134 -0.122158 
0.143641 0.0002709 0.0506105 
0.010056 -0.00678202 0.0777298 

-0.0406925 -0.0161278 -0.309526 
-0.0271542 0.0101158 -0.598286 
0.0287105 -0.0298232 -0.088666 

0.0127372 -0.0442193 -0.90646 
0.23115 -0.0169051 0.236525 
-0.0317975 -0.00601912 0.163149 

-0.507307 -0.200827 -1.14553 
-0.327758 0.312028 2.81184 
-0.0546084 -0.00354482 0.38745 

-0.00571522 0.0637656 -0.648303 
-0.0431787 -0.000996218 -2.04572 
-0.00444329 0.0045388 0.0825051 

-0.0598658 -0.204973 -0.835415 
-0.022634 0.0184746 1.59617 
-0.00798142 0.0135783 0.0736521 

-0.00507881 -0.0922541 0.306422 
0.037192 -0.0174854 -0.106595 
0.000337959 -0.00178202 0.0495504 

-0.101402 -0.100896 0.025267 
0.127879 0.0559463 0.0659128 
-0.0531677 -0.0307309 0.160727 

-0.172921 0.0714249 -2.99829 
-0.112644 0.154395 -0.379714 
0.000633355 -0.00267667 0.358659 

0.133634 -0.126696 0.11479 
-0.147507 -0.12571 -0.369066 
0.000287657 0.00308423 0.00295467 

-0.00332688 -0.0146517 -0.877263 
0.0131011 0.00388316 0.454137 
0.017308 -0.00106259 -0.0228513 

-0.0350435 -0.0207063 0.0235823 
0.00523281 0.0030061 -0.0381467 
-0.00617288 -0.00419222 0.0142436 

-0.0262996 -0.110404 -0.226246 
-0.0029256 -0.144251 0.0741467 
-0.00609087 -0.000344327 0.273378 

-0.017275 0.0778514 0.0486483 
-0.0644119 0.00979597 0.0291256 
0.000514404 0.00314245 0.0103384 

-0.00677126 0.0025661 0.0269389 
-0.0123384 -0.00448012 0.106206 
-0.00587485 -0.00928471 -0.0356238 

-0.150183 -0.142763 -0.429236 
0.100497 0.254033 -0.226701 
-0.0195805 0.0451709 0.306591 

-0.00985873 -0.00800803 0.00426152 
-0.00209734 -0.0088385 -0.0290167 
-0.000118799 0.000431199 0.00777713 

-0.0382366 0.202004 0.537194 
-0.0204429 0.0223933 0.433374 
-0.00855324 -0.0403081 0.0177574 

-0.23714 -0.0498162 1.0983 
-0.0257682 0.0910363 -0.717963 
0.000283294 -0.00827597 0.162226 

-0.114975 0.104254 0.0504712 
0.0405663 0.0835673 0.135858 
-0.0235512 -0.00223965 0.0791286 

-0.312314 0.0679454 0.59158 
0.225614 0.240576 -2.94148 
-0.0065104 0.00692761 -0.0380686 

-0.0558496 -0.047797 -0.208246 
0.0558933 0.0345295 0.104911 
0.00834409 0.0137055 0.0747029 

-0.0544619 -0.0245602 -0.0940189 
0.0614977 0.0295279 0.222334 
-0.000605755 0.00272575 0.0214154 

0.000178134 0.258132 0.00452974 
-0.276197 0.068458 0.154818 
0.000704288 -0.00350375 0.0619872 

-0.00515271 -0.00432739 -0.00127835 
-0.00728908 0.00120362 0.0136965 
0.00260472 -0.000495518 -0.00506582 

-0.0104277 0.00766114 0.0405551 
-0.00895129 0.000287252 -0.019251 
0.00228253 -9.7298e-05 0.0230259 

-0.0104637 0.00522765 -0.0218333 
0.0206512 0.0101234 -0.0120363 
0.00597354 0.0195918 0.0219399 

-0.00500488 -0.00592314 -0.011961 
0.0112285 0.00204885 0.00367169 
-0.000425209 -0.000258703 0.00140319 

-0.00691639 -0.00806354 -0.00756411 
-0.00473764 -0.00322959 -0.0015366 
0.00252196 0.000938213 0.0077674 

-0.0197857 -0.00102692 0.0552649 
-0.0448282 0.032062 -0.0487088 
0.004705 -0.000411585 -0.0024043 

-0.287448 -0.707694 2.87243 
0.355871 0.17882 2.61947 
-0.0248915 0.0380391 -0.566794 

-0.104277 -0.176635 1.33951 
-0.427358 -0.0641029 -0.700552 
0.00690605 0.000974657 0.0624157 

-0.00597752 0.0170322 -0.0101248 
-0.0127441 0.00245211 0.0881381 
-0.00473 0.0155571 0.0931501 

-0.00888237 0.164943 -0.166148 
0.0466022 -0.00905343 -0.158105 
0.00125892 0.000349359 -0.0171666 

-0.00813825 -0.0134687 -0.0345317 
0.00729181 0.0141086 0.0616604 
1.93583e-05 0.000323467 0.00570387 

-0.081299 0.254604 0.118466 
-0.064678 -0.0330049 0.150846 
0.0103224 0.0171176 0.229104 

-0.0217389 -0.0211063 -0.060867 
0.0301673 0.00836714 0.11344 
0.000912907 -0.00168328 0.0338446 

0.00777643 -0.171541 -0.629404 
0.198141 0.0527398 -0.354827 
-0.000794563 -0.00723866 0.144328 

-0.199146 -0.0103749 -0.865063 
-0.218423 0.17977 0.608377 
-0.0428526 0.0319075 0.128742 

-0.00535357 -0.0013953 -0.0161716 
0.00213731 0.00356492 0.0232126 
-0.000216581 -0.000390756 0.00347664 

-0.00460652 0.00267688 0.00541397 
0.000735887 -0.00380589 0.0162064 
-0.000567974 0.000220602 0.00775905 

0.00130085 -0.0455382 0.0127526 
0.0359608 -0.011183 0.0472516 
-0.0309999 0.0139677 0.110255 

0.0301203 -0.278296 0.878103 
-0.0775503 0.105673 -0.368251 
0.00100507 0.0042806 0.00436649 

-0.0322082 -0.197758 0.361911 
0.430374 0.117891 -0.48446 
-0.000687124 0.0129501 -0.0533973 

-0.0156591 0.0152138 0.00675812 
-0.00312973 -0.00166683 -0.00514543 
-0.0133447 0.0216724 -0.00477662 

-0.0142157 -0.00423996 0.0900384 
0.0122168 0.0029008 0.31337 
-0.00349298 -0.00275673 0.163291 

-0.0847643 0.0627363 0.175906 
-0.0621301 0.0218769 -0.214254 
-0.0144135 -0.0147232 0.119513 

-0.0433786 0.0809551 0.0473848 
0.035613 0.106128 -0.131264 
0.0013465 0.000307666 0.00862254 

-0.0593835 -0.112477 0.000498508 
0.0849209 0.0327762 -0.0528806 
0.00587928 -0.00123439 0.0201123 

-0.0197956 0.0400849 -0.0220577 
-0.0741132 0.0114231 -0.0867252 
0.0042681 0.0409997 -0.011552 

-0.0286195 0.00683415 0.0339455 
-0.00110412 0.0157323 0.493808 
-0.0014105 0.00315202 0.00700573 

-0.124654 -0.0675332 1.14287 
-0.0118856 -0.113429 -0.754242 
0.00495137 -0.00381124 0.416858 

-0.131864 -0.147883 0.0172472 
0.0244887 0.0882607 -0.00937462 
0.00390952 -0.0252277 0.0542217 

-0.011012 -0.00119553 -0.00464708 
-0.00458932 0.0098458 -0.00852906 
-0.000215038 -0.000794292 0.00199442 

-0.316172 -0.219686 0.202193 
0.0665251 0.169782 0.388492 
-0.00574079 -0.00499903 0.0140114 

-0.030241 -0.113171 0.177797 
0.0234955 0.00500975 0.0613089 
0.000259103 0.00173461 0.0198353 

-0.00545152 0.00206979 0.195259 
-0.0195971 -0.00310151 -0.0078651 
0.000657927 0.000890168 0.0334198 

-0.0242836 -0.00678938 0.0967988 
0.017983 0.027682 0.0162433 
-0.00241306 2.90037e-05 0.00245529 

0.0493215 -0.0239898 -0.0832036 
-0.0160234 -0.0669073 0.906224 
-0.00393832 0.00258811 0.00739617 

-0.0231211 0.0343801 -0.0183115 
-0.0596783 -0.000447374 -0.000673177 
-0.00723457 -0.00347845 0.076865 

-0.0735927 -0.183928 0.381001 
-0.265482 -0.117571 -0.876974 
-0.00186995 0.00313863 -0.0357921 

-0.00416285 0.00140992 -0.0165053 
-0.00639653 -0.0113103 -0.0363264 
-0.000803423 0.000863197 0.015594 

0.00733171 -0.0552109 0.156848 
0.0644983 -0.000367107 -0.00273555 
-0.000135297 0.00326128 0.0120585 

0.0212585 -0.216119 0.201522 
0.362768 0.0876175 -0.215358 
0.00619847 -0.0124983 0.308651 

-0.0499147 -0.056793 0.12616 
0.111527 0.0453928 -0.125389 
0.000634891 0.010079 0.255229 

-0.383937 0.0239858 0.731608 
-0.134017 0.261052 0.539208 
0.0135344 0.0156576 0.00123368 

0.0303141 0.129472 -0.0344842 
-0.0934973 0.00841671 -0.0231945 
-0.00142433 -0.00110834 -0.033162 

-0.0613921 -0.0438559 0.24314 
0.0222923 0.057871 0.0384813 
0.00300838 -0.00180967 0.00399264 

-0.223375 -0.735493 -1.17928 
-0.068623 0.0743954 0.490541 
0.0174645 -0.117874 0.0418683 

-0.0186351 0.0131421 -0.791248 
0.0190225 0.0159355 -0.676146 
-0.000564312 -0.000447499 0.0271273 

-0.292233 0.276545 -0.381682 
0.0638795 0.292597 -0.488965 
0.0376023 0.0466573 0.127237 

-0.0112778 0.00287593 -0.804876 
-0.00136215 0.0108183 3.3306 
-4.10721e-05 -0.000140334 0.0972804 

-0.00295991 0.00519677 0.00748233 
-0.017266 -0.000718056 0.0112099 
-0.00229439 0.00257573 -0.00822343 

-0.218572 0.195142 0.244457 
-0.0719473 0.161579 -0.561403 
0.0223091 0.0437397 0.267929 

-0.225633 -0.00933466 -1.03967 
0.0160418 0.133993 -0.256995 
-0.000303512 0.00301503 0.00793903 

0.0262346 0.0375935 -0.13601 
0.207258 0.0600894 0.337461 
0.00132403 0.00341779 0.00618177 

0.000909965 -0.0136331 0.0229363 
0.0132832 -0.00270485 0.0658219 
-0.000294995 0.000156651 -0.00673159 

-0.141594 0.063293 0.0924582 
-0.0695405 0.154215 -0.38867 
-0.0252425 -0.0840471 0.37016 

-0.0127188 -0.0111379 -0.00481746 
0.0267998 -0.00168308 -0.0910506 
0.00121113 -0.00219668 0.0186736 

0.034877 -0.0546126 -0.0155391 
0.0198306 -0.00987198 -0.0620552 
0.00044872 -0.00247662 -0.047855 

-0.0808888 0.179059 0.198986 
0.0105659 -0.0319272 0.874846 
-0.0106427 0.00220452 -0.0985535 

-0.0443959 0.105176 -2.79843 
0.122767 -0.0464407 0.245206 
-0.00501776 0.0238643 -0.292381 

-0.0163415 0.00623275 -0.0532296 
-0.0183169 0.00470855 -0.121253 
0.000248922 0.000453418 0.0115362 

-0.0973473 0.0842058 3.96528 
0.011451 0.0741899 12.6872 
0.00105734 -0.0041646 0.296618 

-0.0139619 0.00927624 -0.361687 
-0.0664024 0.013374 1.82342 
-0.000576825 0.00441482 0.0886438 

-0.0605916 -0.14639 -0.136449 
0.0334711 0.0572325 -0.648974 
0.00131883 0.0202908 0.096473 

-0.119255 -0.0801368 0.429654 
0.00204195 0.0504338 -0.624574 
-0.0813257 0.0669162 0.945274 

0.0268325 -0.216602 0.085294 
0.215333 0.00323041 -0.0489404 
-0.0180345 -0.00314648 0.0276269 

-0.00534841 0.0900437 0.00329509 
-0.0621262 -0.0253153 0.0169404 
0.00643813 0.00165871 -0.00368951 

-0.0201992 0.00456444 0.283398 
0.00845386 0.00148366 -0.198189 
-0.000427862 0.000394813 0.0178615 

-0.0179409 0.0168171 -0.00508108 
0.00714091 -0.00261668 0.00478967 
0.00107914 0.00110341 0.0349111 

-0.104892 -0.0293985 0.0190635 
-0.127264 0.0156858 -0.580575 
-0.0032385 -0.0109867 0.0874798 

0.0511863 -0.0383204 0.022459 
0.0405238 -0.0307648 -0.0747153 
-0.0002521 -0.003271 -0.0220799 

0.0366711 0.039375 -2.33149 
0.0118036 -0.0353279 0.762656 
-0.00207147 -0.000563913 0.108498 

-0.00626039 0.00440741 -0.00293834 
-0.000997875 -0.000813009 0.0119473 
-9.90966e-05 0.000204341 0.0136256 

-0.429487 0.0999435 0.731841 
-0.18422 0.282143 -0.234191 
-0.0296801 -0.0219138 -0.0973976 

0.0608965 -0.104302 0.884161 
0.208645 -0.132315 0.0603432 
0.0161448 0.0201416 0.0522556 

-0.017415 0.0222205 1.05196 
-0.0236266 0.0172514 0.284989 
0.00546189 -0.00584451 0.08771 

-0.0286556 -0.0290011 -0.0886706 
-0.0200097 0.0610078 0.0277743 
-0.00199593 -0.00129621 0.00904211 

-0.00480741 0.0160482 -0.08559 
-0.0166647 -0.00689748 0.0812929 
-0.00503723 0.000394668 0.0116413 

-0.0254448 0.235595 0.12969 
0.251448 -0.0798678 -0.4461 
-0.0103191 -0.00950631 0.0660695 

-0.0750193 -0.507781 0.264546 
0.144507 0.141064 -0.138588 
0.0036027 -0.00160608 -0.00112091 

-0.0732862 -0.223674 -0.146802 
0.215586 0.0383742 -0.425323 
0.0229784 0.0118489 0.04601 

0.00747033 -0.101334 -0.0448239 
0.0581734 0.050524 -0.165111 
0.0181565 -0.00700333 -0.0346033 

0.000295146 0.0666441 -0.0134211 
-0.0706047 0.000100493 0.00788975 
0.0150231 0.00224821 0.0378918 

-0.072278 0.06906 -0.204137 
-0.521508 0.105792 0.11689 
-0.0177149 -0.00621405 0.0912248 

0.00168021 -0.062988 0.525834 
0.0519725 0.0197366 0.345351 
0.0116355 0.00969295 -0.108279 

-0.00982716 0.0130504 -0.0175409 
-0.00434653 -0.00374613 0.0428842 
0.000178333 -0.000833289 0.0228607 

-0.00422812 0.057462 -0.0477034 
-0.0426551 -0.00730696 -0.00461439 
0.000407982 8.47307e-05 0.0166551 

0.0145636 0.0209754 0.120953 
0.0211314 0.0100824 0.0174056 
0.00237975 -0.000697318 -0.0095384 

0.0181102 -0.0281422 -0.0592258 
0.0266747 0.0179895 0.0690245 
0.0238313 -0.0543448 0.0974772 

-0.0124946 0.00661064 -0.051997 
0.0216996 0.0127304 -0.0116487 
-0.00115815 0.00111243 -0.0259668 

-0.107257 -0.0747805 0.561813 
0.0687298 0.142259 0.479254 
0.0300097 -0.0347779 0.61241 

-0.0372378 -0.00432513 0.0242102 
-0.101549 0.0602947 -0.0991436 
0.0631989 -0.0390253 0.0987306 

-0.115961 0.122245 0.741463 
-0.0255093 0.0399513 0.818066 
-0.0122522 0.0333588 -0.178235 

-0.125318 -0.0961942 -2.29493 
0.159432 0.0452145 1.71948 
-0.000291461 -0.00171951 0.222874 

-0.133542 -0.146721 -0.150177 
-0.0202798 0.111449 1.10709 
0.000256501 -0.0024548 -0.0549856 

-0.0151115 0.0172551 0.0174958 
-0.0203523 0.0188312 0.123904 
0.00237075 -0.000960052 0.00326237 

-0.326377 -0.183056 0.930664 
-0.560292 0.295459 0.0419492 
0.00130069 0.000608781 0.0156895 

-0.0145 0.048827 0.289318 
-0.0204441 0.0157525 0.115617 
-0.00047624 -0.000155584 0.0292281 

-0.229549 -0.460775 -0.431603 
0.0514292 0.127265 0.0999731 
-0.00767867 -0.0659901 0.394971 

0.00853279 -0.0249138 0.067707 
-0.0361805 -0.00455497 -0.136839 
8.20176e-05 -0.000812415 0.0336221 

-0.0752295 0.0619529 -0.110233 
-0.0604614 -0.00879051 -0.223341 
0.00539061 -0.0169807 0.148189 

-0.0257818 -0.0856007 -0.0239549 
-0.0475613 0.0406259 -0.164831 
0.00325874 -0.00291551 -0.0141151 

-0.135161 0.00161499 0.290132 
0.12989 0.0907002 -0.228507 
0.021345 0.0156078 0.0987504 

-0.00668637 0.0243584 0.0247608 
-0.0233903 -0.00272448 -0.133873 
-0.00230216 -0.00207455 0.0236484 

0.0139043 -0.0321144 -0.00929083 
0.0270773 0.000522724 0.0912503 
-0.00171036 -0.000693489 -0.0349859 

-0.00188281 -0.00376384 -0.0119596 
-0.056118 0.00681306 -0.000515802 
0.00774464 0.00336854 -0.0040296 

-0.0355013 0.207068 0.0324406 
-0.233782 0.0584199 -0.0245746 
0.00809597 -0.00545265 0.0680289 

0.00233042 0.011222 0.205395 
-0.0132596 0.00285219 -0.0309193 
-0.00315395 0.00315909 0.00106144 

0.00982362 -0.0713587 0.398444 
-0.0203538 0.0775518 1.26249 
0.00645412 -0.00705634 -0.150665 

-0.0149215 0.00955272 -0.0224536 
0.0222562 0.00500523 -0.0593379 
0.000234671 0.000739692 0.00991002 

-0.0369536 0.0825189 -0.923192 
-0.0690265 0.0414452 0.637527 
-0.00113568 -0.00131493 0.247673 

-0.0092674 0.0417957 -0.0354859 
-0.0478964 0.00200882 -0.0450701 
0.00147168 -0.000473823 -0.0160011 

-0.00471934 0.00382994 0.0284164 
3.68288e-05 0.00390242 -0.297889 
-3.26652e-05 0.00084065 0.0365506 

-0.00694239 -0.0220699 5.38578 
0.0055754 0.0236665 -4.78203 
4.54954e-06 -2.76604e-05 0.195546 

-0.0212071 0.0212995 -0.0236981 
-0.0235153 -0.0128727 -0.038523 
0.00372284 0.00398477 0.0515475 

0.0578526 -0.00899754 0.137701 
-0.0493894 -0.0315043 0.176718 
-0.0222304 -0.0363911 -0.0389416 

-0.0089893 -0.00151201 -1.16602 
-0.0313956 -0.0543747 2.54113 
0.00348811 -0.00361175 0.0850729 

0.0108807 -0.00442223 0.382206 
0.0205594 -0.00318112 1.23699 
-0.000285302 7.34662e-05 0.195035 

-0.0338032 -0.192912 0.853117 
0.00333811 0.0225999 -0.415535 
-0.00503871 -0.0117986 0.183295 

-0.0740042 -0.13786 -0.295724 
-0.149482 -0.107213 -0.488811 
-0.00248954 0.0202532 0.0407216 

-0.0182008 -0.113939 -1.81411 
-0.0517137 -0.0270463 -9.39396 
0.00122799 -0.000816711 0.030384 

-0.0138139 0.0124993 0.203795 
0.00768279 -0.00738855 -0.182653 
-0.000349903 0.00142655 -0.00512573 

-0.150875 0.0711702 -0.356291 
-0.0900158 0.0421989 0.0529223 
-0.00291036 0.00104447 0.13616 

-0.494555 -0.186895 8.27788 
-0.30693 0.227253 0.877922 
-0.0213413 -0.0187958 -0.340504 

-0.0223854 -0.040247 -0.350753 
-0.110489 -0.0199587 1.33946 
-0.00386108 -0.00255164 0.115075 

-0.126163 -0.259553 0.023429 
0.101118 0.0924623 0.0565943 
-0.069383 0.0318266 0.102564 

-0.0562596 -0.131712 -0.078813 
0.0621395 0.0938987 0.307698 
0.00413487 -0.0122411 0.00566424 

-0.00052448 0.0132423 0.00341568 
-0.0373355 0.000316583 -0.0186803 
0.000258372 -0.000850558 0.000610042 

-0.0300535 0.0165611 -0.269563 
0.00706898 0.0203128 0.289421 
0.00209834 0.00263349 0.0465425 

-0.00754393 -0.00212216 0.00185882 
0.00165169 0.00147985 0.028458 
-0.000177955 -0.000603203 0.0129944 

-0.011123 -0.00498362 -0.0137234 
0.0120073 4.879e-05 0.0470521 
-0.00288506 -0.000901707 0.00564437 

-0.00364146 0.031942 0.0180913 
-0.0444479 -0.000464886 0.0236438 
0.000147649 -0.00159387 0.0255865 

-0.0206714 0.0957014 -0.421611 
-0.0819905 0.00314219 -0.0969206 
-0.000188875 0.000425793 -0.0130172 

-0.230257 0.0385251 1.57279 
-0.120959 0.14462 -2.17006 
0.0013358 0.00240942 0.23081 

0.207944 -0.618779 0.0195598 
0.677307 0.234571 0.0477679 
-0.00643776 0.0545972 0.110777 

-0.146939 -0.138642 -0.629752 
0.128209 0.136068 -1.97312 
0.00366712 0.000139569 0.0477943 

0.00380798 -0.00637025 0.0359158 
-0.0278554 0.00869951 0.208709 
-0.00842629 0.00197349 0.033297 

-0.00987933 0.0167979 4.31384e-05 
-0.0176281 0.000676674 -0.019401 
-0.000691479 0.000573846 0.0251605 

0.0309702 0.268136 -0.47737 
-0.267849 0.0803105 -0.341286 
-0.00833925 -0.0137255 0.0652052 

-0.0660957 0.0331445 0.29914 
0.0839645 -0.00106178 0.127757 
-0.0352382 0.04268 0.57884 

0.0203123 0.106017 -0.122033 
-0.0528905 -0.0572133 -0.00546437 
-0.00101265 0.00128077 0.011453 

-0.243411 0.140425 0.410768 
0.0280989 0.232248 -0.397253 
0.108967 -0.0478704 0.958428 

0.0533324 -0.228699 0.113104 
0.135062 -0.00255448 0.00343142 
-0.0121695 0.000603633 0.0497088 

-0.018239 0.00994456 -0.469982 
-0.00262154 0.0248116 0.750057 
-0.000379347 0.000917863 0.307636 

-0.114194 0.0374869 -0.113405 
-0.0795758 0.0700805 -0.0664584 
0.00740636 0.0190088 0.03557 

-0.00690731 -0.000760452 -0.0747089 
0.00927905 0.0104535 -0.0166072 
0.00358491 0.000987332 0.000662069 

-0.00492191 0.00474587 -0.254466 
0.0583598 0.0451183 0.289218 
-0.00422 0.000181513 0.144847 

-0.00976912 -0.0623219 0.0058483 
0.0675397 0.0150357 -0.0217145 
-0.00322013 -0.000385459 -0.000640745 

0.00775584 -0.0139705 -0.0779132 
0.0738844 0.0275111 -0.576467 
-0.00408695 -0.000730064 0.0243936 

-0.116302 0.219553 -0.257867 
-0.0129271 0.0783992 0.188655 
0.0131755 0.0033845 0.0422081 

-0.00734981 -0.0799623 0.00304611 
0.0565125 -0.0112314 -0.124301 
-0.00261527 -0.00171454 0.0254364 

-0.022377 0.0773448 -0.56217 
-0.0542418 0.0216807 0.173439 
1.99045e-05 0.00203526 0.112434 

-0.0231355 -0.041502 0.170159 
0.0100436 -0.0477622 0.404708 
-0.00125918 -0.000818052 0.0287306 

-0.0508699 -0.0713903 0.723829 
0.0964735 0.0996752 2.53967 
0.00479756 -0.00360125 -0.0748783 

-0.0924956 -0.183292 -1.03735 
0.0722867 -0.0374561 -0.317142 
-0.0215797 0.0447682 0.158314 

0.0243069 0.174476 0.0778226 
-0.250481 0.0150151 -0.0448686 
0.0564219 -0.0305421 0.717596 

0.000613241 -0.032982 0.251494 
-0.0875988 -5.48831e-05 0.375839 
0.00245309 8.73215e-05 0.0218614 

-0.00750487 -0.693079 0.00101833 
0.585882 0.451796 -0.0514693 
-0.00270525 0.0596348 0.810823 

-0.173278 -0.0383845 -0.101821 
0.000338739 0.0841472 0.205081 
0.000544042 0.0127608 0.176233 

0.0127488 0.0186873 -0.0999709 
-0.0755696 -0.0158789 0.0138766 
0.0358014 -0.0246088 0.0218832 

0.0915961 -0.175619 2.11804 
0.0569435 -0.142617 0.729147 
0.0262212 0.0123454 0.221764 

-0.0149269 -0.0473738 0.0202932 
0.0768097 -0.00128296 -0.02689 
0.0036407 -0.00202058 0.0670133 

0.0156287 -0.0633785 0.00179428 
0.0793581 -0.00298276 0.0102844 
-0.00212054 -0.000215005 -0.0251955 
