# vtk DataFile Version 3.0
Output file generated by Yade's KinematicLocalisationAnalyser
ASCII
DATASET UNSTRUCTURED_GRID

POINTS 13483 float
650.131 27.5839 -0.405766
843.172 50.5864 -0.544991
127.037 6.11577 -0.451435
874.524 5.60908 0.330888
529.767 7.67119 -0.293972
332.557 34.9575 -0.460409
165.604 6.80247 0.4176
606.966 10.3825 0.134816
527.053 23.007 -0.149991
780.892 13.9998 -0.380729
222.414 8.74241 -0.116708
271.404 6.25336 -0.271494
701.059 28.0102 0.140796
679.399 14.1072 0.0770654
145.077 17.0708 -0.446005
233.981 34.2912 -0.388091
229.873 12.8424 -0.259172
305.098 9.4841 0.374823
360.293 32.7663 0.448983
557.224 8.50314 0.365848
435.305 35.8423 0.102727
629.945 44.3832 0.259152
872.783 36.4858 -0.497651
754.857 44.3962 0.42752
486.487 15.9668 0.289093
254.453 43.7927 0.12233
521.802 27.4496 -0.466914
624.666 19.8748 0.296444
47.4617 15.7339 0.465962
777.842 34.0841 -0.329741
511.711 4.80148 0.331563
17.2023 22.82 0.285163
857.189 49.2145 0.262424
525.503 2.48423 0.478762
82.769 43.8402 0.100261
554.309 30.0621 0.326226
563.875 16.6238 -0.40907
363.187 22.0741 -0.169075
567.641 25.5477 -0.31419
370.963 33.2269 -0.384475
254.968 14.3622 -0.305255
460.39 35.8232 0.0673809
731.379 6.66993 0.100458
203.929 6.16163 0.377229
58.4724 6.96494 -0.110965
72.2623 8.91915 0.286873
749.479 8.46203 -0.495121
24.9014 11.7472 0.281852
652.33 44.4427 0.362358
733.389 23.872 -0.330126
182.359 32.2543 0.294331
834.718 36.489 -0.124904
37.1515 27.7513 -0.10799
567.968 3.00923 0.312081
150.445 7.20334 -0.470262
632.935 33.773 0.396205
535.313 27.0468 0.137013
185.113 0.960256 0.256182
34.6477 2.42673 0.286096
368.802 17.6328 0.267954
664.644 45.2093 -0.136391
490.477 33.6051 -0.173241
423.017 1.03415 0.192979
760.131 7.78421 -0.390574
28.0734 42.3891 -0.235271
271.416 30.0038 0.291954
780.452 9.07497 0.270611
722.52 45.1005 0.398509
442.592 8.56162 -0.474563
607.63 3.69842 -0.331325
815.054 33.2953 0.372701
138.496 7.60599 0.27487
530.01 24.9226 -0.13811
507.251 14.7824 -0.116214
311.672 16.6431 -0.3377
21.8638 13.5172 -0.261797
861.476 41.6194 -0.345104
352.001 38.8138 -0.279785
731.373 21.2634 0.336141
748.12 13.2452 -0.229641
861.552 12.645 -0.234482
494.062 33.9752 0.164104
97.9874 37.9063 -0.268699
742.066 36.9854 -0.216432
698.006 38.5719 -0.0964056
876.618 41.5444 -0.124546
856.411 0.793613 -0.455144
308.143 28.517 0.438255
667.432 6.34573 -0.104401
25.7378 5.27621 0.478459
140.798 37.5766 0.139736
546.315 13.751 0.20616
846.431 27.6833 -0.466372
207.257 28.4667 -0.234536
47.0172 34.2513 -0.280595
524.393 1.15819 0.118707
249.774 8.69997 -0.392879
817.622 46.7725 0.260443
835.724 26.4875 0.225171
383.198 20.6073 -0.254984
174.01 26.6976 -0.43282
587.07 39.952 -0.484917
403.555 15.0096 -0.47758
439.854 28.9522 -0.0975275
401.691 4.41575 0.403685
584.969 10.6803 -0.0976512
879.593 11.1325 0.170549
85.055 38.8441 0.38185
356.008 4.74392 -0.179325
599.948 9.58532 -0.344252
382.711 43.0963 0.445463
27.3658 24.2507 -0.466595
32.2836 5.677 0.309314
607.36 32.9872 0.408399
538.697 24.9277 -0.147253
27.9769 36.3676 0.41535
98.7748 30.409 0.215628
345.2 15.7579 -0.294333
644.229 18.4029 -0.131522
506.924 37.3956 0.296853
797.15 8.33744 -0.494161
789.638 6.3516 0.190731
411.905 36.8573 -0.0944134
685.148 25.7611 -0.0923765
253.366 16.9869 -0.487668
350.928 3.67081 0.467194
109.598 31.0908 0.316713
123.663 24.021 -0.267177
582.164 39.5485 0.0758338
325.57 18.7931 0.475323
773.775 36.9838 -0.103321
727.037 44.9058 -0.134581
513.918 19.9094 -0.360349
837.956 10.5719 0.313091
457.246 23.3532 -0.246232
295.334 23.7963 -0.296388
731.513 32.5853 -0.268822
296.707 28.7681 0.394761
619.327 12.078 0.171948
353.629 35.7933 -0.191849
540.036 11.2317 0.480289
391.23 30.8313 0.0816489
459.593 16.6704 -0.102079
338.86 41.677 0.43399
203.09 29.4845 -0.125441
847.877 49.0056 0.1597
876.515 13.0333 -0.3165
6.22507 11.959 -0.443969
463.777 22.0424 -0.411978
41.0361 22.2977 -0.0860211
401.739 31.0914 -0.467261
421.961 24.5103 -0.256821
79.5711 11.8123 -0.503189
55.0729 33.41 -0.434545
241.126 13.471 0.42934
666.29 38.7685 0.405792
621.544 20.7759 -0.428291
79.4026 21.146 0.490406
758.168 47.6558 -0.424056
823.998 2.34987 -0.462069
716.169 39.7682 0.526518
756.074 2.23822 -0.48897
591.204 27.5251 -0.425229
631.598 44.407 -0.441391
549.447 17.9944 -0.36187
872.668 3.8524 0.288699
238.614 24.6761 -0.130011
136.197 34.636 -0.187147
263.875 6.57277 -0.367925
100.969 4.09767 0.264392
68.4339 9.9194 0.212282
294.637 35.8315 -0.314744
17.5515 24.5526 -0.353654
598.237 19.3508 0.430253
652.35 39.4441 0.212072
496.154 20.9305 -0.353762
873.913 54.0267 -0.349721
435.434 8.45956 0.0868641
467.167 36.2542 -0.435329
576.76 3.43022 -0.1873
24.3044 23.6068 -0.385429
621.207 4.43622 0.443599
587.144 4.2545 -0.295815
220.542 11.1855 0.477232
455.381 15.9837 0.203959
332.962 6.20965 0.340802
415.482 18.8503 -0.32465
806.473 46.5074 -0.0973605
205.454 25.5734 -0.408332
847.961 6.36334 0.361244
806.032 42.557 -0.320282
410.535 10.1794 -0.164306
778.029 2.42852 0.410046
653.998 24.2328 -0.402855
804.255 19.7637 -0.361061
462.138 42.814 -0.263439
534.09 12.412 0.364183
499.835 43.6171 0.218334
478.16 8.61739 0.123602
719.712 39.0414 0.313797
717.591 35.0183 -0.298233
205.636 38.482 -0.330037
859.412 12.5297 -0.160083
634.116 44.9951 -0.232905
12.0047 16.7999 0.159593
437.145 24.8643 0.332178
200.366 22.91 0.407985
99.6326 38.9296 -0.203534
843.559 25.5608 0.390031
713.317 44.532 -0.233139
341.783 25.2813 0.352891
573.545 10.1676 0.308887
88.1418 43.8871 0.163546
265.156 25.6065 -0.467334
599.714 23.98 0.385789
523.542 18.7033 0.382054
281.277 0.896117 -0.343339
596.181 41.4197 -0.373487
575.084 41.1127 0.473261
518.359 33.0417 0.38458
537.108 0.779906 -0.490984
765.875 20.0219 -0.352579
192.393 11.9369 -0.171744
538.665 36.8099 0.438577
608.416 40.0981 0.127172
77.8309 0.915436 -0.262833
269.529 4.64496 0.177214
876.361 15.056 0.184651
862.044 14.5867 -0.368236
881.446 17.5401 -0.590771
325.124 8.48159 -0.232342
814.012 23.0951 -0.436728
437.229 40.8338 0.318769
482.513 0.815959 -0.398354
704.25 35.0423 0.42479
29.1173 30.0477 0.318956
354.115 40.7481 -0.454167
270.455 2.80324 0.31745
860.901 47.4299 -0.220299
776.485 50.2212 -0.237767
307.894 10.7286 0.195301
724.658 28.7742 0.0989985
601.968 2.60853 0.255213
584.807 6.30908 0.422116
103.432 18.11 -0.470562
324.973 1.03794 -0.223689
368.312 2.29104 -0.352452
14.9989 7.64048 -0.313891
4.74589 31.0393 -0.246521
173.835 18.7832 -0.365548
73.3296 41.3637 -0.20784
71.4479 28.6323 -0.313908
455.056 14.2983 -0.419204
394.336 34.5142 -0.460963
834.622 40.0238 0.113629
20.9914 4.00917 -0.274094
75.4411 6.88701 -0.132382
677.261 38.2713 -0.155812
316.063 0.935973 0.317052
391.627 15.918 -0.102009
252.625 4.61339 -0.384066
709.929 21.61 0.17731
485.81 8.35546 0.39774
814.566 21.3664 -0.387134
684.194 28.9776 -0.304918
729.641 18.5814 -0.0981519
452.166 26.3839 0.488413
109.587 44.3113 -0.305644
585.476 43.6313 0.0691674
800.575 15.3063 0.196771
255.09 29.9473 -0.232914
34.2231 16.5425 -0.162678
360.967 13.6529 0.482424
115.447 39.9209 -0.460268
287.322 42.2163 -0.192726
457.501 1.08249 0.164339
855.94 35.7441 0.472793
748.564 0.702298 -0.523063
356.616 3.09139 0.493423
322.047 26.4425 -0.147361
498.515 40.4428 0.209961
87.274 7.80768 0.345385
212.339 44.3738 -0.377623
838.413 30.2812 -0.372478
533.722 39.158 0.0744464
214.827 40.8055 -0.257171
172.418 42.0428 -0.386579
881.229 35.0434 -0.40894
878.144 12.0619 -0.581154
657.039 2.83961 -0.460079
204.068 24.344 -0.0924996
593.029 28.3662 -0.104109
594.983 27.7727 0.277837
440.179 5.56415 -0.133419
519.138 0.926567 -0.282487
832.717 42.9036 -0.504782
91.2175 30.4721 0.219733
715.721 18.4328 0.422476
294.524 15.3876 -0.331153
10.6102 2.3046 0.341904
134.762 36.3383 -0.186883
71.5864 22.7916 0.470951
766.222 37.8748 0.312872
862.097 57.4879 0.174231
199.259 28.0769 -0.177076
871.81 13.3261 -0.389004
48.3305 36.4197 -0.256403
97.3893 28.5722 0.160574
689.629 12.8205 0.401854
445.089 17.767 -0.481972
560.439 16.553 0.107206
255.746 28.0628 0.189126
674.963 4.51374 -0.40921
882.041 10.7874 0.510159
32.1352 31.1706 0.268857
290.023 7.66551 0.185327
238.468 15.0069 -0.235076
1.10624 35.8551 -0.144688
242.064 14.5759 -0.34903
227.405 10.8222 0.124479
230.047 25.9174 -0.276973
142.878 27.4641 0.132897
591.76 14.9032 0.337755
179.789 14.1537 -0.343707
854.684 46.968 -0.222255
187.277 3.9336 -0.48104
50.7653 37.6408 -0.37294
810.821 55.0198 0.426719
301.981 31.5682 0.387777
738.92 25.0698 -0.477106
861.43 32.7754 -0.57386
323.136 9.12084 -0.110088
804.048 33.9189 0.342826
353.331 2.61989 -0.359153
448.524 23.725 -0.372016
736.031 15.6852 0.435244
113.366 11.6379 0.4677
520.863 3.90658 -0.475672
816.915 18.6935 0.178287
94.9848 7.64579 -0.202619
302.669 14.6299 0.18246
456.269 11.4469 -0.220457
871.575 2.50771 0.608908
428.203 1.91256 -0.496487
189.899 38.7521 0.27869
802.852 11.8688 -0.2676
138.079 35.6862 -0.194453
282.787 31.3448 -0.375811
431.164 21.3222 0.215063
622.322 13.3124 -0.330073
416.713 9.88004 -0.423027
492.192 27.2101 -0.427311
844.015 51.3721 0.389428
51.1073 10.9173 0.122998
321.647 38.204 -0.264229
408.549 25.9228 -0.417465
441.226 20.734 0.249577
563.295 44.546 0.356426
825.904 42.472 0.195041
724.055 35.3687 -0.367216
242.391 33.8788 0.400219
14.7838 30.9417 0.155132
715.858 36.0632 -0.135642
550.168 41.9363 0.438086
246.887 38.5526 0.0903312
743.968 31.7925 0.102113
162.738 9.1885 -0.189874
394.753 21.2271 0.262086
500.297 41.4981 -0.105944
445.962 19.2288 0.199833
840.139 52.3975 0.295171
458.976 3.30152 0.428004
53.4378 25.1525 0.296187
507.445 30.9246 0.335368
468.912 41.024 -0.350246
858.033 42.2029 -0.22278
800.426 33.9782 -0.221449
585.849 18.4302 -0.133835
848.824 42.041 0.423367
315.145 2.06318 -0.419016
408.628 28.9539 -0.464569
31.2017 38.1823 0.295114
807.348 33.7374 -0.133176
662.676 20.3236 0.517224
499.602 0.777114 -0.485617
135.889 4.47844 0.279255
460.035 40.1547 -0.096653
13.1501 0.91161 -0.312911
870.01 6.99981 -0.0867222
398.657 38.6767 0.175639
[...]
POINT_DATA 13483
TENSORS Strain_matrix float
-0.0922442 -0.127807 0.28758 
-0.0247771 0.094496 0.0889924 
-0.00142177 0.00150792 0.0197925 

-0.117786 0.0198787 11.9461 
0.0117609 0.225352 -9.25336 
-0.00586663 0.00528159 0.355807 

-0.0194259 -0.00379279 0.111919 
0.000364526 0.0158963 -0.0405225 
0.00315513 -0.000260033 0.0348795 

-0.218503 -0.0263518 0.113331 
-0.332133 0.191586 -0.497269 
0.0136978 -0.00817064 0.0481318 

-0.0232508 -0.00132035 0.0689748 
-0.0408656 0.0157544 0.0294313 
0.00640693 0.0206766 -0.161519 

-0.0111842 -0.00740136 -0.218244 
-0.0109563 0.0137288 -0.822774 
-8.39969e-05 -0.00544181 0.0642478 

-0.0192875 0.0036835 -0.0551595 
-0.00552745 0.00642083 -0.00503403 
0.000106893 -0.000101209 0.017325 

-0.0123102 -0.0171472 -0.0215579 
0.00896624 0.000620246 0.00499006 
-9.51077e-05 -5.16976e-05 0.0226817 

-0.016835 0.0317985 -0.150278 
-0.0490747 0.0105953 -0.168345 
-7.80575e-05 -0.000109941 0.0104242 

-0.260404 -0.0963467 0.411627 
-0.0129591 0.122467 -0.379003 
0.0236176 0.015469 0.00443192 

-0.0100778 -0.000261318 0.00219823 
-0.00200409 0.00140222 -0.000682158 
0.000415603 -0.000996083 0.0191408 

-0.0112434 -0.00507782 0.0224657 
0.000209641 0.00376496 0.0119148 
0.000191949 0.000401141 -0.00300729 

-0.0060579 -0.0113587 -0.0098892 
-0.0104587 -0.00280811 0.010839 
-0.00109447 -0.000287855 0.0155325 

-0.0205888 0.0661411 -0.000293053 
-0.0353395 -0.022565 -0.101323 
-0.0198055 0.00413254 0.58172 

-0.0136894 -0.0280485 -0.482058 
-0.00638628 0.0118247 0.0942587 
0.00105601 -0.000681427 0.0239944 

-0.0209927 0.0410688 -0.493378 
-0.00257688 0.0264714 -0.124967 
0.000722336 0.000309676 0.0289224 

-0.0195057 -0.00847069 0.039047 
0.00573445 -0.00417259 0.0209986 
-0.000691371 2.50854e-05 0.0268089 

-0.0292896 -0.00335937 0.0148312 
-0.000519637 0.0135202 -0.0377436 
-0.000448626 0.00144551 0.0109153 

-0.0171978 0.00928424 0.0642858 
-0.000266255 0.00225024 -0.0536108 
0.000420208 0.00162992 0.0102536 

-0.011105 0.00228746 -0.000414136 
-0.011683 0.00862235 -0.0174408 
-0.00162154 -0.000405507 0.0194754 

-0.0321317 -0.000769683 0.0411331 
-0.0115438 0.0131637 0.110292 
-0.00188814 0.000250865 0.0238729 

-0.00972337 -0.0342518 -0.045443 
0.00887632 -0.0262039 -0.153897 
-0.0137872 0.0320673 0.45538 

-0.129161 0.180973 -1.31488 
-0.143215 0.0507494 2.89722 
-0.0035113 -0.0229168 3.37428 

-0.0262956 0.0289013 0.501449 
-0.031513 0.0116582 0.320243 
-0.000503863 0.00104242 0.042611 

-0.00639451 -0.00654872 -0.0977413 
0.0085158 0.00701112 0.0708783 
-0.000413697 1.88177e-05 0.00279984 

-0.0261292 0.0208047 -0.000627638 
-0.0158221 0.0125561 -0.00247983 
0.0174785 -0.0139856 0.103149 

-0.0246958 -0.00267508 1.62129 
0.00746914 0.0266694 5.02408 
-0.000246126 -0.000462502 0.341322 

-0.000676767 -0.0646983 -0.215543 
0.0825227 0.0230108 -0.274048 
-0.00137429 0.0019898 0.0557823 

-0.0131216 -0.0132399 0.0384734 
0.00461402 0.00453569 0.335208 
0.0016748 -0.00205525 0.0517518 

-0.210381 0.184865 0.518249 
0.083981 0.175496 1.56645 
-0.00363373 -0.0185432 -0.132514 

-0.0188011 0.0108764 -0.0253767 
-0.017688 -0.00233761 -0.0208942 
0.000147312 -9.58729e-05 0.0335145 

-0.00732663 -0.0273486 0.01194 
-0.009605 -0.0117126 -0.0278772 
-0.000511826 0.000155403 -0.00372397 

0.0440371 -0.0831436 -0.298121 
0.0936078 -0.0162948 0.181683 
-0.00524303 -0.0138245 0.103185 

-0.0442265 0.0075781 0.422359 
0.00638998 0.0427245 -1.40506 
-0.000484072 -0.00279805 0.194823 

-0.0160159 -0.00351266 -0.00613808 
0.0176828 -0.00957812 -0.0719074 
0.0459807 0.0836842 0.563763 

-0.0138127 0.00786108 0.0913609 
-0.00556831 0.0116515 0.199399 
-0.0012154 0.00139431 0.0227633 

-0.00774122 -0.0016533 -0.246368 
-0.00321871 0.00620795 0.172974 
0.000140297 -0.000321786 0.043857 

-0.0210838 -0.0121308 0.0520686 
0.00730092 6.94861e-05 0.0360138 
0.000463628 -0.00086101 0.00180147 

-0.00328143 -0.0011032 0.0110223 
-8.00572e-05 0.00135691 0.023719 
-0.000288115 -0.000506121 0.00403398 

-0.0124037 0.000439463 -0.00540796 
0.0126183 0.0109983 -0.055255 
0.00772794 -0.00413451 -0.0203114 

-0.00990013 -0.0297189 0.0974197 
-0.0269867 0.0259822 0.044324 
-0.000304474 0.00266926 0.000912189 

-0.0602108 -0.0373466 -0.111596 
0.0775476 0.0329396 -0.103481 
0.0423469 0.00286671 0.374206 

0.00486059 0.0510266 0.147573 
-0.0763087 -0.0479131 0.0732323 
-0.00187221 0.00702656 0.0993841 

-0.0119983 -0.00134934 0.0359937 
-0.00110072 -0.000530638 0.363988 
-0.00235656 -0.00352468 1.36582 

-0.0235711 0.00621583 -0.0251117 
-0.00513772 0.0178797 -0.00541761 
-0.0013578 -0.000735813 0.00251429 

-0.0261045 -0.0117657 -0.031178 
-0.010673 0.0185234 0.0531405 
-0.00134364 0.000428816 -0.00493581 

-0.0505854 -0.0541086 0.248496 
-0.00956703 0.0258528 -0.728176 
-0.00575235 0.0057557 -0.0200113 

-0.0153612 -0.00943052 -0.0289247 
0.00152903 0.0212087 0.00759989 
-0.0068216 0.00308023 -0.0202339 

-0.0261779 0.00276295 0.0013813 
0.000950567 0.00422698 0.0805906 
-0.0130296 0.064755 -0.0701203 

-0.121869 0.146244 -0.019498 
-0.182528 0.202619 -1.06617 
-0.0109716 -0.00585633 0.129461 

-0.00706212 -0.0464246 0.124332 
0.0715168 0.0521526 0.0626715 
0.0113522 -0.0191376 -0.0838898 

-0.568658 0.268817 0.0502507 
0.181866 0.351227 -0.215046 
-0.0261254 -0.0268534 0.168716 

-0.00415048 0.0217372 0.0179449 
-0.0183289 0.00561955 -0.0194944 
-0.000239242 -0.00074687 0.00319887 

-0.0250067 0.0168235 0.0101605 
-0.0155211 0.0146542 0.0397473 
-0.00223382 -0.000473609 0.0194349 

-0.0352357 0.0152082 0.00977822 
-0.0215667 -0.0070399 0.0469561 
-0.00505172 0.00139409 0.0637466 

-0.00559463 -0.0797849 -0.696616 
0.0143431 0.0168085 0.387008 
0.00463685 0.00128921 0.0600637 

-0.176275 -0.196821 0.165416 
0.301394 0.199865 -0.359055 
-0.00478085 0.00717209 0.0664076 

-0.0134274 0.00308574 0.0375499 
0.00179256 0.00391518 0.0262149 
-0.000341889 -0.00250743 0.00113722 

-0.0102534 -0.00578242 0.0298649 
0.000102132 2.01048e-05 -0.0200847 
0.000378435 -1.41719e-05 0.0140237 

-0.00814953 0.00405212 -0.0255245 
-0.00455747 0.0031419 0.00569539 
0.000183109 -0.000328748 0.00974335 

-0.021703 0.00618846 -0.0347693 
0.0207026 0.0316559 -0.0667495 
0.00901738 -0.0562587 0.191307 

-0.00683181 -0.03654 0.128594 
0.00604684 0.00417344 0.015713 
-0.0007228 -0.000305551 0.037478 

-0.0213922 -0.0294976 -0.0626013 
-0.00337888 0.0053553 -0.0198768 
0.0027557 0.0220731 0.103473 

-0.200263 0.0108769 0.0466404 
0.0499039 0.135988 -0.325685 
0.0229186 0.0256464 0.301933 

-0.0506156 -0.0146032 0.12655 
-0.0232884 0.0418189 -0.173269 
-0.00243026 0.0132302 0.0711824 

-0.0212982 0.0472985 -0.00199876 
-0.0247208 0.0238171 0.0104769 
0.00164618 0.000786944 0.0115912 

-0.136422 0.0922509 -0.0917169 
0.0840429 0.00969385 -0.36833 
-0.0564601 0.0605685 0.612727 

-0.0720089 -0.140963 0.391804 
0.0854709 0.0446079 0.394835 
-0.0432229 -0.0202271 -0.212253 

-0.0142616 -0.0041146 -0.0792425 
-0.00122346 0.00561693 0.0173283 
-3.36233e-06 0.000893089 0.0112213 

-0.0303795 0.0280338 -0.0457339 
-0.0645229 0.00479075 -0.21996 
0.0060502 0.00213622 0.0395373 

-0.467623 0.198828 0.234715 
-0.235363 0.348513 1.02745 
-0.00208159 -0.0129232 0.0756718 

-0.0128942 0.00372582 -0.0058325 
-0.00110418 0.000829055 -0.00473898 
0.00160319 -0.000638863 0.0261792 

-0.0227395 0.0623276 -0.0122163 
-0.0776062 0.00268609 -0.182425 
0.0180154 0.00587667 0.128878 

0.00799263 0.0087381 0.0601913 
-0.000272796 -0.00341038 -0.0616077 
0.000185618 0.000332095 -0.000283731 

-0.00595506 -0.00557722 -0.183125 
-0.011111 0.00281503 0.0190535 
-0.000279933 0.0012278 0.0129741 

-0.0143351 -0.0122571 0.0432148 
0.0121528 0.0103693 -0.0162858 
0.00133404 0.000486453 0.00209976 

-0.215484 1.40625 -0.448984 
0.148442 0.185279 3.00463 
-0.0633447 -0.0294023 0.952151 

-0.0107487 0.0168205 -0.00843305 
-0.0203792 0.00253438 -0.0227883 
-0.00363707 -0.00606816 0.086085 

-0.236354 -0.0188686 -0.47729 
-0.00825155 0.146065 -1.09125 
0.00575464 -0.00417318 -0.0215299 

-0.0321514 -0.220348 0.593198 
0.13083 0.0622453 -0.0448778 
-0.00439136 0.000259413 -0.00255416 

-0.0126493 -0.197571 0.0872721 
0.204421 -0.00767665 -0.119815 
-0.00940633 0.00801143 0.107138 

0.00234732 -0.0498615 0.0789274 
0.0385772 -0.00626501 0.144731 
0.000442927 -0.000356768 0.0167974 

-0.00580464 -0.0314034 0.0622452 
0.0307572 0.0100206 0.0496358 
0.000102432 -0.000387091 0.00689979 

-0.246685 -0.264229 -0.260842 
0.156152 0.208685 -0.0109848 
0.0333507 -0.000271827 -0.0226821 

-0.0202947 -0.0025965 0.0230773 
0.00194659 0.0018952 0.0127554 
-5.25883e-05 -0.00015139 0.0236752 

-0.532708 -0.157642 0.291786 
-0.0373661 0.280643 -0.256291 
-0.0675317 -0.00559326 0.448747 

-0.137631 0.794217 1.5961 
0.10714 0.180492 -0.407141 
-0.0138626 -0.0454338 0.196383 

-0.0245933 0.011918 0.0658741 
-0.0595918 0.0119934 0.256494 
0.000172374 0.000841471 0.00404271 

-0.00675053 0.0181705 -0.00715212 
-0.0132929 0.00393968 0.00209136 
0.00106686 -0.000522489 0.00766144 

-0.0268344 0.00639337 0.210773 
9.0602e-05 0.0120345 0.293663 
0.00107459 -0.00136716 0.10247 

0.00175659 0.0200475 0.00218957 
0.00281388 0.00240693 0.00702673 
-0.00500304 0.00547903 0.0165286 

-0.136503 -0.0521443 0.125309 
0.121733 0.106063 -0.128503 
0.0041971 -0.00146493 0.116023 

-0.214965 0.29641 0.292719 
-0.0780453 0.22102 0.0636339 
-0.00836592 0.00275366 0.201079 

-0.00978237 0.00165335 -0.00357696 
-0.0119394 0.003391 0.0131083 
0.000929466 -0.000131406 0.000227343 

-0.0263048 0.00603394 0.149622 
0.0105654 0.0466607 -0.0648015 
0.00340746 0.0168541 0.189333 

-0.0353077 0.0379325 -0.0556158 
0.0126915 0.0400989 -0.0668956 
0.00207551 -0.00123062 0.0156299 

-0.0201306 0.00391624 -0.0245975 
0.000848768 0.00885219 -0.122913 
-0.000722608 -0.000142865 0.00713098 

-0.0973059 0.129582 -0.28462 
0.0567856 0.0041823 -0.181806 
-0.0031865 0.0814325 0.245402 

-0.471667 0.386652 0.0885293 
-0.0670331 0.382656 -0.362777 
-0.0472042 0.024826 0.626139 

-0.00928645 -0.0111898 -0.0594491 
0.0190646 0.0128324 0.0560596 
0.00156061 -0.00148894 -0.00995529 

0.00599567 0.00906276 0.214397 
-0.00612495 -0.0203682 -0.613599 
0.00730864 -0.0184591 1.76436 

-0.0436584 -0.0324468 -0.118397 
0.0553042 0.0492656 -3.85435 
0.00533357 -0.000718418 0.159539 

-0.0337644 0.00126023 -0.124952 
-0.00878488 0.000634369 0.464676 
0.0035144 0.015511 0.168766 

0.0052807 -0.0146844 0.0526902 
0.0243015 -0.00677908 0.0112811 
0.000513102 9.58056e-05 0.00956896 

-0.0141629 -0.00937865 0.244941 
0.00215231 0.00952279 0.0744112 
0.0022758 0.00167782 0.0477838 

-0.0207356 0.0621362 -0.014113 
-0.0724215 0.0143164 -0.0214937 
-0.00435886 0.000236478 0.0192059 

-0.214135 0.0475649 0.162515 
-0.101805 0.0474778 0.0576934 
0.0191437 0.0192675 0.126105 

-0.0234797 -0.00372954 0.0382587 
0.0167938 0.00481098 -0.142228 
-0.000667791 0.00181591 0.00972212 

-0.0207283 0.0132386 0.0493264 
0.00560594 -0.000591678 -0.0304689 
0.00101775 0.000367169 0.0209591 

-0.0310287 -0.0394951 -0.0170876 
0.0327416 -0.00613027 0.109263 
-0.00243504 -0.000819389 0.0801406 

-0.0227814 -0.00127478 -1.82284 
0.00467281 0.0102767 -1.64258 
0.00429298 -0.0105739 -0.185561 

-0.00828625 -0.0192162 -0.185926 
0.0446532 0.000321016 0.397115 
-0.00185039 0.000304486 0.00110451 

-0.0178983 -0.00550301 -0.0016726 
0.00746571 0.00599181 -0.0268389 
0.000234217 0.000398719 0.0151693 

-0.0501179 -0.0424271 -1.27309 
-0.0319359 0.0242092 0.55479 
-0.00661754 0.00576427 0.0517811 

-0.224097 0.0255709 0.237217 
-0.0168073 0.148105 -0.524569 
0.0123218 0.0160078 -0.0438904 

-0.0172455 0.0120298 -0.254491 
0.00303056 0.00491095 -0.0822925 
-0.0161985 -0.00588842 -0.605877 

-0.0753946 0.108762 -0.34688 
-0.0263853 0.0433936 0.141515 
-6.52372e-05 -0.00137541 -0.00188754 

-0.0126942 0.00230138 0.0230156 
0.00714278 0.012568 0.00866979 
0.000954078 0.000533782 0.0107884 

0.00201453 -0.142798 -0.0459276 
0.0810447 -9.32639e-05 -0.0394198 
0.0037496 0.00358351 0.0279287 

-0.0116506 -0.0306131 0.00409701 
0.0457162 0.000711808 0.083346 
4.54333e-05 0.000465879 0.0128123 

-0.326242 -0.278717 0.345665 
0.29423 0.225297 0.188699 
-0.0542582 0.0448111 -0.00566842 

-0.106819 0.0941644 -0.195933 
0.00129944 -0.0016465 -0.22384 
0.0159 0.0104902 0.21746 

-0.0134717 0.0283659 0.00317634 
-0.0303191 0.00872566 0.0249269 
-0.00707101 -0.0049331 0.0579656 

0.00945481 0.00858421 -0.0101175 
-0.0294785 -0.0168058 0.0168138 
0.000830821 -0.00109495 -0.0142192 

-0.0298657 0.00845812 -0.0231436 
-0.00687535 0.00889845 0.186708 
-0.000378554 -0.000154182 0.0484229 

-0.0150606 0.00785186 0.0179673 
-0.00198249 0.00798303 0.0811222 
-0.000619132 -0.000885069 0.0384661 

-0.00235621 -0.0360208 0.185623 
0.0267759 -0.00027164 -0.196503 
0.000299163 -0.00153853 0.0288709 

-0.0714527 0.0376626 0.0545051 
-0.0181913 0.0960552 -0.244094 
-0.00080373 -0.000260775 0.0210377 

-0.0190081 -0.136966 -0.0461101 
0.130967 0.0265306 0.087686 
-0.0351073 0.0058407 0.147703 

-0.016114 -0.0150167 0.713402 
0.0105219 0.0104387 -0.0272349 
-0.000347297 -0.00321868 -0.197343 

-0.117607 0.107983 -0.687727 
0.0953979 0.0609911 -0.0630985 
-0.000475628 -0.000129777 -0.00918047 

-0.0126124 -0.117141 -0.0716684 
0.134066 -0.0206119 -0.0492434 
-0.00553834 -0.0343166 0.217879 

-0.0570286 -0.018681 -0.265492 
0.123077 0.0679213 0.889111 
0.00131319 0.0137639 0.0284275 

-0.059097 0.0585856 0.0559259 
0.00136007 0.00354934 -0.185613 
0.00341989 0.0023299 0.0938839 

-0.0539103 0.0881382 -0.134707 
-0.00300658 0.0548753 0.00738145 
0.000443907 -0.000422663 0.0189471 

-0.0321302 -0.021724 0.234155 
0.0349053 0.0404855 -0.136801 
-0.0010737 0.00161558 0.000875883 

0.0012949 0.056111 -0.0658236 
0.0926831 0.0804533 -0.298563 
-0.00295195 -0.00108609 -0.0312456 

-0.0381221 -0.0351137 0.659377 
0.0599603 0.032524 -0.348987 
0.000580492 0.00010361 0.0318933 

0.0203498 0.0411031 0.0620698 
0.00726905 -0.0171946 -0.033373 
-0.00355196 -0.0033995 0.0226231 

-0.0013976 0.0011427 0.0179697 
0.00381648 -0.00374484 0.0115943 
-0.000690263 0.000326899 0.00604514 

-0.0403029 0.0334131 0.277965 
-0.0119823 0.0100869 -0.0151121 
0.00291021 -0.00095488 0.0550775 

0.00181532 -0.0271181 0.00574425 
0.0108516 -0.00134662 0.000582899 
0.000492431 0.000496415 -0.00510555 

0.00321537 -0.0341187 0.100037 
0.0723628 0.0161456 0.132363 
-0.0016604 0.000245731 0.0111565 

-0.0108329 0.00222621 0.040412 
-0.00686781 -0.00604517 -0.551905 
1.46249e-05 -0.000441879 0.0292651 

0.00301174 -0.0100773 -0.0242377 
-0.00136631 0.008362 0.0254253 
-0.00369556 0.00522859 0.0540231 

-0.0775596 0.048635 0.0910689 
-0.0930844 0.0782736 0.0662143 
0.0235551 0.037412 0.515331 

-0.167646 0.20702 0.526594 
-0.276307 0.0379747 -0.0573736 
0.0151343 -0.00800821 0.190291 

0.0125263 0.0270029 -0.141312 
-0.0143298 -0.0238237 0.154743 
-0.0116531 0.00384823 0.0632874 

-0.00919758 0.0382169 0.0456091 
-0.0339705 0.00497622 -0.118933 
0.00177485 -0.000475023 0.00727648 

-0.0314967 -0.0115181 -0.0323677 
-0.00581882 0.0212638 -0.0579395 
0.000547606 0.000151359 0.00440943 

-0.0212452 -0.0180518 3.88861 
0.0176627 0.0305024 2.62049 
-0.00166979 -0.000113696 0.346818 

-0.00117528 -0.0244707 -0.080998 
-0.0346603 0.0128144 0.0238488 
-0.000441446 -0.00094412 -0.000176571 

-0.0313671 -0.00494679 -0.111405 
-0.00235611 0.0185783 0.40921 
-0.00126205 -0.000261395 0.0561015 

-0.0313591 0.0145245 0.748505 
0.0232924 0.0273492 -0.380218 
-0.00184994 -0.00058327 0.0495038 

-0.0110192 0.00139043 0.114558 
0.00585207 0.00859564 -0.0738425 
-8.51268e-05 0.000474092 0.0356784 

-0.0805811 -0.0387444 -0.118147 
0.0030759 0.0526946 -0.165809 
-0.0404142 0.054697 0.0339097 

-0.0231913 -0.0799904 0.105977 
-0.0462369 -0.0163076 0.729319 
-0.00244216 0.00424636 0.063691 

-0.0342691 -0.00490194 -1.86868 
0.000462522 0.0289763 0.491761 
-0.00152924 0.000658265 0.038863 

-0.0725065 -0.0630337 -0.248099 
0.0258679 0.286991 -1.48413 
-0.0169455 0.0277982 0.214277 

-0.0605442 0.0752479 0.41889 
0.00564028 -0.038622 -0.395582 
0.00195972 -0.00678008 0.129027 

-0.0299971 -0.0580658 -2.52514 
0.0535365 0.0461681 7.54134 
0.00550007 0.00652994 0.178601 

-0.147092 0.0541117 0.240447 
0.0161476 -0.0337259 -0.783042 
0.0127267 0.00266849 0.501994 

-0.0655175 -0.00872757 -0.664163 
-0.028969 0.0404475 -0.310481 
-0.00488527 0.00240481 -0.0184956 

-0.0337601 0.00641356 -0.964252 
0.00640143 0.00955028 0.664264 
0.000509995 -0.00128395 0.359206 

0.0101284 -0.0545495 -0.230067 
-0.0213745 -0.00873788 0.335177 
-0.00187178 0.0022624 0.0236501 

-0.402081 -0.31928 -0.487394 
0.277308 0.366749 -0.486214 
-0.0163542 0.00521817 0.114022 

-0.0128579 -0.0114046 0.0108987 
0.00977624 0.00600081 0.0285142 
-4.91847e-06 1.37273e-05 0.0104711 

-0.00313065 0.0341281 0.0166624 
0.0180708 -0.000545782 0.0605204 
-0.000204161 0.00148803 0.0109676 

-0.013945 0.00253814 -0.0322973 
-0.00169823 0.00444169 0.0180935 
0.000431517 0.000422254 0.0282447 

-0.0484018 0.0277581 -0.431553 
0.00364515 0.0309415 0.521177 
0.000131805 0.000873324 0.0475921 

-0.0351568 -0.00823173 -0.0989628 
0.0101424 0.0218672 -0.0842426 
0.00683625 -0.0307754 0.171203 

-0.0278731 0.0160377 0.209553 
-0.0101234 0.0117638 0.106953 
0.00210603 -0.00231918 0.0482926 

-0.016583 0.00256522 -0.241398 
-0.00551792 0.0184885 -0.251187 
0.000155689 -0.000738723 0.0220086 

-0.0905897 -0.031094 -1.19407 
-0.04226 0.0893858 0.73043 
0.000853295 -0.00111564 0.0963323 

-0.00941932 0.00799834 -0.0124899 
-0.00500541 0.000106916 0.00360221 
0.0031717 0.00252954 0.0314228 

0.00116918 -0.00376761 0.00639212 
-0.0103108 -0.0043282 0.0579434 
-0.000731314 0.000598114 0.00658396 

-0.654301 0.450461 10.6353 
-0.280647 0.584844 3.54457 
0.00993678 0.0116863 0.105866 

-0.0196993 -0.0243448 0.0189988 
0.00908402 0.0110863 -0.0230677 
0.000881886 -0.00157468 0.0116061 

-0.0130149 0.0445518 0.12348 
-0.0359156 -0.00475607 0.356631 
0.0164512 0.012197 0.0621343 

-0.0281616 0.0148981 -0.0330009 
-0.00752299 0.00440318 0.000758831 
0.0022587 0.00121009 0.0269842 

0.00123508 -0.0149034 0.00652599 
0.021704 0.00406337 -0.0393608 
0.000616051 -0.0011605 0.00841401 

-0.0999707 0.0571022 -0.0925105 
-0.111685 0.128779 -0.707007 
-0.0197632 -0.0107705 0.027556 

-0.00905131 -0.0133698 0.0468196 
-0.00972303 -0.0120735 0.00574602 
-0.00271217 -0.00171863 0.0533305 

-0.0135424 -0.00136136 0.559144 
0.00053957 0.00277413 0.835527 
-0.000509331 -2.55553e-05 0.0326441 

-0.00463068 -0.0567008 -0.010797 
0.0228885 -0.00681646 0.0482138 
0.000437067 0.000749998 -0.00403943 

-0.0311787 -0.00466096 0.06628 
0.000375795 -0.00152231 -0.00405663 
-0.00306384 0.00585653 0.050631 

-0.025983 0.00480891 0.0352392 
0.00930503 0.013654 -0.0153204 
-0.0132035 -0.0303851 -0.0479082 

-0.0666307 -0.341015 -0.0806972 
0.315478 0.16649 -0.0227418 
-0.0509692 0.0197882 0.214788 

-0.0128897 -0.00166041 0.135119 
-0.00093459 0.00962665 -0.0988612 
0.00129563 -0.000284379 -0.00153226 

-0.0806415 0.0114824 0.150414 
-0.0234551 -0.0277593 0.176866 
-0.00911318 0.0029439 0.180784 

-0.0635676 -0.100331 0.174979 
0.150968 0.054032 -0.543592 
-0.0425082 -0.0256536 0.341693 

-0.0186432 -0.0130025 0.0202563 
0.0226859 0.00727394 0.0263066 
0.000775801 0.000506591 0.0129085 

-0.178213 -0.181725 -0.198519 
-0.00897446 0.130191 -0.162697 
0.0091904 0.0583245 0.484951 

-0.109493 -0.0981817 -0.186767 
0.155483 0.130746 0.0379094 
0.00319248 0.000640532 0.0113663 

-0.0551375 0.558771 0.269066 
-0.302485 0.236441 0.0502274 
0.000156245 -0.00208525 -0.0161744 

-0.00138477 0.00552825 0.0264189 
0.00949362 -0.0143504 0.315894 
0.00599941 0.00853417 -0.140901 

-0.00923639 0.0623533 0.122367 
-0.0465114 0.00701293 -0.12481 
0.00101992 -0.000593614 -0.00791537 

-0.024288 -0.0130582 -0.0590455 
-0.00949014 -0.0180925 -0.0706034 
0.0351571 0.0979015 0.407215 

-0.0216573 -0.00714563 -0.0351275 
-0.0116578 0.0104814 0.0331822 
0.000473988 0.00100483 0.0101066 

-0.0175628 -0.11747 -0.0730048 
0.107039 0.021117 0.561224 
0.00195341 0.000474396 0.380044 
