# vtk DataFile Version 3.0
Output file generated by Yade's KinematicLocalisationAnalyser
ASCII
DATASET UNSTRUCTURED_GRID

POINTS 13483 float
664.442 27.2168 -0.410661
868.947 44.1285 -0.543714
130.528 6.08319 -0.447693
914.782 4.32763 0.358293
541.124 7.47353 -0.305144
339.993 34.369 -0.459959
169.875 6.74423 0.408507
620.25 10.1712 0.134845
537.824 22.4818 0.137374
803.531 12.4367 -0.41696
227.825 8.71993 -0.116346
277.62 6.23876 -0.273737
717.495 27.7033 0.137312
694.617 14.0383 0.0737058
148.984 16.994 -0.447311
239.749 34.0614 -0.391247
235.39 12.836 -0.248329
311.785 9.37714 0.382542
368.137 32.4309 0.441729
569.209 8.39758 0.369586
444.363 35.7262 0.0982815
645.277 43.3903 0.258766
911.907 33.0167 -0.452234
774.471 41.7727 0.426769
496.676 15.9055 0.288392
260.232 43.5227 0.123186
532.385 26.6621 -0.483653
638.758 19.3183 0.235819
48.597 15.638 0.465675
799.13 30.1587 -0.322662
522.389 4.80692 0.324379
18.0507 22.663 0.292409
883.842 43.14 0.245952
536.588 2.47786 0.474008
84.857 42.8769 -0.0998738
566.518 29.8347 0.325793
576.048 16.396 -0.410325
370.934 21.9363 -0.168809
579.844 25.3082 -0.315582
378.934 32.9764 -0.381996
260.885 14.3188 -0.303706
469.948 34.8335 0.0655485
748.165 6.65055 0.102848
209.017 6.13683 0.37266
59.7845 6.88235 -0.117848
73.8792 8.84226 0.286377
766.853 8.42793 -0.474229
25.4913 11.5984 0.298807
667.838 43.56 0.206979
749.542 22.228 -0.322389
187.052 31.9308 0.292702
863.252 32.7907 -0.117381
38.1393 27.5367 -0.109529
580.242 2.9479 0.318716
154.441 7.28262 -0.4477
647.974 33.149 0.374849
547.143 25.5056 -0.123438
189.72 0.958141 0.24757
35.4689 2.43614 0.279032
376.636 17.4912 0.268842
680.448 44.1706 -0.132086
500.694 33.5293 -0.175376
431.907 1.03191 0.18709
778.995 7.51897 -0.337351
28.6296 41.897 -0.235258
277.569 29.9246 0.289952
803.566 7.55579 0.201106
740.785 43.5822 0.367328
451.961 8.51122 -0.467149
620.931 3.54772 -0.333328
838.888 29.0334 0.400901
142.203 7.56186 0.270736
540.833 24.6253 -0.12912
517.627 14.811 -0.122534
318.661 16.5232 -0.340013
22.4081 13.3607 -0.252529
892.802 35.173 -0.308217
359.677 38.464 -0.280344
747.286 19.2057 0.360495
766.226 12.7923 -0.235671
898.085 10.956 -0.202197
504.295 33.8384 0.165518
100.247 36.9059 -0.259406
760.082 34.4577 -0.208194
714.529 38.2518 -0.0910575
916.936 38.1457 -0.0958429
890.761 0.773997 -0.468868
315.18 28.4231 0.436809
682.586 6.29469 -0.105171
26.4041 5.24635 0.460295
144.219 37.2464 0.141438
557.765 14.2122 0.185273
880.367 25.0021 -0.476606
212.344 28.1319 -0.235003
48.1244 34.0083 -0.271489
535.419 1.16043 0.105558
255.67 8.6742 -0.382319
841.953 39.1414 -0.255401
866.73 25.5149 0.23123
391.256 20.2784 -0.260326
178.222 26.4567 -0.45093
600.116 37.7026 -0.408093
412.222 14.7769 -0.514565
448.918 28.7575 -0.0989715
410.248 4.41937 0.402681
597.617 10.7076 -0.0979611
919.31 11.2452 0.195453
87.1438 37.9411 0.386753
363.757 4.7083 -0.180749
613.144 9.44541 -0.320457
390.778 42.8129 0.445498
28.2182 23.8988 -0.47086
33.1075 5.67184 0.31393
622.109 31.8711 0.39918
550.777 23.2481 -0.151167
28.6841 36.0717 0.411865
101.592 29.7848 0.216408
352.787 15.6657 -0.298729
658.788 18.3709 -0.120702
517.51 37.0787 0.29712
823.278 7.37154 -0.372897
814.148 6.21558 0.205752
420.581 36.3473 -0.0931189
701.476 25.199 -0.0943287
259.446 16.6998 -0.46974
358.593 3.63985 0.469584
112.974 30.4776 0.325175
126.876 23.6484 -0.263466
594.865 38.1097 -0.0692057
332.647 18.6399 0.474253
793.159 32.9816 0.1028
745.317 43.2978 -0.123239
524.172 19.8857 -0.3806
871.322 9.78693 0.261997
467.02 22.7454 -0.232187
301.464 23.7942 -0.297519
748.368 30.8526 -0.274826
303.475 28.0679 0.377272
633.017 11.2738 0.17051
361.373 35.4768 -0.190987
551.546 11.3436 0.436047
399.32 30.4536 0.0861548
469.602 16.3021 -0.106686
346.379 41.0928 0.43363
208.16 29.1351 -0.127495
874.312 42.5719 0.171813
914.965 11.8412 -0.297627
6.28255 11.9077 -0.434908
473.742 21.7645 -0.426459
42.1221 22.1805 -0.0855292
409.896 30.5297 -0.46508
431.079 24.3011 -0.259271
81.4461 11.7414 -0.471702
56.5804 32.9606 -0.43104
246.868 13.2983 0.431336
681.692 38.0559 0.391456
635.597 20.1346 -0.434069
81.1827 20.7495 0.489641
777.911 44.9755 -0.418007
856.177 2.45438 -0.416488
733.209 39.3803 0.513347
774.022 2.33215 -0.378908
604.28 26.0654 -0.385441
646.925 43.439 -0.443041
561.659 17.8239 -0.386862
911.974 3.19441 0.29721
244.396 24.45 -0.119659
139.685 34.2142 -0.148382
270.001 6.53414 -0.362651
103.401 4.003 0.240857
69.97 9.73276 0.202575
301.303 35.1844 -0.312728
18.4154 24.3766 -0.359856
610.746 19.2473 0.392877
667.899 38.5107 0.20632
506.455 20.7798 -0.357292
904.151 42.1597 -0.349021
444.688 8.412 0.0956879
476.929 35.2904 -0.387388
589.3 3.41496 -0.181532
25.1845 23.3874 -0.380971
635.495 4.16467 -0.386718
599.872 4.32582 -0.284314
225.92 11.1506 0.472292
465.217 15.9643 0.181642
340.278 6.28246 0.315022
424.341 18.7273 -0.319843
828.708 41.3556 -0.11053
210.518 25.2417 -0.402484
882.562 6.85624 0.322643
827.891 37.5289 -0.320349
419.276 10.071 -0.170948
800.512 2.5113 0.335895
668.696 24.2074 -0.38762
831.451 17.8996 -0.346988
471.76 41.8115 -0.26536
545.352 12.2727 0.363653
510.4 43.3226 0.21837
488.296 8.56022 0.132597
736.71 38.3886 0.297896
734.314 34.6021 -0.304623
210.57 38.0822 -0.336885
895.936 11.2537 -0.128387
649.568 44.0542 0.160317
12.3973 16.6586 0.166031
446.17 24.6728 0.327562
205.348 22.662 0.401381
101.915 37.9188 -0.20106
878.26 22.8801 0.438721
730.175 43.774 -0.220019
349.389 25.0718 0.354745
585.879 10.0517 0.310345
90.2723 42.8998 0.162748
271.27 25.4957 -0.469871
613.673 23.448 0.375297
534.367 18.1517 0.389538
287.655 0.894731 -0.342447
609.538 39.443 -0.359206
587.845 40.3404 0.439854
528.879 32.2383 0.372952
548.586 0.771297 -0.476904
785.542 17.3748 -0.37721
197.204 11.7315 -0.174551
550.158 34.7258 0.429299
622.86 39.1492 -0.111429
79.4834 0.922333 -0.26796
275.71 4.62778 0.175415
914.289 13.6999 0.190906
898.986 12.7632 -0.360004
921.875 16.4217 -0.480702
332.296 8.46747 -0.224824
838.793 22.0192 -0.378949
446.462 40.5281 0.31317
492.67 0.812019 -0.399085
720.804 34.8412 0.410075
30.0073 29.4657 0.316813
361.811 40.4396 -0.353431
276.643 2.78865 0.311065
887.507 40.8789 -0.234205
797.715 45.215 -0.23545
314.723 10.6404 0.177125
741.372 27.8459 0.0864678
614.892 2.69957 0.255065
597.525 6.34867 0.414573
106.422 17.5762 -0.48819
332.116 1.03666 -0.221232
376.336 2.27441 -0.359447
15.3409 7.6143 -0.260052
4.6861 30.2897 -0.239844
178.218 18.7343 -0.354878
75.0242 40.77 -0.210346
73.1667 28.1068 -0.319756
464.923 14.2159 -0.404654
402.605 34.0534 -0.465352
860.976 34.8301 0.118893
21.5291 3.92957 -0.283361
77.1094 6.80088 -0.141865
693.407 37.1716 -0.146882
323.129 0.933966 0.316835
399.938 16.0916 -0.0885762
258.581 4.57017 -0.38682
726.28 21.5121 0.181818
496.013 8.30715 0.393486
842.023 19.6474 -0.34586
700.532 28.4341 -0.295412
746.32 17.4763 -0.0968619
461.244 25.8371 0.488939
111.901 43.479 -0.302832
598.766 41.5503 -0.0773111
828.791 13.0644 0.21998
261.005 29.6875 -0.23184
35.232 16.4796 -0.155779
368.757 13.557 0.482173
118.547 39.4174 0.458121
293.79 41.5005 -0.182424
467.199 1.057 0.183729
889.358 30.5829 0.410192
766.348 0.762093 -0.552812
364.37 3.02531 0.468237
329.173 26.0749 0.136423
509.018 40.1579 0.20452
89.2729 7.84482 -0.445036
217.652 43.8466 -0.377648
870.351 27.6427 -0.356233
544.87 37.6897 -0.0627167
219.971 40.457 -0.249497
176.897 41.5343 0.357581
921.937 33.1415 -0.42216
917.607 11.1659 -0.510265
671.746 3.28335 -0.304064
209.097 24.026 -0.0936446
606.426 27.3746 0.104175
608.488 27.0432 0.251149
449.486 5.53034 -0.13367
530.004 0.933826 -0.279208
858.874 37.152 -0.417804
94.0073 29.7649 0.216576
732.071 18.019 0.439321
301.206 15.3266 -0.322112
10.9142 2.32993 0.333725
138.17 36.0135 -0.191647
73.3961 22.5106 0.449619
785.63 35.187 0.332542
892.468 47.2747 0.175831
204.322 27.7367 -0.17445
909.419 11.4644 -0.326664
49.4349 35.9818 -0.250719
100.24 27.761 0.15768
705.261 12.8196 0.363745
454.366 17.7235 -0.489047
572.599 16.2785 0.105461
261.652 27.7995 0.185561
690.275 4.5205 -0.403007
922.326 10.5972 0.309548
33.0123 30.7663 0.264838
296.531 7.67108 0.184074
244.128 14.8438 -0.234546
1.11562 35.0203 -0.147492
247.806 14.3852 -0.35468
232.852 10.8186 0.123722
235.901 25.7883 0.268101
146.584 27.3036 0.128577
604.575 14.7686 0.314712
184.383 14.1947 -0.341187
881.558 41.2234 -0.235734
191.932 3.92503 -0.471195
52.0729 37.1191 -0.353646
835.405 47.7624 0.426481
308.712 31.0335 0.377299
756.088 23.496 -0.440756
897.973 29.4058 -0.461057
330.286 9.07407 -0.112363
825.954 29.2624 0.329538
361.035 2.63011 -0.352002
457.266 23.4125 -0.365914
753.001 15.2999 0.455831
116.669 11.3825 0.467637
531.761 3.97477 -0.452614
846.077 17.5527 -0.203226
97.2228 7.55502 -0.19406
309.306 14.4591 0.193588
465.804 11.4242 -0.200774
910.218 2.7734 0.393685
437.277 1.8522 -0.453943
194.865 38.0093 0.279381
831.822 10.3065 -0.290647
141.529 35.3133 -0.189288
289.166 31.0772 -0.376254
440.243 21.2289 0.206878
635.826 12.8065 -0.339746
425.636 9.81493 -0.414154
502.382 27.2567 -0.39727
869.912 44.7052 0.387278
52.2695 10.8434 0.114529
328.959 37.7952 -0.259015
417.233 26.0872 -0.369628
450.357 20.6668 0.25623
575.847 44.3656 0.356492
851.867 36.3174 0.223184
740.702 34.259 -0.351119
248.161 33.5265 0.38653
15.3119 30.4365 0.154382
732.636 35.7177 -0.128232
561.846 41.239 0.431046
252.735 38.1792 0.0902505
763.237 30.501 -0.103578
166.963 9.09427 -0.186499
403.094 20.7547 0.266472
510.821 41.2008 -0.100655
455.302 19.1314 0.211942
866.018 46.4715 0.290981
468.66 3.308 0.41735
54.8279 24.9253 0.28747
517.916 30.8378 0.344244
478.558 40.2181 -0.354468
885.664 36.084 -0.21445
822.847 28.6514 -0.24939
597.98 18.0925 -0.149914
875.518 35.8672 0.406228
322.19 2.05203 -0.427913
416.213 28.3663 -0.456738
31.9559 37.8161 0.276985
829.299 30.308 -0.13789
677.556 19.9497 0.505285
510.059 0.78544 -0.474318
139.592 4.436 0.282367
469.625 39.2408 -0.0940549
13.5051 0.915139 -0.309947
909.084 5.43852 0.18252
407.141 38.052 0.189105
[...]
POINT_DATA 13483
TENSORS Strain_matrix float
-0.150381 -0.0726239 0.0406744 
0.104019 0.110843 0.19996 
0.0012216 0.00437909 0.0961648 

-0.068971 -0.0447644 14.4485 
0.0413485 0.250988 -19.1269 
0.00401856 0.00123894 0.281728 

-0.0338068 0.00479199 0.365481 
-0.0027078 0.0279418 0.608634 
6.58963e-05 0.000186499 0.0473196 

-0.115363 -0.0926419 0.158151 
-0.030532 0.0884069 0.293932 
-0.00589518 0.0153318 0.151725 

-0.0429653 -0.0273236 0.0433919 
-0.0308926 0.00380658 0.0490191 
0.0511962 -0.0354251 0.20597 

-0.0216476 -0.010165 -0.506769 
-0.00200417 0.014038 -0.845702 
0.00564384 -0.00640015 -0.20958 

-0.0293067 0.00743924 -0.0754963 
-0.00893223 -0.00146524 0.0426269 
-1.2568e-05 0.0005007 0.0337912 

-0.0151596 0.0292421 0.0101283 
-0.0123437 0.00116062 0.041343 
-0.000400715 -0.00219968 0.0342108 

-0.0626677 -0.0455635 0.0644114 
-0.0253582 0.0245949 0.114448 
0.00440772 0.0167822 0.0615335 

-0.050193 0.01622 0.096735 
0.00754355 0.0181413 -0.0497446 
0.00640939 -0.0166712 0.0634996 

-0.0205939 0.00157328 -0.00211067 
-0.00307236 0.00598161 -0.00794277 
-0.008122 0.00123815 0.0783243 

-0.022979 -0.00854272 0.039634 
0.00103455 0.00873362 0.0106815 
0.000159748 0.00106661 -0.0115875 

-0.148126 0.113261 0.710265 
0.0289172 0.204641 0.278504 
-0.000681623 -9.15266e-05 0.0182709 

-0.0052306 -0.0116295 -0.0688978 
0.0452185 0.0124616 -0.0308653 
-0.000595766 0.00074526 -0.00419393 

-0.00821336 0.0512605 -0.184276 
-0.0172136 0.040762 -0.157005 
0.000158018 0.00123401 -0.00573348 

-0.0219771 0.0158179 -0.326284 
-0.0288828 0.00719179 0.010663 
0.0127431 0.00119992 -0.0126702 

-0.000201998 0.0346933 -0.229579 
-0.00430743 -0.0063823 0.0999074 
-0.000434888 -0.000175098 -0.0111085 

-0.0377202 -0.0187161 -0.0238056 
0.0181885 0.021557 -0.189457 
-0.00249709 0.00101212 0.0705095 

-0.0773742 0.0367283 -0.317217 
0.0772037 0.0725302 0.742513 
0.000363405 0.00623107 0.0141326 

-0.0167879 0.0193105 0.0197504 
-0.00141144 -0.0255696 -0.0244456 
-0.00979056 -0.00910781 0.0715124 

-0.0498892 0.0109642 0.0625818 
-0.0184987 0.0393056 0.165494 
-0.00205927 0.00101809 0.041647 

-0.0282547 -0.0203004 -0.25599 
0.00145498 -0.0354795 0.00970336 
0.00365018 -0.0373314 0.372155 

-0.290552 0.191569 -3.55485 
-0.156045 0.227697 -2.88929 
0.00612039 -0.00905123 0.163073 

-0.0339125 0.043047 0.327623 
-0.041492 0.00904671 0.124967 
-0.0237193 0.0107381 -0.191001 

-0.00931763 -0.027253 0.00191284 
0.00097641 0.0125518 0.0617639 
0.0010031 0.000420993 -0.0183041 

-0.0296523 0.0103671 0.0327708 
-0.00546934 0.0277712 0.0185019 
0.0293606 -0.0204035 0.107647 

-0.0269197 -0.0095237 -0.806923 
0.0163848 0.0280329 -2.54516 
-0.000767277 -0.00124009 -0.171529 

-0.105513 -0.127461 -0.188367 
0.0423843 0.0921305 -0.696045 
-0.0174801 0.00747666 0.162982 

-0.0188606 -0.0729658 1.22576 
-0.00835635 0.0375463 -0.342253 
0.000491429 -0.00100394 0.135869 

-0.029367 0.018401 0.182029 
-0.00671636 0.00650531 -0.0824888 
0.00271477 0.0080084 0.104634 

-0.0170168 0.00217541 -0.0256803 
-0.0111303 0.0034471 -0.0360756 
-0.00111271 0.000754087 0.0290407 

-0.0451235 -0.0431753 0.153139 
0.0068016 0.0410442 -0.060205 
0.000552571 -0.000576106 0.00330504 

-0.0482751 -0.21699 0.152084 
0.123281 0.065328 0.215519 
0.0208466 0.00561012 -0.023665 

-0.0441844 0.0163731 -0.233332 
-0.00061032 0.026432 -0.138426 
-7.96459e-05 -0.00411946 0.109895 

0.0546534 -0.00348443 0.118281 
-0.0554193 -0.01233 0.149535 
-0.00462828 -0.00387415 0.186517 

0.000248594 0.00411725 -0.1351 
-0.0719253 0.0468605 0.0266436 
0.000257122 -0.00295508 -0.00410279 

-0.0231547 0.0295309 -0.968453 
-0.000999914 0.0167897 0.0904015 
0.00169153 0.000452387 0.0681767 

-0.0150917 0.0963233 -0.224376 
-0.102902 0.0370829 0.0426591 
-0.00284496 0.000231066 0.0443183 

-0.0610599 -0.00849426 0.154055 
0.061533 0.0242463 0.0284614 
0.000223606 0.000187922 0.00112921 

-0.0222553 0.0782527 -0.225811 
-0.0634787 0.0136722 -0.0946596 
0.00276653 -0.00160283 0.0291324 

-0.0330808 0.00173467 0.0500948 
-0.0101199 0.0229977 0.0207245 
-0.000424998 -0.00195407 0.0151124 

-0.0662814 -0.0169152 -0.339635 
0.0394792 0.0150101 0.288728 
-0.00382542 0.00789428 0.283214 

-0.0740264 -0.0277278 -0.0620699 
-0.00701875 0.0261327 0.0697433 
0.0074605 0.0819858 0.50429 

-0.0141863 -0.00276505 -0.147095 
-0.00194707 0.00272159 -0.00851824 
0.00462052 -0.000427974 -0.0447705 

-0.0391303 0.0174638 -0.0275008 
-0.0193456 0.0180082 0.0114256 
0.000307986 0.00131523 0.0126066 

-0.0446759 0.0235476 -0.102434 
-0.0281159 0.0181602 0.001256 
-0.000159421 0.000934533 0.00401444 

-0.0950468 0.016203 0.0869895 
-0.0139119 0.0332076 -0.446545 
0.0334363 0.0346717 0.288453 

-0.0870463 -0.0206079 -0.0215833 
0.0285542 0.030011 -0.0210183 
-0.0221776 -0.00203813 0.0392109 

-0.0284672 -0.00568812 -0.048654 
0.0472511 0.0350574 0.0336528 
0.00219626 0.00636641 0.0294837 

-0.214268 0.0412102 -0.266459 
-0.0941829 0.157267 -0.578831 
-0.00512842 0.00769466 -0.0435705 

-0.0256223 -0.0643886 -0.384314 
0.0353237 0.0276701 0.135664 
-0.00109827 -0.00102911 -0.0200206 

-0.0421613 0.108105 -0.0430287 
-0.0343045 0.0757403 -0.0978113 
0.00375977 -0.00157832 0.0457792 

-0.0215878 -0.026202 -0.00789892 
0.0214264 0.00516659 0.0793662 
-9.81165e-05 -0.00158011 0.0117187 

-0.0354836 0.00393053 0.046828 
-0.00713303 0.00653655 0.0614278 
-0.000393757 0.000216322 0.0366563 

-0.0300618 0.00970246 0.0366013 
-0.00554389 0.00416164 0.0496012 
-0.00117026 -0.000815877 0.0373278 

-0.0233274 -0.0135712 0.0828985 
-0.00434402 0.00930429 -0.0350706 
-0.000135765 0.000514373 0.0534485 

-0.0227325 0.0244417 0.0238529 
-0.00603986 0.0182443 -0.0369976 
0.000433258 -0.00100283 0.00772842 

-0.0406585 0.108478 -0.133573 
0.00713458 0.0421295 -0.0543301 
-0.0141274 -0.0184561 0.112963 

-0.0174641 -0.00228832 0.0615292 
-0.00551616 0.00780726 -0.000982902 
0.00045557 -0.00135928 0.0274648 

-0.0829596 -0.119246 -0.134967 
0.109837 0.0515559 0.22226 
-0.0022999 -0.00119232 -0.0259005 

-0.0330898 0.0746275 0.0460612 
0.00989526 0.0749727 0.023298 
0.000653854 0.00464237 0.0290428 

-0.0224522 0.0100719 -0.302581 
-0.038154 0.030898 -0.0428761 
0.00459603 0.0119139 0.189825 

-0.0225109 -0.00188055 -0.0987109 
0.00292715 -0.0111436 -0.0273737 
3.63364e-05 0.032676 0.0617613 

-0.0327292 -0.0162278 -0.0995606 
0.00416619 0.00426314 0.109538 
0.00035292 -0.000815308 0.0888 

-0.0182586 -0.00726958 -0.167769 
0.036173 -0.00319917 0.027073 
1.50521e-05 -0.0331049 -0.033285 

-0.0761878 0.0448161 0.199886 
-0.0436492 0.0719906 0.156788 
0.00232778 0.001477 -0.00256919 

-0.0320221 0.0383883 0.00811921 
-3.83413e-05 -0.0144618 -0.0431167 
-0.000323062 -0.00318589 0.0523358 

-0.0575262 -0.0481706 -0.012211 
0.0769525 0.0697466 0.905586 
-0.00159331 -0.0108744 -0.0814356 

-0.0351093 -0.00134702 0.0939475 
-0.00422905 0.0133479 -0.282176 
-0.000366889 0.00141022 0.0231135 

-0.0341259 0.00176802 -0.0573446 
-0.00806032 0.00696482 0.0092752 
-0.00107346 -0.00177439 0.0538335 

-0.00110786 0.135743 0.441998 
-0.110018 0.0136672 0.319983 
-0.00879138 0.016176 -0.0821329 

-0.0230899 -0.00875757 -0.0177421 
-0.00183712 0.0116681 -0.0185424 
0.00799689 -0.00358509 0.0631637 

-0.0200799 -0.0501554 -0.226031 
-0.00789981 0.0348689 0.0511228 
0.00020894 -0.000107903 -0.0162668 

-0.0313365 -0.00694371 0.00936506 
-0.064099 0.0235382 -0.195073 
-0.00179371 -0.00110473 0.00831664 

-0.0285871 0.0382454 -0.288914 
-0.00351069 0.027538 -0.0163071 
0.000125747 -0.000475119 0.00639598 

-0.0051821 0.0510254 -0.0277825 
-0.0269989 -0.00223007 0.0716135 
-0.00081909 -0.000682068 -0.00142494 

-0.0735046 0.00719306 0.937399 
0.160662 0.152929 2.68061 
0.00144017 -0.0138986 0.0936383 

-0.02059 -0.0415985 0.00643825 
0.0434495 0.00811935 -0.00480317 
-0.0105668 -0.010502 0.41871 

-0.128944 0.113232 -1.1466 
-0.114403 0.115844 -0.762908 
0.00130327 0.00170899 0.0102506 

-0.0913167 -0.0451841 0.275506 
0.0153567 0.0802326 0.0377116 
0.00624893 0.0213798 -0.0119025 

-0.012118 0.117353 -0.20312 
-0.125578 0.0149418 0.000862462 
-8.07448e-05 -0.00257335 0.00390534 

-0.0153149 0.00670376 -0.0108916 
-0.0124426 0.00505597 -0.116673 
-0.0359066 0.0238649 0.0655699 

-0.00996709 0.0443591 0.0712093 
-0.0206446 -0.00060518 0.00477618 
-0.110494 0.0121324 0.592587 

-0.116024 0.0347224 -0.155415 
-0.0259131 0.0984355 -0.0748933 
0.0202767 0.00578732 0.0493273 

-0.146351 -0.091839 0.17198 
0.156436 0.0419459 0.16464 
0.0625019 -0.0358795 0.763564 

-0.506627 -0.459302 -0.267322 
-0.12872 0.313151 0.758106 
0.000892792 0.00078716 -0.016061 

-0.130516 -0.475536 -1.41094 
-0.0287461 0.341784 1.20944 
0.000201485 -0.0653519 0.222771 

-0.0539578 -0.0218594 -0.014594 
-0.00321061 -0.00400475 0.200827 
0.00120192 0.000875911 0.0149292 

-0.0467436 -0.0153547 -0.0699418 
0.0179783 0.0229836 -0.025259 
-0.0314307 0.0549092 0.242845 

-0.036144 0.0157241 -0.393924 
0.00353476 0.0063965 0.090626 
-0.00164786 -0.00200459 0.0186826 

-0.0230611 -0.0179026 -0.0535439 
-0.0132847 0.0107733 -0.0422495 
-0.0368496 0.071771 0.100652 

-0.0182461 -0.00087478 0.0297127 
-0.00123583 0.0102115 -0.0250488 
0.000115628 0.000694869 0.00200422 

-0.0924643 0.161019 1.18984 
0.107574 0.0240211 2.23544 
0.00494099 0.000611071 0.309645 

-0.0426127 -0.0409033 0.0706422 
-0.0265798 0.0103066 -0.0275181 
-0.0011156 0.000661507 0.0223256 

-0.013662 0.0350804 -0.0151203 
-0.0332534 0.00340963 -0.427143 
-0.00114131 -0.00262182 -0.0214154 

-0.0336885 0.0166451 -0.0336646 
0.00268747 0.0157652 -0.0203444 
-0.00121727 -0.0161619 0.0603398 

-0.0435872 0.0195588 -0.0521813 
-0.00285473 0.0185824 -0.221074 
-0.000364773 0.00225804 0.0302213 

-0.0770285 0.121216 -0.0645905 
-0.0632427 0.0185105 0.0574372 
-0.0056223 -0.00144648 0.0961995 

-0.000601174 -0.0899553 0.0761018 
0.0850576 0.00083837 0.0850198 
-0.00514988 -0.000589334 0.152659 

-0.0752535 -0.0189649 -0.350955 
-0.00731816 0.0323027 0.0644407 
-0.000374225 0.000422088 0.00460142 

-0.0151705 0.00104698 0.092922 
0.00996781 0.0132373 -0.213995 
-0.00109605 -0.000908059 0.168463 

-0.0478543 -0.00914 -0.22311 
-0.00321213 0.0314258 0.91976 
-0.000959125 0.000117668 -0.171264 

-0.0338055 0.000494595 -2.76393 
-0.00084253 0.0218557 -1.45625 
7.77986e-05 9.03589e-05 -0.00113931 

-0.0300133 0.0139245 0.126364 
0.00324863 0.00953434 0.0190125 
-0.000290275 -0.0195364 -0.00154029 

-0.0247241 -0.00725289 0.102303 
-0.00649854 0.0172245 0.011361 
0.00743269 -0.000410984 0.00411921 

-0.0387279 0.00643556 -0.00693967 
-0.0150527 0.0144325 0.0142618 
-0.00435945 0.00090723 0.0225247 

-0.11461 0.113898 0.185001 
0.00940705 0.0473778 -0.0741089 
-0.00215514 -0.0011514 0.0975599 

-0.0544959 0.0690897 0.699538 
-0.0595215 0.0147855 -0.800514 
-0.00481196 0.028444 -0.429248 

-0.0453416 0.0233976 0.0721142 
0.00879455 0.00121014 -0.044558 
0.00276526 0.0024551 0.0534654 

-0.0389293 0.0188057 -0.415974 
-0.0149376 0.0249606 0.0639014 
-0.00224344 0.00107969 -0.0570938 

-0.0396375 0.030804 2.70894 
-0.0174228 0.0413023 1.68172 
0.00164458 -0.0161469 -1.73083 

-0.0483824 -0.0308912 -0.391229 
-0.0441561 0.030032 -0.321276 
-0.000778321 -0.000928245 0.020674 

-0.0257748 0.0114394 0.0227393 
-0.00577126 0.00991532 -0.00260465 
-0.00279843 -0.00181749 0.0260462 

-0.0692622 -0.046802 -0.566015 
0.0483196 0.0699757 -0.598741 
-0.00520147 0.000191781 -0.0109435 

0.00174932 -0.0419251 -0.0878005 
-0.00425144 0.015023 0.0177773 
0.000580752 -0.000216852 -0.00428378 

-0.0242383 -0.0348634 -0.204229 
0.0327989 0.0213968 0.0609 
-0.000879403 0.000296102 0.0515238 

-0.00171095 0.0229395 0.0239385 
0.0123865 0.0111077 0.0861807 
-0.0010352 0.000664163 0.0227701 

-0.0184921 0.00466079 0.0702178 
0.00194615 0.0215812 0.0431333 
-0.00424586 -0.0009439 -0.00608136 

0.000106749 0.0799955 -0.0191508 
-0.0794613 0.0219415 -0.174739 
-0.000156194 -0.00212469 0.00982094 

-0.0180606 -0.00124734 -0.0233395 
0.00788763 0.0116569 0.197147 
0.00223607 -0.00123818 -0.00616639 

-0.0548598 0.0463226 0.0063222 
-0.00100687 -0.020151 0.02324 
-0.00187467 -0.00223435 0.108275 

-0.0792268 0.0481175 -0.0319947 
-0.0210301 0.0455421 -0.330865 
0.00055385 -0.00362819 0.26387 

-0.0359371 0.00505204 0.0697403 
-0.013977 0.0238447 -0.0139637 
-0.0836423 -0.0425333 0.377171 

-0.008393 -0.02936 0.0834192 
0.0661491 0.00522707 0.0998006 
-0.00368279 0.00103668 0.0409798 

-0.0359278 0.0327855 0.0173791 
-0.016359 0.0200338 0.318454 
-0.0013558 0.000447933 0.045061 

-0.0404201 0.0166535 0.00145862 
-0.00722421 0.0103267 -0.471793 
4.91498e-05 0.000118253 0.0742276 

-0.00918562 -0.0167699 -0.139454 
0.00290638 0.00142581 0.105575 
6.57944e-05 0.000163026 0.00152177 

-0.0335305 -0.0389647 -0.0146991 
0.0027559 0.0386226 -0.0494181 
-0.000592213 -0.00118022 -0.00587938 

-0.0199873 -0.0299118 0.0363605 
0.0143878 0.011934 -0.0400299 
0.000830915 -0.000827831 0.0374159 

-0.0250676 -0.0123514 -0.32488 
-0.00749385 -0.00150974 -0.862839 
0.00101069 -0.000303236 0.0192932 

-0.000889517 0.00147773 0.0270316 
-0.0129226 0.0275163 -0.104156 
0.00441582 0.00921686 0.042725 

-0.0606964 -0.0210303 -0.202848 
-0.00293934 0.0390615 -0.00350014 
-0.00367376 -0.00501959 0.0240898 

-0.00821626 -0.0284838 0.0317014 
0.0134481 0.0136127 -0.0622648 
-0.000207787 -0.000264335 -0.0125922 

-0.096232 0.124672 -0.0778408 
0.113432 0.0757741 -0.195625 
-0.000727011 -0.0212625 0.0482825 

-0.02833 0.00209536 -0.0479743 
-0.00674575 0.019265 0.0759272 
-0.000999472 -0.00449542 0.0280992 

-0.0562368 0.0150457 -0.25987 
0.0861263 0.0642909 -0.107806 
0.000694326 -0.00242067 -0.000975954 

-0.107138 -0.043657 0.112477 
0.157891 0.0753221 0.754427 
-0.0100204 -0.00196551 -0.0113124 

-0.0268551 0.000807938 0.621393 
-0.00922187 0.00862857 0.00760383 
0.0185653 -0.00967128 -0.176224 

-0.00543273 0.0722002 0.0368042 
-0.0502513 0.00037975 0.013602 
-0.00121716 0.000487664 0.0865261 

-0.0249336 -0.0496445 -0.000865587 
0.0636459 0.00727436 0.0205728 
-0.000543114 -0.00108214 0.0118367 

-0.0267353 -0.00510621 0.0883821 
0.0160888 0.0051762 0.129469 
-0.000631284 0.00120394 -0.0366904 

-0.0476661 -0.00684931 -0.144438 
0.0244915 0.0118777 -0.0643354 
-0.000451116 0.000549903 0.0163125 

-0.0191016 -0.00946898 -0.022878 
0.0174738 0.0114821 0.0517557 
0.00151217 -0.00136352 0.00861917 

-0.050193 -0.0313764 0.342059 
0.0244409 0.0229288 0.301065 
0.00573129 0.0234765 0.820946 

-0.0166343 -0.0230783 0.0273063 
0.0140783 0.0210669 0.0340533 
0.000655161 0.000446357 0.0111513 

-0.0211909 -0.171381 0.0329947 
0.253333 0.0246201 -0.000322891 
-0.085647 0.0108402 0.669887 

-0.0617457 0.00291805 0.230867 
-0.0248453 -0.0196089 -0.000574927 
-0.0026339 0.0108099 0.0870914 

-0.0467706 0.0597002 0.0887636 
-0.0283222 -0.00409164 -0.182908 
-0.000712394 -0.00119546 0.00709708 

-0.0234192 0.00155318 -0.228241 
-0.00807756 0.00522942 -0.131886 
-0.000714654 0.00105728 0.0130366 

-0.078341 -0.018808 -0.164562 
0.0493906 0.0976501 0.0282387 
0.00206716 0.00066532 -0.0101015 

-0.0306329 -0.0112925 0.116843 
0.00767657 0.0262308 0.365132 
0.00103493 0.000381284 -0.0472425 

-0.0273815 -0.0510947 -0.0983088 
0.000841271 0.0186948 -0.0631062 
-0.00147505 0.000867535 0.00837972 

-0.0369916 0.0124596 0.870093 
-0.0047555 0.0233488 0.0192003 
-0.000970727 0.000415292 0.0705851 

-0.0268821 0.00607367 -0.317638 
-0.00617704 0.0129557 0.0779998 
0.00337014 -0.00817956 1.87001 

-0.0220832 -0.0168507 0.658976 
-0.000389266 0.00991301 0.499661 
-0.000482756 5.36846e-05 0.00194244 

-0.0209936 0.0245508 -0.0184192 
0.0153158 0.00597965 0.140138 
0.0152972 0.0191893 0.288406 

-0.0786005 -0.110795 -1.04372 
0.0500011 0.113618 0.254223 
0.0044635 -0.00209383 -0.00925945 

-0.0359675 -0.00349858 -1.50922 
0.00886996 0.0318066 -3.41097 
0.00353157 0.00339423 -0.0544231 

-0.0395542 0.0167178 0.0553103 
-0.0292128 0.122649 -0.772139 
0.00317411 0.00536297 -0.0631754 

-0.0534087 0.0288345 -0.0324889 
-0.0282019 0.0105564 0.0159636 
0.00551309 -0.000130771 0.0245807 

-0.0435081 -0.0644693 -14.3668 
-0.00236469 0.0509642 2.04625 
-0.00285993 0.0132056 3.69546 

-0.0248709 -0.0207806 -0.225055 
-0.00646927 0.00307425 -0.057259 
0.00149908 0.00166677 0.0696676 

-0.023651 -0.0248564 0.0446561 
0.0304957 0.0404446 0.220973 
0.00095777 0.00256227 0.0238628 

-0.0380966 -0.0174407 1.89234 
-0.0281657 0.0402409 -1.31665 
0.00428827 -0.0127849 0.519939 

-0.100564 0.00917128 -0.234842 
0.011566 0.0847484 -0.580121 
0.00589022 0.0197857 0.109788 

-0.0959698 0.0145119 -0.054697 
-0.101057 0.0667886 0.0642367 
0.00800857 -0.000225518 0.136347 

-0.0480379 -0.0502126 0.173197 
0.0104692 0.0139637 0.141347 
0.00075831 -1.48752e-05 0.0156367 

-0.0170072 -0.0494528 0.0617114 
-0.0495849 0.00668294 -0.0379412 
-0.00296885 -0.0222961 0.165992 

-0.0246338 0.0110135 0.026665 
-0.000320309 0.00766124 0.0624613 
0.000578551 0.000771954 0.0747321 

-0.0340966 0.00672458 -0.109877 
-0.00343025 0.0112433 0.0637092 
-0.00441672 -0.00814397 -7.16586e-05 

-0.0234833 0.0225818 -0.122226 
-0.0161046 0.0119225 -0.156969 
0.000471673 -0.000839873 0.00987949 

-0.041188 0.0349028 -0.121924 
-0.00713145 0.0379733 0.0360271 
-0.00235172 0.00633531 0.125184 

-0.0249456 -0.00902682 0.0425442 
0.00290199 0.0140192 0.0658925 
0.00266044 0.000506532 -0.00587047 

-0.0127796 -0.00104323 -0.635295 
0.027579 0.030146 -0.20515 
0.00686674 0.00125969 0.0925329 

-0.035215 -0.0161895 -0.116433 
0.0401875 0.0033929 -0.00155349 
0.00502481 0.000871184 0.0564263 

-0.0175563 -0.0168896 -0.117445 
-0.0109121 0.0161508 0.26236 
-0.00097314 0.00207676 0.0218531 

-0.270204 -0.136234 0.435293 
-0.0409128 0.205834 0.220028 
-0.011444 -0.00487017 0.348188 

-0.0302404 -0.00787135 0.0453057 
-0.0418822 0.0102344 -0.0326004 
0.00954613 0.00750183 0.0316832 

0.0120876 0.0505703 0.250898 
-0.0527006 -0.00171972 -0.75934 
-0.00869423 -0.00606985 -0.0115486 

-0.0463516 0.0221147 -0.0370974 
-0.00599244 0.0134001 -0.0181685 
-0.00761133 -0.00598862 0.00267148 

-0.00631296 -0.0212443 0.0568263 
-0.0179263 0.00117212 0.0473751 
0.000311768 -0.000572859 -0.00976874 

-0.0320528 0.0313518 0.099136 
-0.080639 -0.0280381 0.216055 
-0.00899514 0.00500623 0.093131 

-0.0167656 -0.00447514 0.038171 
0.00166039 0.00383382 -0.0171857 
-0.000975866 -0.00107405 0.00869167 

-0.0240272 0.00447193 1.02792 
0.00206526 0.0171872 1.43902 
-0.00137401 -0.00160169 0.0203131 

-0.0462354 0.00108815 -0.00644755 
0.00734657 0.0149241 -0.0323009 
0.0256898 0.00191143 0.0591924 

-0.0281688 -0.00144748 0.0419877 
0.00660999 0.0070953 0.0122901 
0.00207977 -0.00237019 -0.00181016 

0.00736496 -0.0506313 -0.0763545 
0.0285325 0.0469218 0.0610088 
-5.9404e-05 -9.2518e-05 -0.0265094 

-0.0390336 -0.0624926 -0.00538246 
0.08768 0.0186977 -0.00929682 
-0.00113084 -0.014321 0.0465964 

-0.0290399 -0.0190126 -0.0465571 
0.000837883 0.0223191 -0.0594583 
-1.42626e-05 -0.000376255 0.0065632 

-0.0745616 -0.0884096 0.000852645 
0.0957773 0.015286 -0.0536481 
-0.00354207 0.00304459 0.136501 

-0.00376407 -0.0412354 -0.0329707 
0.0529195 -0.0115659 -0.210515 
-0.0012156 -0.00118168 0.0295416 

-0.0403998 -0.0186857 0.124542 
0.0537471 0.0229145 0.0471086 
0.0108073 -0.0138783 -0.0470619 

-0.0879445 -0.0671696 0.0312223 
0.070833 0.0514664 0.0776894 
-0.00132841 0.0188584 0.028035 

-0.0346044 -0.139987 0.263899 
0.175686 0.102426 0.315363 
-0.0113674 0.0112082 -0.0380621 

-0.0318925 0.00978395 -0.384955 
-0.274246 -0.00734566 -0.345983 
-0.0118794 0.032691 0.00285903 

-0.0184847 0.0183957 0.390794 
0.00241924 0.00923027 0.154997 
0.00255464 -0.00502155 -0.117877 

-0.0302452 0.0333097 0.269446 
-0.00903784 0.0345179 -0.29405 
-0.000365325 0.000156182 -0.0133025 

-0.0205597 -0.0260057 -0.120773 
-0.0295861 0.0624641 -0.013631 
-0.0015741 -0.00344406 0.0122445 

-0.0340153 -0.0123255 -0.0459044 
-0.00292646 0.0166502 0.0490904 
0.000171108 0.00108945 0.0159756 

-0.0247822 -0.0319822 -0.000614238 
0.0358978 0.00207238 0.134663 
0.0147349 0.0268964 0.343209 

0.00632462 -0.0334859 0.00793734 