# vtk DataFile Version 3.0
Output file generated by Yade's KinematicLocalisationAnalyser
ASCII
DATASET UNSTRUCTURED_GRID

POINTS 13483 float
657.642 27.3029 0.434272
864.476 44.1206 0.462066
128.689 6.14698 0.450967
914.531 4.31242 0.329718
535.584 7.58113 -0.3023
336.736 34.492 0.396718
167.667 6.77368 0.409904
614.035 9.99393 0.143873
532.425 22.4617 0.151448
798.995 11.8623 0.378148
225.43 8.83528 -0.110745
274.996 6.28338 -0.267437
712.291 28.1171 -0.177026
688.204 13.7975 0.073055
146.724 16.853 0.379009
237.227 33.9922 0.399287
233.041 12.8017 -0.27226
308.923 9.45765 0.38848
364.425 32.081 -0.0719792
563.546 8.53385 0.346471
439.864 36.1123 0.104893
639.503 43.4271 0.251686
909.777 29.8816 -0.476485
769.189 40.4885 -0.449542
491.889 15.9454 0.286711
257.773 43.6384 0.122197
527.284 26.88 -0.506983
633.189 18.8937 0.237364
48.2932 15.4264 0.457375
793.596 30.3506 0.325317
517.25 4.89919 0.314463
17.7961 22.7037 0.281557
879.805 40.5688 -0.262567
531.164 2.46387 0.487924
83.7668 43.552 -0.100316
560.158 29.7272 0.322883
570.355 16.4774 -0.408626
368.079 22.1773 -0.180796
573.699 25.056 -0.322328
375.271 32.5704 -0.412714
258.217 14.5315 -0.328787
465.245 34.9229 0.0759538
742.989 6.81752 -0.0928496
206.662 6.15966 0.375715
59.3632 6.94094 0.0958187
73.2456 8.84175 0.287455
761.914 8.5535 0.489644
25.3495 11.4565 0.294597
662.018 43.1535 -0.358175
744.66 22.2663 -0.3588
185.192 31.8782 0.29086
858.921 32.2849 -0.146873
37.5442 27.7657 0.123216
574.42 2.94257 0.324451
152.402 7.47027 -0.461594
642.126 32.9619 0.396351
541.714 25.9418 -0.138752
187.34 0.927277 -0.258521
35.1891 2.4394 0.279906
373.333 17.4905 0.267607
674.581 43.8205 -0.132692
495.859 32.8585 -0.174087
427.78 1.02943 0.187957
774.648 7.58179 -0.347388
28.3541 42.321 -0.234885
274.598 30.0521 -0.308492
799.123 7.28336 0.191836
736.062 42.7859 0.359749
447.551 8.55257 -0.473263
614.858 3.48463 -0.345417
833.914 28.4592 -0.384751
140.203 7.53051 -0.293488
535.359 24.9044 -0.125683
512.701 14.7686 -0.131831
315.585 16.5065 -0.30335
22.3216 13.3848 0.230514
886.705 31.1613 -0.313902
356.319 38.3014 -0.278451
741.79 19.4014 0.33764
761.602 12.3297 0.23676
897.576 10.9006 -0.188536
499.512 33.8981 -0.167806
99.0816 37.6157 -0.272844
755.335 32.5613 -0.208445
708.703 36.6331 0.0992735
918.584 35.0655 0.128405
889.926 0.829123 -0.459581
312.091 28.3976 0.437711
676.351 6.21065 0.0768074
26.1585 5.14604 0.459017
142.548 37.4882 -0.142158
551.97 14.1925 0.201014
877.222 23.2492 0.52115
210.095 28.2007 0.223809
47.585 33.8767 -0.277632
530.018 1.15957 0.115514
253.278 8.81147 -0.347119
837.536 37.1172 0.29932
863.393 24.6869 0.262284
387.942 20.5009 -0.254047
176.415 26.5442 -0.46429
593.845 37.5283 0.411423
408.169 15.1605 -0.439362
444.526 29.2494 -0.0978985
406.338 4.45393 0.407238
591.612 10.8137 -0.0913318
919.539 11.1146 -0.165441
86.214 38.4946 0.392595
360.265 4.77757 -0.172673
607.09 9.32853 -0.333562
386.703 43.164 0.446282
27.7395 24.0516 -0.462931
32.8335 5.68834 0.328009
615.833 31.4896 -0.414935
544.648 23.3657 0.146159
28.4313 36.3763 -0.418253
100.001 30.2071 0.214984
349.492 15.7215 -0.297331
652.757 18.4991 -0.13935
512.447 37.1283 0.307079
819.058 7.65267 -0.340933
809.771 6.05267 0.204278
416.261 36.449 0.100796
695.232 24.3252 0.111563
256.687 16.9664 0.49672
355.214 3.69171 0.459879
111.304 30.9434 0.334566
125.174 23.4508 -0.254008
588.914 37.8147 0.0694235
329.428 18.5748 0.445609
788.177 33.3407 0.107858
740.533 42.1422 0.123691
519.008 20.1258 -0.402528
867.995 8.64349 0.299162
462.592 22.796 -0.225584
298.327 23.8819 0.296306
743.182 29.5053 0.24174
300.528 27.9479 0.37253
626.35 11.5043 -0.190747
357.659 35.0748 0.197409
545.897 11.3261 0.446436
395.43 31.1547 0.095233
464.963 16.3173 -0.106634
342.998 41.2853 0.289744
206.038 29.2684 -0.120382
870.142 41.931 -0.210196
914.749 11.7129 -0.334357
6.43179 11.947 0.474447
469.187 21.9861 -0.401272
41.3212 22.2107 -0.0767096
405.898 30.6704 -0.455471
426.48 24.3536 0.287472
80.6611 11.9475 -0.480492
55.9708 32.6513 -0.424236
244.296 13.3081 0.367565
676.155 37.4147 -0.399612
629.229 19.9024 -0.425631
80.8929 20.7578 -0.461145
772.369 44.0766 0.420142
853.052 2.4234 -0.415433
728.084 39.0453 -0.482916
769.599 2.30307 -0.394982
598.309 26.0955 0.392161
641.127 43.71 -0.450476
556.022 17.6889 -0.396832
911.586 3.08941 0.303035
241.891 24.2488 0.115946
137.969 34.5289 -0.191137
267.506 6.55435 0.366381
102.052 4.09549 -0.250824
69.3799 9.96452 -0.187466
298.316 35.3779 0.287422
18.0816 24.4521 -0.358048
604.568 18.9011 -0.385158
662.011 38.081 0.218648
501.571 20.7186 -0.359236
899.927 36.9466 -0.402784
440.336 8.4596 0.0841548
472.304 35.2544 -0.36729
583.379 3.425 -0.184264
24.8385 23.5366 -0.381618
629.234 4.32691 -0.357175
593.836 4.33361 -0.285498
223.532 11.3227 0.472203
460.786 16.1776 -0.190962
337.054 6.28965 0.321314
420.133 18.8546 -0.324266
823.509 40.1626 0.140142
208.329 25.3123 0.415171
881.314 6.8978 -0.300972
822.606 36.3302 -0.339702
415.272 10.041 -0.186111
795.905 2.38247 0.383507
662.289 24.4314 -0.395189
827.851 17.6 -0.386233
467.142 41.7347 0.271774
539.7 12.3016 0.336777
505.158 43.3105 -0.218536
483.472 8.56001 0.132774
731.629 38.1459 0.286353
729.174 34.419 0.331678
208.37 38.3255 0.352666
895.369 10.7958 -0.131662
643.545 44.1326 0.242042
12.1431 16.6927 -0.180222
441.754 24.9934 0.34067
203.186 22.6984 -0.389052
100.74 38.5201 0.198157
874.817 20.782 0.436853
724.459 42.8437 0.223594
345.837 25.0995 0.357315
580.03 10.0734 0.323166
89.088 43.4904 0.163337
268.545 25.6115 -0.472212
607.651 22.6926 0.38297
528.95 18.1724 0.412104
284.997 0.89003 -0.342773
603.653 39.1518 -0.353608
581.904 40.1057 0.453787
524.086 32.3897 0.382871
542.926 0.774899 -0.488051
781.287 17.8856 -0.328633
194.98 11.7704 -0.163836
544.606 35.3515 -0.435254
616.933 38.49 0.119526
78.8692 0.947952 -0.273234
273.124 4.69697 0.168669
913.905 13.5744 0.219263
897.965 12.8559 -0.386823
921.782 15.3874 -0.520945
329.133 8.45433 -0.227453
835.304 21.5441 0.419769
442.149 40.4825 -0.316759
487.823 0.814376 -0.397822
715.764 33.9379 0.495549
29.5078 30.0463 0.0515701
358.559 40.3821 0.468542
274.022 2.83775 0.311052
883.088 37.8249 -0.237912
792.738 45.4357 -0.224379
311.773 10.803 0.196059
736.07 28.0044 -0.0951849
608.766 2.65028 0.264701
591.518 6.39459 0.414104
104.943 17.8452 0.463072
328.982 1.03488 -0.222032
372.746 2.2566 -0.367118
15.2004 7.58586 0.322518
4.7249 30.2414 -0.241557
176.018 18.8634 -0.350942
73.9661 41.0295 0.210065
72.3912 28.2671 0.31719
460.307 14.3754 -0.39208
398.639 34.581 0.471037
856.705 34.4261 0.138958
21.2727 3.95279 -0.283814
76.5031 6.84818 -0.128
687.235 36.5623 0.140718
320.043 0.932299 0.318421
396.338 15.8541 -0.0911161
256.028 4.52224 0.381304
720.446 20.767 0.189542
491.184 8.30122 0.398216
838.348 19.4304 -0.380776
694.349 27.9692 -0.328258
740.882 17.5194 -0.0824334
456.791 26.0666 0.485436
110.665 44.0136 0.313035
592.709 41.3356 0.0738569
824.977 13.2123 0.17584
258.523 29.7925 -0.23002
35.0568 16.8242 -0.169463
365.383 13.599 0.483367
116.975 39.6192 -0.467014
290.983 41.6068 -0.193113
462.543 1.07606 0.166208
883.763 28.0138 0.40243
761.628 0.803291 0.459695
360.889 3.09681 0.476409
325.894 25.9991 0.140862
504.016 40.1347 0.208985
88.4471 7.9607 -0.38448
215.321 44.1275 0.377795
866.265 27.092 0.352867
539.408 38.0976 -0.0869298
217.632 40.7544 -0.249545
174.886 41.4547 -0.191009
921.496 31.2801 -0.512546
917.7 11.2442 -0.428102
665.263 3.62684 -0.514275
206.977 24.1135 -0.0980356
600.402 27.0733 0.107583
602.448 26.7682 -0.259379
445.115 5.57131 -0.134673
524.74 0.93339 -0.277199
854.569 36.2973 -0.494017
92.3892 30.2737 -0.229709
726.381 17.7231 0.451399
298.38 15.3361 -0.33423
10.7728 2.31342 -0.337934
136.446 36.0553 0.190639
72.768 22.568 -0.447903
780.628 35.2456 -0.30774
889.301 42.8483 0.166447
202.213 27.7687 0.172579
909.342 11.488 -0.297792
48.9235 35.9127 0.254597
98.785 28.5998 0.152512
698.769 12.7245 0.355287
449.874 18.0112 -0.4676
566.963 16.449 0.117106
259.152 27.8698 0.177354
683.957 4.47222 -0.417708
922.519 10.5812 0.355685
32.5689 31.101 0.263301
293.788 7.66522 0.185132
241.91 14.9341 0.260244
1.10582 34.782 -0.145829
245.306 14.385 -0.363409
230.459 10.8837 0.124409
233.478 25.8113 -0.27413
144.669 27.2643 0.116435
598.59 14.7755 -0.333376
182.093 13.9639 -0.333318
877.239 39.17 0.215342
189.564 3.77101 0.48046
51.4735 36.933 0.366035
830.636 46.1269 -0.426527
305.756 31.04 0.382107
751.296 22.1158 -0.431854
894.895 27.5584 -0.467364
327.132 9.07509 -0.112463
820.652 28.3624 -0.347329
357.609 2.62597 -0.359016
452.854 23.4979 0.368799
747.668 15.6314 0.418845
114.985 11.8263 -0.394512
526.479 3.9639 -0.458871
842.239 17.1296 -0.221892
95.9593 7.64578 0.188992
306.437 14.5232 0.199516
461.117 11.5491 -0.189871
909.851 2.65654 0.380648
433.061 1.86718 -0.475331
192.873 38.0926 0.275616
827.827 10.2216 -0.329533
139.757 35.6786 0.180194
286.241 31.0698 -0.394956
435.994 21.3705 0.216188
628.934 13.2639 -0.318178
421.511 9.71597 -0.436623
497.609 27.1733 -0.403133
865.75 43.7756 -0.330598
51.8283 10.7915 0.104349
325.717 37.8128 0.252015
413.182 26.4586 -0.344349
445.845 20.7526 0.249763
569.774 43.4603 0.356997
847.087 34.2947 0.235016
735.064 33.6619 0.35819
245.976 33.5948 -0.394173
15.3092 30.6422 0.150819
727.47 35.4302 -0.127462
555.877 40.3454 0.0842976
249.942 38.6419 0.0999223
759.302 29.6878 0.133786
164.821 9.06644 0.197107
399.203 20.9937 0.281822
505.799 41.2443 0.100224
451.048 19.3396 0.189357
861.142 46.0149 -0.29091
464.016 3.3493 0.413786
54.2092 24.8378 -0.291464
512.786 30.8823 0.348133
473.651 40.5889 0.40538
880.562 33.4408 -0.227731
817.731 27.3886 0.281845
591.935 18.2222 -0.195913
870.682 35.0289 0.340166
319.115 2.04636 -0.427525
411.939 28.8409 0.444488
31.6582 38.1872 -0.291661
823.815 28.9218 0.130028
670.984 19.2987 -0.504746
505.053 0.778224 -0.482436
137.615 4.42802 0.284508
465.062 39.2954 0.0957795
13.3171 0.907061 0.315956
908.67 5.38803 0.191679
403.101 38.5997 -0.36585
[...]
POINT_DATA 13483
TENSORS Strain_matrix float
-0.0691666 -0.0596991 0.0450893 
0.0131261 -0.015534 -0.268336 
-2.64866e-18 -3.9168e-18 1 

-0.123479 -0.0489382 -0.534185 
0.0453044 0.0211842 -0.860738 
8.27868e-19 -3.34283e-18 1 

-0.0492912 0.0014495 -0.00560701 
-0.0125798 -0.0735352 -0.337366 
-1.38554e-18 1.62046e-17 1 

-0.255749 0.0233969 -0.256989 
-0.0481227 0.0388828 -0.089336 
-2.86485e-18 -9.28962e-18 1 

-0.0925872 -0.0240624 0.0372836 
0.00689495 -0.0655692 0.0302524 
5.15561e-18 -3.97793e-18 1 

-0.0564623 0.000151388 0.0534479 
0.0196842 -0.0501123 -0.133909 
-6.36026e-18 -5.68189e-18 1 

-0.0277736 -0.0132572 0.00692655 
8.70655e-05 -0.101448 0.0166504 
3.4396e-18 4.65358e-18 1 

-0.0631333 0.0150185 -0.105239 
0.0236321 -0.0667804 -0.0254493 
-1.6994e-18 7.34875e-18 1 

-0.0682984 0.00941188 -0.183096 
0.0638897 -0.0192331 -0.155772 
1.12521e-17 7.67185e-19 1 

-0.160077 0.0224363 0.197739 
0.051291 -0.100741 0.525412 
-5.65617e-18 6.99337e-19 1 

-0.03886 0.00989222 -0.138278 
-0.00248465 -0.0600738 0.0339046 
-9.25972e-18 8.83409e-18 1 

-0.0534623 -0.0426392 0.183511 
-0.0641561 -0.0921117 0.0290251 
2.68091e-18 -1.17067e-17 1 

-0.0926514 0.0952191 0.280283 
0.00829741 -0.0320153 0.140735 
-1.23156e-17 -1.50419e-18 1 

-0.119102 0.00808193 -0.251909 
0.00158168 -0.0451584 0.179768 
2.17174e-19 3.82769e-18 1 

-0.0679959 0.00428769 0.0487851 
0.0108385 -0.066058 0.298488 
5.06579e-18 2.89335e-18 1 

-0.0395123 -0.0167895 0.42407 
-0.0372497 -0.0316949 -0.0108574 
1.19108e-18 6.4968e-19 1 

-0.0138688 -0.0366977 0.0774816 
-0.00564397 -0.107667 -0.104758 
-4.5725e-18 2.8595e-18 1 

-0.0940864 0.00147812 0.0232845 
0.0142297 -0.0855481 0.0307193 
3.87741e-18 1.43994e-17 1 

-0.0773778 -0.0541736 -0.253283 
-0.0456676 0.00307202 0.246904 
-1.07085e-18 -1.65409e-18 1 

-0.0760459 0.0417468 0.0802198 
-0.0551254 -0.0856479 0.00568393 
-9.17886e-18 -5.52796e-18 1 

-0.0516362 0.0025173 -0.171513 
0.0323052 -0.0291007 -0.0157914 
-8.3999e-19 4.75994e-18 1 

-0.0786378 -0.00821643 0.230803 
-0.0219937 -0.0483155 0.0515333 
7.85107e-18 5.66007e-18 1 

-0.196279 0.0368564 -0.729398 
-0.0918483 0.0586934 1.83052 
4.67152e-18 -9.52764e-18 1 

-0.0960853 0.00937283 -1.32266 
-0.0159499 0.0108367 -1.85252 
-2.82226e-18 -1.31235e-17 1 

-0.0388586 -0.0224902 -0.170183 
0.0849584 -0.0542292 -0.0131069 
1.02538e-17 -7.4211e-18 1 

-0.0195191 0.00652741 -0.23637 
-0.0526832 -0.0599747 -0.311139 
3.85511e-19 7.90793e-20 1 

-0.0679602 -0.00481404 0.388157 
-0.00298337 -0.0456287 -1.91453 
-2.51814e-18 -5.04159e-18 1 

-0.0954058 0.0101131 0.0570845 
0.00817445 -0.0246552 -0.0348366 
1.38344e-18 6.36973e-18 1 

-0.0564856 0.00686047 -0.205356 
0.0490596 -0.0776697 0.436889 
1.19732e-18 8.09554e-18 1 

-0.144287 -0.0340572 0.128043 
0.0195206 -0.0244349 -0.0298982 
-6.25353e-18 2.39105e-18 1 

-0.0565375 -0.0199541 -0.258993 
0.00809798 -0.149216 0.403635 
2.03986e-18 -7.09316e-18 1 

-0.0685725 0.043551 0.000885954 
0.0899138 -0.0960269 0.00580805 
-7.2048e-18 -6.59594e-18 1 

-0.160329 -0.0462925 -0.226626 
-0.0133022 0.0402283 -0.64828 
-8.25729e-18 -1.7911e-18 1 

-0.0818515 0.0240727 -1.50073 
-0.00798243 0.0140063 -1.26506 
3.70604e-18 -4.90505e-18 1 

-0.0505733 0.00968355 0.0163967 
-0.0349277 -0.118057 -0.193189 
-6.04581e-18 0 1 

-0.102236 -0.0223325 0.0426927 
-0.0263208 -0.00451221 -0.0560567 
-1.0559e-17 6.90296e-18 1 

-0.0651493 0.00552872 -0.0181828 
0.000833963 -0.0533423 -0.315 
7.942e-19 1.02124e-17 1 

0.0234203 -0.0294669 0.106111 
-0.00691212 -0.17677 -0.0203193 
-6.74385e-18 1.04836e-17 1 

-0.0520624 -0.0143314 0.0391156 
0.0678221 -0.0581628 0.12644 
6.39765e-18 -6.54528e-18 1 

-0.0468017 -0.032356 0.0529031 
0.0156731 -0.0389746 -0.0807564 
-3.98356e-18 -1.71852e-18 1 

-0.0825924 0.0177187 -0.0386958 
-0.057315 -0.0589454 -0.16384 
-1.11566e-17 -4.6473e-18 1 

-0.00420326 -0.028466 -0.120518 
-0.0657264 -0.0501666 0.00521745 
7.84264e-18 1.39686e-17 1 

-0.139965 -0.0320966 0.0677632 
-0.0173171 -0.0289177 -0.117316 
6.31771e-18 -3.00477e-18 1 

-0.0283097 -0.027759 0.135431 
0.00585292 -0.0905633 -0.212364 
-1.8023e-18 -2.73811e-18 1 

-0.0420968 0.0140164 -0.0119693 
0.0126863 -0.0844691 -0.0344771 
1.12043e-18 -3.2927e-18 1 

-0.0421312 -0.00356701 0.0146129 
0.00614803 -0.0757945 -0.0296413 
7.15458e-18 -3.4423e-18 1 

-0.0902286 0.0154554 0.323018 
-0.0251768 -0.0573939 0.578914 
-1.1259e-17 1.27419e-18 1 

-0.0309487 -0.00477244 0.0119062 
-0.00770004 -0.134938 0.0386789 
6.21178e-18 5.03368e-18 1 

-0.124471 0.0103473 -0.354567 
-0.0518834 0.01154 -0.204967 
-4.88129e-18 1.11572e-17 1 

-0.0638401 0.0773464 -0.0909425 
-0.0232462 -0.0294702 -0.164022 
-7.08568e-18 -9.98779e-18 1 

-0.0432233 -0.00732091 0.0409201 
-0.0186289 -0.0176278 0.411872 
1.01067e-17 2.85168e-18 1 

-0.120021 -0.0288278 -0.2466 
-0.0111211 -0.0291649 -0.28333 
4.18709e-19 8.15532e-18 1 

-0.0848532 0.00246196 0.0663732 
-0.0296982 -0.0126606 -0.0560017 
1.21058e-17 -1.40986e-18 1 

-0.0873593 0.0227813 0.0690685 
-0.00229085 -0.0614794 -0.0721253 
1.78193e-19 -2.48452e-17 1 

-0.0537294 -0.00508676 -0.451596 
0.000180701 -0.079078 -1.32193 
-8.68378e-19 8.40366e-19 1 

-0.0918899 0.00256139 -0.331343 
-0.0218132 -0.0156255 -0.284281 
1.92258e-18 7.7056e-19 1 

-0.0706803 -0.0775989 0.0985815 
0.05496 -0.0154789 -0.0181525 
-1.58889e-18 -7.08189e-18 1 

-0.0513393 -0.256781 -0.146187 
-0.00595258 -0.102929 0.00202524 
8.41032e-19 1.75318e-17 1 

-0.0272863 0.0169662 -0.0715466 
0.00769277 -0.141981 0.0747768 
1.58048e-17 7.13387e-18 1 

-0.053328 0.00056651 -0.136722 
-0.0558778 -0.0715478 0.245283 
3.29413e-18 3.37307e-18 1 

-0.053795 0.165959 -0.220267 
0.0244357 0.0218414 -0.0701679 
-8.43917e-18 -1.03194e-17 1 

-0.0606661 -0.0142821 -0.212796 
0.0429478 0.00269316 -0.175211 
-1.15453e-17 8.76451e-18 1 

-0.0609359 -0.0359792 -0.164973 
0.000376595 -0.0415714 -0.0386465 
-1.03652e-17 1.72152e-17 1 

-0.0819037 -0.00562895 0.386184 
0.0210754 -0.0624587 0.0016113 
-7.49774e-18 -1.54134e-18 1 

-0.0406137 0.0291289 0.200002 
0.0235583 -0.0371721 0.127123 
-3.96647e-18 2.30269e-17 1 

-0.135202 0.00290752 -0.0210455 
0.00341415 -0.0281564 0.0551045 
3.27901e-18 -8.51148e-18 1 

-0.132904 0.0147915 -0.00679858 
0.0674593 -0.0854447 0.228578 
-1.14593e-18 -8.95735e-18 1 

-0.122689 -0.00270651 0.168277 
0.0454382 0.0135749 0.65477 
1.73217e-17 6.95146e-18 1 

-0.073275 -0.00413436 0.32082 
-0.0427645 -0.0856791 0.464611 
-1.53454e-18 -5.19382e-18 1 

-0.115812 -0.00808743 0.092975 
-0.0226041 -0.0955183 0.0977138 
-2.86163e-18 3.60521e-19 1 

-0.136974 0.050538 -0.0364265 
-0.0510701 0.0213286 0.126111 
-1.51822e-17 5.49304e-18 1 

-0.0263667 -0.00764299 -0.11356 
-0.00427895 -0.0825925 0.077687 
1.20963e-17 3.70836e-18 1 

-0.0483637 -0.0364802 -0.119138 
-0.0510296 -0.0466815 0.132425 
5.18746e-18 -4.07125e-18 1 

-0.0575324 -0.0242391 0.0169195 
-0.0158993 -0.0568146 -0.170139 
-1.19043e-17 1.19516e-17 1 

-0.0702185 -0.0101613 -0.177952 
-0.0137155 -0.0528872 0.0359779 
4.1605e-18 1.61325e-18 1 

-0.0217549 -0.0264954 0.0740784 
-0.0513144 -0.0851148 -0.0313904 
6.82578e-18 3.04334e-19 1 

-0.213588 0.0302771 0.382693 
-0.0153167 -0.00886284 0.170853 
5.45496e-18 3.80906e-18 1 

-0.0502026 0.0169441 -0.436417 
-0.0142654 -0.0485074 0.181145 
4.72919e-18 -2.81326e-18 1 

-0.164387 -0.0869986 0.130091 
0.0384387 -0.0373976 -0.0954079 
3.11513e-18 1.07407e-17 1 

-0.0833523 0.0405589 -0.0174815 
-0.0310467 -0.0420385 -0.0141008 
-1.12317e-17 2.69669e-18 1 

-0.177275 0.0426182 0.00754506 
-0.0369028 -0.0524168 0.188959 
1.0241e-17 1.84421e-18 1 

-0.0328653 -0.00991115 -0.0115037 
0.00745444 -0.0242583 0.0973123 
-1.54916e-17 -1.59754e-17 1 

-0.0355159 0.00898033 0.00905301 
-0.00897373 -0.0402384 -0.00446419 
-4.5644e-18 2.83223e-19 1 

-0.0387725 0.0041278 0.083356 
-0.0528247 -0.0668476 -0.0730885 
1.1441e-18 1.28601e-17 1 

-0.0923094 0.0103607 -0.220177 
-0.076092 -0.00310166 -0.272987 
-4.78936e-18 -1.90812e-17 1 

-0.158524 0.0560067 -0.333036 
-0.0579834 0.0160776 0.024397 
1.04535e-19 5.63183e-18 1 

-0.207506 2.01169 0.377502 
0.00407249 0.0420737 -0.454274 
-1.26917e-17 3.8033e-17 1 

-0.063719 0.0311794 0.161877 
0.0467688 -0.0860073 -0.0893529 
2.12992e-17 7.18632e-18 1 

-0.0760736 -0.0172361 0.0353008 
0.0452581 -0.0703669 -0.0735352 
-2.98197e-18 1.19279e-17 1 

-0.061567 0.0154288 -1.03552 
0.00338335 -0.0872033 -1.23501 
-2.84326e-18 2.64581e-18 1 

-0.0590186 0.0174976 0.231605 
-0.0243362 -0.0350928 -0.0739087 
-1.34481e-17 -3.44824e-19 1 

-0.0584825 0.0181497 -0.00548918 
0.0139355 -0.0625148 0.230335 
-1.4086e-17 -1.31689e-18 1 

-0.148143 -0.0218722 -5.16751 
-0.00207183 -0.00339326 2.77578 
5.07365e-18 8.06885e-19 1 

-0.0670674 -0.00569689 0.0783849 
-0.0104687 -0.0444865 0.216759 
-1.07948e-17 -5.12702e-18 1 

-0.0629169 0.00593151 -0.0229716 
0.0163614 -0.0189911 -0.170074 
-1.61586e-18 -1.29269e-17 1 

-0.0790304 0.0270777 0.01501 
-0.0101835 0.110806 -0.374001 
-6.45131e-18 -3.72887e-17 1 

-0.0592586 0.0276759 -0.0796332 
-0.0292021 -0.0485126 -0.152489 
5.25054e-18 2.2448e-18 1 

-0.115591 0.042804 0.0163776 
-0.0639545 -0.0126309 -0.0386957 
8.16334e-19 -9.38784e-18 1 

-0.153107 -0.0147613 -0.151899 
-0.0509392 0.0243761 0.0278534 
3.93568e-19 1.17279e-17 1 

-0.0401222 0.0246691 0.31908 
-0.048413 -0.0531175 -0.278934 
-1.56251e-18 -5.26498e-18 1 

-0.0505264 -0.0119336 0.0322497 
-0.00463603 -0.0432394 -0.101531 
1.84124e-18 1.39216e-18 1 

-0.100937 -0.00476151 -0.115784 
-0.0108294 -0.00520732 -0.0612282 
-3.92119e-18 -2.38681e-18 1 

-0.0574073 0.011513 -1.4386 
-9.77256e-05 -0.0663816 1.13766 
-1.11864e-17 -7.27115e-19 1 

-0.0609347 0.0394155 -0.0377355 
-0.0558464 -0.0370081 0.0348624 
1.89019e-18 1.0126e-18 1 

-0.055067 -0.0249899 -0.0507149 
0.0249615 -0.0914246 0.0938898 
-7.20781e-18 -3.03487e-18 1 

-0.0870724 0.000706625 0.204847 
0.0364255 -0.0553406 0.0478063 
-2.07963e-18 -4.78314e-18 1 

-0.134256 0.0831561 0.0490657 
-0.0816747 -0.0928856 0.0575004 
1.92635e-18 8.08377e-19 1 

-0.0402707 0.0262711 -0.324175 
-0.0659014 -0.046418 -0.361823 
-5.11416e-18 3.69921e-19 1 

-0.0784371 0.00311151 0.0277735 
0.00725607 -0.0889018 0.0257605 
1.81918e-18 4.69465e-18 1 

-0.0752309 0.0205845 -0.0572511 
0.0135342 -0.0874568 0.164415 
2.04316e-17 1.80741e-18 1 

-0.0562134 0.00568754 -0.808252 
0.0317367 -0.0631368 -2.31246 
-6.06497e-18 1.13406e-17 1 

-0.0477173 0.0459089 -0.167866 
0.00617103 -0.0797023 0.448115 
-5.61218e-18 9.37002e-18 1 

-0.043244 0.0129163 0.0164872 
-0.00716437 -0.124852 0.0626335 
1.61421e-18 -7.64628e-19 1 

-0.0894098 -0.0150157 0.536819 
0.0231533 -0.0225902 0.00827093 
4.41459e-18 3.48645e-18 1 

-0.133394 0.0296686 -0.0777726 
0.0311236 0.0388425 -0.254216 
1.52744e-18 -6.63848e-18 1 

-0.0541685 -0.0244818 0.240561 
0.0160309 -0.0191901 0.228875 
-3.18316e-18 2.61887e-18 1 

-0.0525169 0.0237117 0.0179162 
-0.00462567 -0.0498231 -0.126883 
-2.91898e-18 5.15201e-18 1 

-0.0503824 0.0137791 -0.0518697 
0.0493479 -0.059461 -0.0619685 
8.73143e-18 1.78453e-18 1 

-0.0864757 0.0387381 0.0102411 
-0.00141046 -0.0590311 0.00118613 
-9.17798e-18 -7.3952e-18 1 

-0.0915495 0.0219515 0.0194738 
-0.00186984 -0.00078251 0.0819739 
3.69046e-18 -1.43352e-18 1 

-0.13169 0.00775413 0.0281721 
0.017149 -0.0879228 -0.242134 
9.77041e-18 6.85726e-18 1 

-0.145398 0.0812761 0.0154691 
-0.0892219 -0.0561646 0.0418114 
9.8877e-18 -4.63741e-18 1 

-0.050385 0.0277789 -0.0184569 
-0.0398091 -0.0188401 -0.0441006 
-3.37993e-18 -4.3949e-18 1 

-0.0663667 0.0237376 0.051593 
-0.00267956 -0.0242725 0.038906 
-1.94263e-18 7.96712e-19 1 

-0.042364 -0.0100355 0.610339 
0.00381714 -0.0782012 -0.334993 
-1.6779e-18 2.09737e-19 1 

-0.0597885 0.0165709 -0.335114 
-0.0191186 -0.121224 0.150914 
-3.64056e-18 -5.06153e-18 1 

-0.0828937 -0.00431121 0.0603341 
-0.00730566 -0.0363898 -0.00594403 
1.06117e-17 -2.37722e-18 1 

-0.119016 0.00488079 -0.225346 
-0.00408612 -0.0189282 -0.398278 
-9.0267e-18 -8.0929e-18 1 

-0.0399365 -0.0130066 0.0197556 
-0.00269133 -0.0447265 -0.119483 
5.97468e-18 -1.62557e-18 1 

-0.0535058 0.00373286 0.507359 
-0.0127606 -0.0610951 0.194856 
-4.34867e-18 6.75959e-20 1 

-0.0743721 -0.0088719 -0.176857 
0.00485328 -0.00829218 0.0235399 
-1.39577e-17 -4.76492e-18 1 

-0.15825 0.0597915 -0.039801 
-0.0159067 0.0505184 0.0142374 
-2.59715e-18 -7.719e-18 1 

-0.0625792 0.00823256 -0.190637 
0.00365411 -0.0444842 -0.286747 
-8.58701e-18 -3.73135e-18 1 

-0.138537 0.0669828 0.144899 
0.0262552 -0.0455819 -0.031694 
-3.75365e-18 6.00584e-18 1 

-0.07156 -0.000118642 0.0426558 
-0.0182251 -0.0332442 0.244375 
2.95915e-18 -4.8226e-18 1 

-0.047501 0.0472596 -0.220489 
-0.00453508 -0.0206406 -0.100353 
1.1658e-18 -2.68e-19 1 

-0.122977 0.00880832 -0.0176015 
0.0283708 -0.00346136 -0.204841 
-4.39679e-18 3.66527e-19 1 

-0.0474943 -0.0179271 -0.427473 
0.0319106 -0.0485721 -0.480056 
5.92289e-18 -5.87403e-18 1 

-0.0814442 -0.0193019 -0.036061 
0.0193737 -0.0533238 0.114064 
-3.16167e-18 2.0397e-17 1 

-0.049405 -0.0303953 -0.0695187 
-0.0808319 -0.034835 -0.0874202 
-5.28651e-20 1.18964e-17 1 

-0.08576 -0.0094041 0.0782196 
0.0149652 -0.0440737 -0.115755 
8.1956e-18 8.21315e-18 1 

-0.0339568 -0.0359888 0.0188932 
0.0231996 -0.05309 0.00605455 
5.3005e-18 -2.899e-18 1 

-0.0536715 -0.0151678 0.0187913 
0.0102946 -0.0413455 -0.11381 
-4.73626e-18 -2.21497e-18 1 

-0.040035 -0.0243129 0.0278254 
0.0298662 -0.0300405 -0.0671964 
-4.92225e-19 1.36592e-17 1 

-0.0346723 -0.0108921 0.125084 
-0.0171184 -0.0374023 0.156806 
-5.0798e-18 1.42062e-17 1 

-0.106378 -0.0948449 0.042466 
0.0411701 0.0416399 0.00676064 
-3.98495e-19 1.4844e-18 1 

-0.193515 -0.0461359 0.0583438 
0.0126029 -0.0529806 -0.00323404 
9.70077e-19 -1.01373e-17 1 

-0.0451837 -0.00878719 -1.38858 
0.00157276 -0.115376 -0.435609 
-1.60389e-17 -2.45137e-18 1 

-0.0732025 0.00667787 0.0443592 
-0.0121015 -0.0562893 -0.320956 
6.68539e-18 3.9066e-18 1 

-0.0116869 0.00636522 -0.0177164 
0.0168358 -0.0427843 0.0249967 
3.42823e-18 5.18777e-18 1 

-0.0481636 -0.00438102 -2.92853 
0.00362859 -0.0279042 0.56864 
-4.91759e-18 1.88514e-18 1 

-0.101386 0.0118146 -0.183727 
-0.00513948 -0.0504874 0.296848 
-2.99721e-18 7.11838e-18 1 

-0.057814 -0.03664 -0.902799 
0.0171917 -0.077615 -0.217851 
-1.74289e-18 5.22867e-18 1 

-0.0494192 -0.0018236 0.0249735 
0.0114293 -0.038752 -0.14268 
5.20398e-18 -7.2189e-18 1 

-0.0497211 -0.00481219 0.0268503 
-0.0187703 -0.0695343 0.103032 
-5.15061e-18 -2.60064e-18 1 

-0.127217 -0.029404 -0.327212 
0.0353377 0.0489211 -0.430019 
1.05986e-17 1.68027e-18 1 

-0.0921327 0.0072247 0.629545 
0.0230255 -0.0127715 -0.175685 
1.19004e-19 8.8403e-19 1 

-0.0547069 -0.0191558 0.059519 
-0.000247217 -0.0396239 -0.930075 
2.25224e-19 -2.00743e-18 1 

-0.107405 0.0283846 0.0977 
0.0341266 0.077378 -0.447984 
1.03186e-18 1.28834e-17 1 

-0.140463 0.0459038 -0.2091 
0.0333242 -0.0912867 0.267289 
2.04872e-18 8.91797e-18 1 

-0.10452 -0.00852303 2.80225 
-0.00402259 -0.0168968 1.15831 
1.66801e-18 -4.68822e-18 1 

-0.0813359 -0.0553308 0.11822 
-0.00697018 -0.086403 -0.159042 
-1.77832e-17 -3.17951e-17 1 

-0.0907814 -0.0266137 0.289103 
-0.0322747 0.0330753 0.114507 
7.09959e-18 -6.57369e-19 1 

-0.0789713 -0.070635 1.43518 
0.00808511 -0.115158 0.422868 
4.07523e-19 4.59919e-17 1 

-0.10354 -0.0600984 0.0813282 
0.0560626 -0.0585554 0.294618 
-5.86616e-18 -5.31865e-18 1 

-0.27504 0.0610601 -0.0467116 
-0.00512094 -0.0804679 0.157438 
-1.22973e-17 7.48794e-18 1 

-0.0337193 0.0153991 -0.00957034 
0.0131305 -0.0910552 -0.0520172 
-8.165e-19 1.08867e-17 1 

-0.0851651 -0.0101577 0.0465352 
0.0361871 -0.0114622 -0.0977329 
5.04045e-18 7.56068e-19 1 

-0.0384159 -0.0548719 0.567441 
0.00755881 -0.112526 0.388545 
-1.85519e-18 -1.18472e-17 1 

-0.049583 0.0154832 0.0424486 
-0.0248698 -0.102823 0.148808 
-2.97569e-18 5.02465e-18 1 

-0.0404484 -0.00626571 0.0156496 
0.0298022 -0.0580234 0.0656796 
8.7518e-19 -7.7516e-18 1 

-0.0373759 0.00128159 -0.091882 
0.00379962 -0.0328533 -0.0265682 
2.07865e-18 2.55834e-18 1 

-0.060671 0.0529756 -0.158308 
0.0539206 -0.0748062 -0.153684 
7.94297e-18 -1.00325e-17 1 

-0.105772 -0.0148498 -0.454114 
-0.0218613 -0.0441464 0.521626 
-1.92499e-18 -1.59389e-17 1 

-0.0621281 -0.00157156 -0.0625379 
-0.0218729 -0.0142215 -0.0177067 
1.59731e-18 -7.61218e-18 1 

-0.101701 0.00232475 0.0823293 
-0.0324163 -0.0772257 0.0199834 
-1.44934e-17 -2.28023e-18 1 

-0.125714 0.0343084 -0.208542 
-0.0524841 -0.0284141 -0.0751715 
-6.2883e-19 8.4892e-18 1 

-0.068349 -0.0103531 0.0489203 
-0.00611392 -0.0605423 -0.134049 
-4.5845e-18 1.19247e-17 1 

-0.0723704 -0.0286738 0.289466 
0.00191223 -0.0159607 -0.03782 
1.56353e-18 -7.57438e-19 1 

-0.0906348 0.0615815 -0.0230473 
-0.0339616 -0.086949 -0.0440649 
1.38084e-17 -6.27344e-18 1 

-0.0632507 0.0444102 -0.169181 
-0.0989855 -0.0347028 0.192367 
9.20146e-18 -8.673e-18 1 

-0.0833419 -0.0148184 0.0506047 
-0.0205994 -0.114686 -0.0431958 
-5.98003e-18 -1.64886e-17 1 

-0.0495941 -0.0102708 -0.0324057 
-0.0370442 -0.0640809 0.00861276 
1.10801e-17 -5.80854e-19 1 

-0.0528505 -0.00535464 -0.828386 
0.0125079 -0.074628 0.850737 
8.87603e-18 1.03746e-18 1 

-0.106964 -0.00578504 0.0368587 
0.0679131 0.0144207 -0.276413 
1.09823e-17 -2.8332e-18 1 

-0.0734706 0.0111939 0.0615095 
-0.0734285 -0.0591991 0.146516 
-8.20405e-18 1.04205e-17 1 

-0.0850288 -0.0149528 0.325353 
-0.0344266 -0.0318636 0.236163 
-6.0529e-18 -3.22566e-18 1 

-0.117154 -0.0569972 0.272512 
0.0607841 -0.0100518 -0.0330139 
-2.86904e-18 -1.78135e-18 1 

-0.0565483 0.00978992 -0.0140242 
-0.0264673 -0.0700021 0.154157 
-2.36606e-18 -9.10024e-19 1 

-0.128508 0.0216241 0.201603 
0.0123373 -0.0297519 -0.095753 
3.09736e-18 9.19217e-18 1 

-0.0976326 -0.0597719 0.187531 
0.0416285 -0.0156135 0.0929697 
-2.79905e-18 4.56904e-18 1 

-0.0645159 -0.0728788 -0.13343 
0.017127 -0.0716474 -0.0595371 
-8.43429e-18 -4.4005e-18 1 

-0.117053 -0.0205026 -0.170819 
0.0111333 -0.0839539 -0.286226 
3.73311e-18 -1.40097e-17 1 

-0.122169 -0.0387248 -0.103064 
0.0127081 0.0065914 0.0308329 
6.68596e-18 9.13277e-18 1 

-0.117217 0.0586137 -0.0270806 
-0.0575716 -0.0775565 -0.242536 
-6.95917e-18 -2.87569e-19 1 

-0.0780245 0.0281071 0.475339 
-0.0272918 -0.0272791 -0.152442 
1.6345e-18 -2.15934e-19 1 

-0.061147 0.0314937 -0.0872451 
-0.0050656 -0.0758107 -0.142488 
6.88495e-18 3.04744e-18 1 

-0.0347692 -0.0383561 -0.149867 
-0.0689264 -0.053552 -0.175066 
3.04769e-18 -4.57153e-18 1 

-0.0624574 -0.033626 -0.0330497 
-0.0370722 -0.0766553 0.264172 
-2.1338e-19 4.2676e-19 1 

-0.0835813 0.0347056 0.12359 
0.0143816 -0.00270253 0.244714 
-9.57527e-18 2.209e-18 1 

-0.100516 0.00963965 0.336705 
-0.0321685 -0.009596 0.421065 
-2.65767e-18 -3.57457e-18 1 

-0.0681989 0.000812759 -0.130687 
-0.0218672 -0.0131019 -0.106887 
4.21816e-18 9.35371e-18 1 

-0.16861 -0.0171459 -0.0537499 
0.0277389 -0.0211551 0.178115 
-1.34371e-18 1.21848e-19 1 

-0.115475 -0.0378214 0.339143 
-0.0185298 0.0315103 0.227451 
-1.97319e-18 -8.39654e-20 1 

-0.0366913 -0.0204867 0.00336545 
0.042787 -0.0936027 -0.019701 
4.67116e-18 -1.01729e-17 1 

-0.0494571 0.00580024 -0.170849 
-0.0274537 -0.0259667 -0.0407052 
-1.19872e-19 4.25544e-18 1 

-0.0526381 -0.00630093 -0.24584 
-0.0074291 -0.03656 -0.460488 
1.02187e-17 4.56811e-18 1 

-0.055683 -0.00775142 0.311829 
0.0187268 -0.00787864 0.0488673 
4.62884e-18 2.81298e-18 1 

-0.164819 -0.00979914 0.133786 
0.0284863 -0.0419957 0.336856 
7.10066e-18 -4.63256e-18 1 

-0.0546992 -0.00274385 0.0810689 
-0.0118008 0.00337473 -0.0884816 
1.34011e-18 -2.70649e-18 1 

-0.0432986 -0.000923943 -0.0136481 
-0.0298657 -0.0532833 0.0899589 
-3.10628e-18 1.48705e-18 1 

-0.103222 -0.00925797 0.0101799 
0.0237413 -0.0554861 -0.474833 
4.66487e-18 1.62128e-19 1 

-0.0372084 0.091797 0.0328384 
0.0509662 -0.116622 -0.523654 
1.29846e-17 8.53617e-18 1 

-0.0439189 -0.00262246 0.965988 
-0.0270866 -0.0552588 0.385175 
9.28768e-19 -2.58327e-18 1 
