# vtk DataFile Version 3.0
Output file generated by Yade's KinematicLocalisationAnalyser
ASCII
DATASET UNSTRUCTURED_GRID

POINTS 13483 float
403.846 38.3277 0.465831
482.783 83.8455 0.513844
100.259 5.89528 0.534269
514.863 8.10595 0.37987
360.973 10.4125 -0.37026
256.908 53.3239 -0.654829
130.338 8.03043 0.596323
379.635 13.8583 0.173182
349.667 68.681 -0.150983
466.753 15.8236 0.512053
177.288 9.37465 -0.147196
214.612 6.90167 -0.315445
438.429 78.9683 -0.176146
423.05 19.9735 -0.131508
114.012 20.5924 0.454613
179.38 44.6388 0.409409
183.961 12.8818 -0.387719
235.525 21.7692 0.557663
278.039 48.9018 -0.467159
364.225 26.5281 -0.469755
305.87 38.3842 -0.105847
397.507 67.1269 0.257843
504.189 65.3626 -0.483362
446.596 76.2736 -0.492501
339.358 36.9991 0.332522
193.024 57.8808 0.132446
348.926 70.6412 -0.399347
392.085 27.281 0.37787
39.3571 16.2526 0.501296
469.509 77.1994 0.351814
350.343 7.17857 0.544408
14.6216 27.9824 0.289704
495.042 91.2362 -0.276756
358.989 2.90914 0.603655
64.3035 50.0129 0.1092
371.078 79.8289 -0.351591
364.287 46.2986 0.488288
265.056 29.9855 0.21879
364.762 72.9823 0.302681
281.169 43.7999 -0.706068
202.276 16.4267 -0.403965
322.395 44.289 0.0921473
448.515 26.2032 0.139185
161.392 6.80247 0.496874
48.3617 7.28842 0.119237
59.9129 10.4084 0.348262
443.36 8.28581 0.631615
20.1997 12.5543 0.287367
401.477 62.5843 -0.423303
443.758 52.0142 -0.341721
144.854 36.1963 0.450385
486.947 71.8585 -0.122688
29.8947 30.1848 0.118775
370.817 8.28262 0.659639
119.307 7.06224 -0.50017
394.169 50.0402 0.531391
360.487 76.1941 -0.11122
146.666 1.01604 -0.354441
28.205 2.36067 0.364528
268.407 23.6431 0.310492
408.736 64.8634 -0.197586
322.072 65.1615 0.197083
301.17 1.03084 0.226528
453.168 10.0263 -0.685282
21.2236 50.9916 0.248603
208.649 41.2268 -0.362244
467.56 8.36288 0.501619
452.379 102.814 -0.353363
317.971 9.41639 -0.637216
379.74 5.84852 -0.59973
474.446 49.0427 -0.565086
110.191 8.32598 -0.328522
353.22 73.2567 0.122206
344.034 52.7196 -0.171207
240.523 27.2697 -0.656858
17.9939 14.8249 0.303735
505.342 87.6107 -0.396366
271.834 58.7543 -0.374445
441.283 48.4539 0.409493
450.508 25.5677 -0.256235
501.192 33.0608 0.490108
323.729 68.6212 -0.202697
78.3533 45.1285 -0.29536
438.436 66.6121 0.32094
429.764 84.3459 0.10449
509.809 73.8711 0.126718
511.622 2.08811 -0.722177
239.048 43.09 0.472944
420.387 6.30257 -0.142
21.5032 6.35092 0.66486
114.103 46.8935 -0.175098
359.316 37.1797 -0.227117
494.109 59.6741 0.498958
166.298 29.5351 0.264406
35.9235 38.6323 -0.276821
357.537 0.944535 0.282074
200.718 9.57845 -0.520869
470.213 59.9545 -0.254251
481.547 52.8367 0.257732
277.767 31.4646 -0.261459
137.817 29.7316 -0.451688
400.207 84.2164 -0.440554
290.477 24.7689 0.468887
307.998 29.8305 0.116353
285.377 6.12662 0.660036
372.726 35.122 0.144191
512.124 26.9354 -0.305866
66.3388 44.9861 0.340474
261.521 6.26978 0.218318
376.313 15.0511 -0.504612
276.741 77.9441 -0.14101
22.3834 25.6808 -0.547071
26.8603 6.11515 0.357511
372.327 63.802 0.435592
355.83 56.3662 0.18298
21.5867 44.1347 -0.443649
79.835 37.5486 -0.224593
254.014 17.9793 -0.494966
404.189 19.8902 -0.154636
331.236 76.571 0.331059
481.528 8.92082 -0.477762
475.498 7.53175 0.219707
298.596 60.2389 -0.113133
418.807 49.5846 0.101618
200.73 19.9234 0.68057
259.07 5.33744 0.589539
88.7113 37.0637 0.320532
98.6621 28.0881 -0.313059
396.781 85.6584 -0.0784362
247.236 29.1563 0.547767
466.236 77.797 0.135474
457.884 101.579 0.104874
343.154 59.794 -0.372811
492.771 41.2108 0.306919
325.419 26.7474 -0.236386
227.664 38.9407 0.313293
432.905 71.3147 0.282654
229.868 42.936 0.504183
387.369 18.5893 -0.339778
273.35 54.2459 0.189704
356.849 27.7066 0.551575
281.476 62.2063 -0.0826084
327.737 17.9349 -0.161933
260.721 62.1336 0.444596
162.747 31.0815 -0.156064
487.211 85.6277 0.145641
510.132 27.3545 -0.359991
5.77325 13.4027 0.426085
329.994 24.5989 -0.637239
34.4457 24.9469 -0.0737074
288.427 58.5281 0.462172
296.09 34.0669 0.309603
66.0026 13.4046 -0.484028
42.5897 37.0342 -0.616799
193.457 13.5945 0.641687
412.143 59.96 -0.55087
390.58 27.7118 -0.49879
64.447 24.1164 -0.554464
447.509 80.7722 -0.420299
505.875 2.31693 -0.625217
444.868 95.9637 0.0345735
449.895 2.54323 -0.636465
369.877 61.581 0.427658
397.63 65.558 -0.571446
358.255 43.8458 -0.390857
513.917 14.02 0.20759
190.17 27.846 0.142438
109.818 43.5844 -0.201751
209.866 8.14899 0.471867
79.177 8.93428 -0.327404
56.2899 11.1836 -0.189018
226.583 50.58 0.296298
16.352 28.3319 -0.346825
384.341 40.136 -0.574851
403.101 54.4749 -0.241848
333.278 49.3265 -0.362617
508.658 101.717 -0.3474
311.612 8.38779 -0.104765
315.268 49.8327 0.386917
375.002 10.8875 -0.266318
20.0181 24.6178 -0.47862
388.355 4.89747 0.516057
376.097 25.1007 -0.290945
175.858 12.0156 0.556103
325.78 16.8527 -0.344704
246.472 8.95681 0.489338
296.644 19.7378 -0.555113
462.446 52.3539 -0.118546
164.529 26.6924 0.4404
499.144 27.8973 0.513691
464.63 47.3585 -0.435921
289.909 13.5272 0.170046
466.427 2.47278 0.507066
401.074 37.7674 -0.487308
487.594 17.2583 -0.367958
308.797 72.8595 0.105659
352.492 29.2474 0.541509
321.961 79.6946 -0.217945
342.756 12.2657 0.208503
448.737 97.1088 0.252593
447.312 92.7743 0.316263
163.773 41.4403 0.413795
499.88 36.7115 0.144321
410.321 76.3006 0.29817
10.4059 18.9582 0.267161
308.511 26.5531 0.40491
160.651 24.3305 -0.452721
79.8997 46.0521 0.254434
492.124 56.8733 0.440327
439.503 97.9934 0.239845
258.624 37.3748 0.408385
370.257 36.7511 0.524497
69.1696 50.4451 0.186903
204.749 33.738 -0.464891
387.906 45.1833 0.424108
352.056 63.5293 0.43887
222.807 2.69906 -0.487466
410.331 84.2466 0.370092
390.647 89.222 -0.462625
343.51 77.1162 -0.403904
365.831 3.92932 -0.5404
455.331 23.1367 -0.502681
151.786 13.8751 0.409651
359.564 87.1603 -0.447028
377.325 70.6111 0.113504
64.1698 0.968899 -0.299181
214.832 4.91044 0.208295
508.163 32.3262 0.254204
501.555 34.3823 -0.681262
512.8 32.2192 -0.593891
241.088 11.6879 -0.35827
482.148 29.8534 -0.641081
307.952 43.0504 0.489471
340.816 0.789985 0.676328
436.473 85.6694 0.426894
23.4911 34.109 0.356632
273.183 61.7845 0.472631
216.025 3.21231 0.482907
499.124 89.728 -0.250262
465.721 91.7221 -0.218798
237.457 21.9097 0.15374
431.659 64.2625 0.0853309
376.787 2.46474 -0.302315
374.331 29.7626 0.575609
83.6702 21.9895 0.526305
241.807 1.31667 -0.257726
269.178 3.48043 -0.516991
12.479 7.90484 0.628075
4.53519 33.3543 -0.26411
137.367 21.7728 -0.377295
56.1733 47.4297 -0.276624
54.9523 32.8708 0.315803
325.454 13.7334 -0.591742
285.289 65.6853 0.510136
484.18 71.1525 0.113936
17.7524 4.33536 -0.28929
62.667 8.26015 -0.163832
415.496 69.4722 0.149047
233.961 0.899155 0.412149
283.989 28.0102 0.108946
202.383 4.83698 0.370014
425.475 47.1457 -0.202374
346.542 17.8352 0.61758
486.989 30.8529 -0.490943
426.081 67.6193 -0.327346
440.999 46.5956 -0.259572
321.116 29.3132 0.543814
86.9696 53.227 -0.315149
401.254 88.5233 -0.0766713
485.787 12.1871 0.325976
195.202 39.1404 -0.250999
28.755 18.9575 -0.342172
263.889 18.7184 0.65107
92.9008 48.9962 0.54518
220.071 56.3843 -0.217378
330.175 2.50906 -0.239186
505.475 81.9472 0.390658
445.82 2.49206 0.640555
262.314 4.62476 0.462135
248.654 40.2806 0.170419
322.237 76.4103 -0.223148
72.2487 9.68936 -0.557146
168.14 49.7302 0.410726
489.844 64.2 0.456451
354.201 87.0798 -0.0791143
170.114 44.8879 -0.338885
138.866 49.5209 0.522811
511.451 69.2481 -0.438447
510.827 29.0571 -0.555278
413.308 3.42912 -0.616065
162.979 25.9242 -0.138559
359.679 67.7574 0.103854
361.744 65.2326 -0.325695
316.299 5.91879 -0.152324
355.459 0.90801 0.312779
481.162 70.5991 -0.477945
72.5621 36.9488 -0.262871
430.554 46.5091 0.515305
225.25 26.3355 -0.470252
8.07487 2.656 0.424974
109.271 45.6143 0.250031
57.8435 24.3195 -0.545458
458.624 76.5325 0.3385
498.031 97.7887 0.0273444
158.888 30.091 0.199937
506.666 30.8835 0.514255
36.7766 41.2863 0.283256
78.6554 36.028 0.193236
424.821 24.1538 0.548292
317.646 19.2228 -0.552847
361.242 45.7071 0.137692
196.163 36.2128 -0.235636
426.923 4.04636 -0.731868
514.149 28.0648 0.597797
26.0514 35.1646 0.286601
225.687 14.3533 -0.239589
191.129 15.8869 0.48047
1.01275 37.7046 -0.162607
193.451 14.5454 -0.472803
181.851 11.1428 -0.215289
183.475 27.9018 0.290046
114.801 34.1348 0.145568
379.588 38.4302 -0.354994
141.452 15.0799 -0.388078
493.929 87.484 -0.236722
148.681 3.94571 0.513165
38.6566 42.9892 0.437259
461.214 63.3025 0.464393
233.79 46.9423 0.371808
450.437 47.1841 -0.638664
500.712 74.2236 -0.552684
240.033 13.3781 0.179918
471.734 37.4208 -0.377601
260.269 2.69102 -0.396519
318.773 24.8381 -0.495563
446.185 39.7426 -0.708011
90.8634 14.0778 -0.449922
356.086 5.0839 0.702359
489.352 25.5488 0.208614
77.7227 7.66582 0.24727
232.641 26.4642 0.228966
326.516 11.9322 -0.297343
513.646 12.3022 0.682497
305.735 1.85553 -0.628421
151.501 41.6167 0.293199
488.167 9.76924 -0.514743
112.023 44.1255 0.202298
217.264 43.4791 -0.444552
307.408 21.0318 0.318775
389.281 20.5796 0.351486
295.013 9.99101 -0.554518
330.916 60.3723 -0.420939
483.873 84.2238 -0.428417
42.4009 11.9406 0.206999
246.11 56.0112 0.282479
289.581 44.6194 -0.37776
314.148 20.6374 -0.336389
381.878 94.6466 -0.356845
477.61 63.2511 -0.244957
452.373 93.1084 0.396397
185.502 45.2192 -0.398836
13.6887 34.9933 -0.155627
445.392 92.2244 0.128163
368.74 95.8047 -0.257899
188.898 49.4431 0.104153
445.084 59.7946 0.123532
128.223 10.793 -0.210869
286.357 33.3204 0.309523
323.415 78.0933 0.105435
318.034 20.6401 0.330941
479.14 82.7055 -0.320919
330.789 5.37918 0.602761
43.3915 27.6305 0.293197
334.458 70.8632 -0.362059
311.59 50.8129 -0.521662
500.483 84.0217 -0.221798
473.915 32.5066 0.299585
376.878 46.7136 -0.228984
492.954 80.8448 0.460974
234.27 2.31394 -0.559051
291.094 54.4586 0.587135
23.9754 46.7474 -0.346238
470.545 41.5015 -0.220424
417.139 21.4498 -0.654948
347.352 5.27159 0.688595
106.671 5.8379 -0.421007
318.758 43.3062 0.131338
10.3901 0.903366 -0.424484
509.216 15.6149 0.299592
292.629 69.5838 -0.394464
417.746 7.98126 -0.533751
[...]
POINT_DATA 13483
TENSORS Strain_matrix float
-1.2365 1.45548 -0.805996 
0.406993 0.231242 0.531209 
-7.68323e-18 -1.2207e-17 1 

-2.88408 1.08881 74.3738 
0.199484 0.772841 21.648 
2.67571e-18 -1.16664e-18 1 

-0.371632 0.120358 1.19618 
0.18344 0.148551 2.28105 
3.29701e-18 -6.08115e-18 1 

-3.8477 0.850183 -0.663151 
-0.628444 1.16209 0.896719 
-1.43697e-17 9.98486e-18 1 

-2.01576 -2.38493 7.38793 
0.591764 1.44175 -1.77772 
1.14336e-17 1.28628e-17 1 

-0.784446 0.0030321 -50.8779 
0.00333614 0.577314 -10.6017 
-1.29898e-18 -7.19167e-18 1 

-0.35155 0.00763343 0.100074 
-0.0322274 0.0988141 -0.0264854 
2.35265e-19 -1.0185e-17 1 

-0.870889 0.658352 0.192016 
-0.493068 0.434553 -0.0322899 
-1.30077e-17 4.992e-18 1 

-0.461329 0.256949 3.71883 
-0.0397184 -0.165358 -0.120262 
-9.9416e-18 -4.26864e-18 1 

-0.876123 -0.355131 0.354473 
-0.345109 0.106834 0.329721 
-1.52057e-17 -6.30875e-18 1 

-0.22155 -0.0756371 -0.230483 
0.0208089 -0.0496708 0.144692 
7.35099e-19 9.43377e-18 1 

-0.987516 -0.698978 0.590028 
0.269364 0.315136 -1.0353 
-1.03209e-17 -1.41326e-17 1 

-4.53784 6.07828 36.0828 
-0.579644 1.60215 7.58715 
5.75386e-18 -6.62945e-18 1 

-2.73868 -1.68241 -2.90521 
0.903218 1.23819 0.399296 
6.88814e-18 1.96405e-17 1 

-0.446882 0.0096229 0.0580365 
0.0361551 0.264739 -0.783834 
-6.07998e-19 1.48065e-17 1 

-1.62195 -1.71777 -3.59756 
0.888671 0.995931 1.72941 
-5.96874e-18 2.21163e-18 1 

-0.216205 0.0964267 -0.18669 
-0.106009 -0.0567365 -0.143209 
-7.08137e-18 2.55716e-18 1 

-0.552007 0.283087 -0.963152 
-0.360131 0.170871 -0.42281 
9.89816e-18 4.94908e-18 1 

-0.718958 -0.018658 16.6106 
-0.432691 0.516074 -2.08728 
6.54743e-18 4.61476e-18 1 

-2.16336 -1.007 -0.941967 
0.246134 0.599547 0.0450251 
-2.22654e-17 4.34352e-18 1 

-0.23504 0.137047 -0.287518 
-0.124637 0.0684697 -0.426587 
1.2403e-17 6.70431e-19 1 

-4.74451 0.792209 -7.37496 
0.571017 0.451263 4.15379 
-4.51853e-18 1.99569e-17 1 

-1.96887 -2.52549 -7.58339 
-0.00242667 0.28653 2.0038 
5.93612e-18 1.35559e-17 1 

-1.58715 1.44125 -62.351 
-0.0610554 0.885896 -19.6683 
7.70581e-18 1.09919e-18 1 

-1.25219 -1.62243 -1.063 
2.04464 1.60703 1.53953 
-1.4994e-17 -4.12207e-19 1 

-0.530477 -0.447834 2.78562 
0.605112 0.622729 -0.980678 
4.18074e-18 1.90033e-18 1 

-0.693181 0.283949 19.1796 
0.252593 -0.115254 1.92496 
-1.28697e-17 -3.53181e-18 1 

-0.771747 0.986236 0.21119 
0.271247 0.032711 0.0308172 
5.37573e-18 8.28392e-18 1 

-0.218931 0.0168775 1.85268 
0.113121 -0.110755 0.993427 
-3.49163e-18 -8.21824e-18 1 

-5.51318 1.00375 -6.05986 
-0.593819 0.501965 -2.10465 
-1.02847e-17 -1.02847e-17 1 

-2.06551 -0.179477 4.45163 
-0.345756 0.268829 2.00626 
7.37987e-19 -6.90325e-18 1 

-0.16003 0.82272 1.39823 
-0.0130213 0.29948 0.0347768 
1.44551e-17 -1.50026e-17 1 

-0.079869 -1.06832 1.0195 
0.555102 0.486476 -1.96164 
2.04433e-18 9.51218e-18 1 

-0.917341 0.227382 -3.36589 
-0.0838041 0.447638 -1.69602 
1.92655e-17 3.09279e-17 1 

-0.127383 -0.0331313 -0.208423 
0.0135437 -0.0866214 -0.288067 
-3.94444e-18 5.19268e-18 1 

-0.618547 -0.317622 -0.306538 
0.267762 0.519481 0.231985 
-8.60185e-18 -5.37615e-18 1 

-0.900825 -0.0724622 3.67005 
0.0922918 0.195185 -5.25166 
-9.01993e-18 -3.50165e-18 1 

-1.60908 2.91947 -1.25525 
-0.627609 1.1714 -0.739964 
2.98888e-20 1.10788e-17 1 

-0.940422 7.56122 1.42519 
-0.35718 0.76292 -0.66945 
-2.00361e-17 1.10913e-18 1 

-1.211 -0.927759 316.931 
0.024492 0.350945 48.752 
6.86809e-19 2.46004e-18 1 

-0.321819 -0.324592 -0.37415 
-0.0837208 -0.12346 0.171439 
-1.28224e-17 2.69944e-19 1 

-0.0919989 -2.17721 -1.51896 
1.57134 2.41795 2.05752 
-2.87553e-18 -4.05004e-19 1 

-4.20959 0.00175171 2.00537 
-1.99874 0.143904 1.36078 
7.64593e-18 -7.36275e-18 1 

-0.24778 0.173972 -0.172125 
-0.154186 -0.0280447 0.290433 
5.96803e-18 -3.14004e-18 1 

-0.233433 0.146502 0.162687 
-0.133988 -0.028414 -0.00953018 
-5.69028e-18 1.25876e-17 1 

-0.162896 0.0238322 0.158795 
0.0822131 -0.0285648 -0.0961333 
-2.8874e-18 4.41397e-18 1 

-1.79543 1.80063 7.30443 
-1.01039 1.37569 5.36053 
2.82961e-17 3.15619e-18 1 

-0.0975344 0.00878897 0.0863869 
-0.00836669 -0.120122 0.0693885 
1.97612e-18 -8.97791e-18 1 

-1.74365 0.948066 -8.54046 
-0.199441 0.419957 -1.61881 
-1.0844e-17 -6.85924e-18 1 

-0.65933 -0.996891 7.38338 
-0.425339 -0.0455378 1.60338 
6.02524e-18 -1.00514e-17 1 

-0.229646 0.128621 3.70045 
-0.167826 0.0242342 -3.45713 
1.52887e-18 -8.87986e-18 1 

0.292368 -0.783245 0.497624 
0.779663 0.279131 -0.439998 
-7.96351e-18 -2.20239e-18 1 

-0.238616 0.11213 -0.175819 
-0.182601 0.140192 0.34354 
2.30266e-18 2.76785e-18 1 

-2.81325 -0.577557 -43.0519 
-0.11223 0.819395 -0.152769 
1.15464e-17 1.30714e-18 1 

-0.620656 -0.0465598 -0.232672 
0.329159 0.236958 -0.0767997 
3.57379e-18 -1.33696e-18 1 

-0.751536 -0.0972121 36.5579 
-0.838751 0.323102 0.727606 
3.65744e-18 8.46017e-18 1 

-1.47544 5.56565 6.20153 
-0.129866 0.582921 0.71324 
-5.64436e-18 -3.19539e-18 1 

-0.216182 -0.0185414 -0.886584 
-0.0162534 -0.00777364 -0.465163 
9.34019e-19 -3.45241e-17 1 

-0.134638 0.0956056 0.30634 
-0.0888303 -0.0778728 0.337713 
1.17841e-17 1.09084e-17 1 

-0.678325 -0.547154 0.43752 
-0.165601 0.120105 -1.22297 
-6.88555e-18 -1.15678e-17 1 

-1.25851 -1.0412 -2.62841 
1.14331 1.42033 1.19977 
-9.30115e-18 -5.76177e-18 1 

0.207656 -1.18252 0.547547 
0.61202 0.581033 -0.351503 
-2.55435e-18 -5.32401e-18 1 

-0.178339 -0.287457 -0.267544 
-0.0439473 -0.0940625 -0.0766456 
-1.17907e-17 1.47212e-17 1 

-0.862958 0.158349 -0.452612 
0.126491 0.264549 -6.8583 
1.02115e-17 -1.66217e-17 1 

-0.348448 -0.107772 0.245173 
0.0955679 0.0342358 0.398792 
-1.56971e-18 6.76185e-18 1 

-0.435823 -0.512622 -0.449978 
0.363963 0.283027 1.04313 
1.91162e-18 2.77656e-18 1 

-0.739345 -0.119778 0.886321 
-0.108403 0.0977702 0.114121 
-1.24499e-17 -1.1049e-17 1 

0.0892862 -0.215017 -0.210795 
0.338807 -0.253713 3.20718 
-3.87407e-18 8.6214e-18 1 

-0.430517 -0.151215 1.30713 
0.00732392 -0.0703383 -0.788498 
5.2409e-18 4.4922e-18 1 

-0.967447 -0.0164135 0.359893 
-0.000476253 0.14892 -0.175732 
1.63641e-17 -2.25227e-18 1 

-1.75487 0.422863 -10.9566 
0.9349 0.388321 -1.71094 
3.15195e-18 -6.39722e-18 1 

-0.358995 0.00503663 0.638331 
0.0239731 0.0985228 0.271466 
2.27169e-17 1.568e-18 1 

0.28571 2.85068 1.63682 
0.182129 0.359883 1.46749 
3.35745e-18 -1.01982e-17 1 

-0.126373 -0.745692 1.08341 
0.579898 0.411517 -0.633896 
-1.79768e-18 -2.20124e-19 1 

-0.610388 -0.0152472 4.01517 
-0.101862 0.140124 2.07513 
4.20168e-20 -5.54622e-18 1 

-0.210907 0.0127624 0.0477543 
-0.0681218 -0.0144824 0.00402568 
-8.09877e-18 1.52132e-18 1 

-0.412331 -1.0077 7.25347 
0.656748 0.435293 1.59674 
3.74345e-18 5.2339e-18 1 

-0.60764 -0.0887175 -1.40197 
0.324764 0.10019 -0.103534 
-2.87879e-18 -3.89743e-18 1 

-0.737019 -0.0357578 0.888465 
-0.377985 0.210665 0.467454 
5.28774e-18 9.81404e-18 1 

-5.84649 3.00192 2.32044 
-2.55203 1.74457 0.655059 
-4.62236e-18 -6.25796e-18 1 

-1.94262 -0.570917 5.77028 
-1.66185 0.264563 1.16655 
-1.11416e-17 -7.26626e-19 1 

0.206651 -0.748107 1.53645 
0.553045 0.238669 -0.632566 
-5.77661e-18 -8.66491e-18 1 

-0.0935419 -0.0317368 0.121491 
0.0318002 -0.0458196 0.169929 
-7.14914e-18 3.33045e-18 1 

-1.39873 -0.469712 1.00916 
-0.859306 0.382386 -0.376838 
-3.53977e-18 -2.19423e-17 1 

0.104316 -0.825993 -0.133948 
0.698029 0.286695 -0.377135 
9.15136e-18 1.10048e-17 1 

-0.138861 0.529372 -0.162231 
-0.402113 0.196528 0.193239 
-1.26737e-18 -6.94943e-18 1 

-3.6397 1.76623 200.71 
0.0545577 0.392303 -5.81605 
3.04579e-18 3.57584e-17 1 

-0.23164 -0.113084 -0.0621997 
0.260989 -0.0871066 -0.0177491 
7.65443e-19 8.03715e-18 1 

-0.355836 0.0890459 -0.35077 
0.0380307 0.00310754 0.165571 
2.17137e-18 1.78736e-17 1 

-0.275392 -0.00511084 1.30206 
0.0219234 -0.0615994 2.26275 
3.0903e-18 9.76601e-18 1 

-0.262351 -0.100653 0.0192468 
-0.0232854 -0.00799728 0.075097 
-3.54336e-18 -5.41702e-18 1 

-1.34537 0.0998711 -0.698073 
0.288873 0.441516 -0.751751 
1.20177e-18 -1.87593e-18 1 

-0.835077 -0.185642 13.748 
0.0763607 0.161917 -2.59249 
6.40874e-19 1.55286e-17 1 

-0.148883 0.0562301 0.240561 
-0.0857744 -0.0462438 0.401406 
-1.16367e-17 4.12508e-18 1 

-0.110395 -0.15217 -0.194109 
0.168154 0.058085 -0.131709 
6.36907e-18 2.99992e-19 1 

-0.939814 0.818543 -1.14078 
-0.0370392 0.761847 -0.881139 
-8.18252e-18 -3.55825e-17 1 

-0.298404 -0.173138 1.61444 
0.0585268 -0.0359917 -1.72525 
-2.14329e-17 1.69677e-18 1 

-0.147381 -0.65824 -0.671411 
0.744212 0.34052 0.0421519 
-6.13917e-18 7.60017e-19 1 

-2.91075 1.9173 4.54496 
0.546621 0.501836 0.847236 
1.69473e-17 0 1 

-0.304679 -0.358506 0.858458 
0.422504 0.249761 0.559454 
2.02953e-17 1.55919e-17 1 

-0.401125 -0.138318 1.10962 
-0.176968 0.297345 -0.269692 
9.03952e-18 1.32662e-18 1 

-0.164649 0.36346 2.48044 
-0.225091 0.0927164 4.24521 
2.21867e-18 -1.11338e-17 1 

-0.880368 0.656032 -0.68857 
0.0418103 0.351156 0.206387 
-1.00325e-18 1.23838e-17 1 

-0.00221584 0.228986 0.154767 
-0.650937 0.0134194 -0.0956343 
5.28125e-18 -5.84764e-18 1 

-1.10593 0.339893 3.4433 
-0.348337 0.335804 2.50362 
7.85377e-18 -1.68258e-17 1 

-1.19322 0.72807 0.862284 
-0.0795725 0.445962 0.0809333 
-2.08831e-17 -1.73157e-17 1 

-0.901473 -0.885942 0.0190607 
0.297745 0.376706 -0.458916 
-1.21877e-17 -9.50015e-18 1 

-0.131706 0.0385226 -0.391643 
-0.0481285 0.00440342 -0.0242959 
2.14356e-18 3.80592e-18 1 

-0.653796 -0.153071 -0.532783 
-0.0297992 0.189392 0.35837 
3.45874e-18 1.95317e-18 1 

-2.00005 0.217412 -4.20834 
-1.51189 0.678532 -4.14003 
-7.52265e-18 -4.25602e-18 1 

0.0364105 -0.0209691 -0.0541972 
-0.0952735 -0.208998 0.469667 
-1.40798e-18 1.80354e-17 1 

-0.309684 0.129805 -1.1401 
0.0915018 0.07866 -3.65098 
6.38615e-18 1.17416e-18 1 

-0.332407 0.286019 -0.0850292 
-0.30467 0.0142336 0.0154333 
1.0169e-17 -8.80787e-18 1 

-0.725174 -0.775252 0.358489 
-0.476159 -0.0115013 -2.21339 
5.87588e-18 7.75456e-18 1 

-3.13053 1.24931 -6.71048 
0.189032 0.717168 -0.299349 
3.60438e-18 1.03938e-17 1 

-0.356078 -0.226305 -3.92356 
0.127986 0.219099 0.330058 
-3.73579e-18 -7.63701e-18 1 

-0.159961 -0.0248653 -0.415454 
-0.000141506 -0.0173459 -0.0111439 
-3.76325e-18 -1.02145e-17 1 

-1.78667 0.173834 -1.66445 
-0.302247 0.79709 -1.2161 
-6.87357e-18 -5.3335e-18 1 

-0.333036 0.156471 -0.0284815 
0.0563297 -0.247441 -0.2306 
-1.62912e-17 -1.34499e-17 1 

-0.0519668 -0.399799 -0.0565292 
0.359199 0.0845244 0.18266 
1.85486e-17 -1.26988e-18 1 

-0.947802 0.312753 -0.109894 
-0.0935537 0.0456212 0.302126 
2.14969e-17 0 1 

-0.302827 0.286719 0.0141041 
-0.0974481 -0.0168955 0.370759 
1.98034e-17 -1.71854e-18 1 

0.318397 0.98821 -1.0107 
-1.00931 0.917575 -0.0353808 
-6.55207e-18 -2.76868e-18 1 

-5.18572 4.86063 -2.6427 
0.562205 0.728583 -0.566432 
-1.65415e-18 3.89213e-19 1 

-0.518925 -0.221926 5.61069 
0.0919705 0.222868 3.38053 
3.12357e-18 7.76334e-18 1 

-0.625306 -0.376927 -1.66463 
0.208485 0.103953 -1.22695 
-7.83758e-18 6.53132e-18 1 

-0.289863 0.0690465 0.686198 
-0.207028 0.118359 0.515632 
-3.62533e-19 -9.45194e-18 1 

-0.37527 0.371842 -0.577026 
0.179185 0.170321 -0.198556 
-7.19309e-19 -3.01968e-18 1 

-0.0927739 0.247623 0.410589 
-0.221977 0.0183692 0.0822845 
3.60937e-18 -4.76089e-18 1 

-0.667116 0.416345 0.49149 
-0.0500619 0.181682 0.19879 
5.81078e-18 3.67621e-18 1 

-0.15454 -0.263496 -1.29163 
0.33789 0.1422 0.222507 
4.47471e-18 -4.38197e-18 1 

0.0437306 0.0311063 -0.248039 
-0.0919993 -0.0637101 -0.0644779 
-9.86482e-18 -1.76158e-18 1 

0.245361 -0.910056 -0.334906 
0.516822 0.249173 0.959043 
-1.36364e-17 -7.00989e-18 1 

-0.474904 -0.0626712 -0.292334 
0.216322 0.0863396 -0.277625 
2.36009e-17 -1.00787e-17 1 

-0.346864 -0.556613 0.925048 
0.322507 0.219109 0.215573 
3.18022e-19 8.38421e-19 1 

-0.383028 0.410618 -2.59747 
-0.230911 0.209003 -3.16161 
8.24841e-19 7.87907e-18 1 

-7.71231 5.07898 -8.64692 
-1.07136 1.08746 -2.26038 
-7.67664e-18 7.61823e-18 1 

-0.284707 0.129583 -0.878255 
-0.0368955 0.265436 -0.815241 
-1.3796e-17 -2.00359e-18 1 

-0.974091 -0.039062 1.26248 
0.272735 0.401098 0.971569 
-7.23999e-18 4.07074e-19 1 

-0.428188 -0.17289 0.949209 
0.129152 0.23613 -0.0123802 
4.55834e-18 -7.99362e-18 1 

-0.323855 0.0579654 0.460233 
-0.00617079 -0.128431 -0.453203 
-1.52512e-17 1.26217e-17 1 

-0.44294 0.235524 -0.631931 
-0.261126 0.382775 -0.636499 
2.55634e-18 -5.70612e-21 1 

-0.668366 -0.0914229 -0.21857 
0.307145 0.284193 0.276202 
6.93697e-18 -9.08982e-18 1 

-0.705996 -0.898863 1.92522 
0.227092 0.485156 -5.36775 
-9.96881e-18 6.55147e-18 1 

-0.117046 0.135326 0.236084 
-0.156866 -0.0247891 0.279794 
-9.36947e-18 -3.31267e-17 1 

0.357245 -1.15008 -1.08435 
0.596571 0.441691 0.816193 
2.62499e-18 1.12875e-17 1 

-1.32331 -0.303656 0.301256 
-0.305508 0.417375 -1.12927 
-1.691e-17 -1.49481e-18 1 

-0.19204 0.0154039 -0.839812 
0.0692372 -0.0436542 -1.02127 
-1.38786e-17 6.06373e-18 1 

-0.855896 -0.230423 2.07758 
-0.145426 0.354094 -1.43139 
2.33149e-17 1.35812e-17 1 

-0.312091 0.12597 -0.485193 
-0.160712 0.0331848 0.243908 
-4.18592e-18 1.78337e-17 1 

-0.449674 0.457425 -0.0847362 
-0.18218 0.326194 -0.329356 
-6.33889e-18 -8.84607e-18 1 

-3.00024 -2.34855 11.9486 
-0.696302 0.191009 1.02717 
7.12547e-19 6.41292e-18 1 

-0.345314 0.0158666 0.501328 
0.00251323 0.0465249 0.245782 
1.21277e-18 4.85107e-18 1 

-0.364941 -0.100065 -21.6993 
0.04875 0.133078 -1.94421 
5.37225e-19 7.33616e-18 1 

-0.335779 -0.136703 -5.43829 
0.0938213 -0.0155139 8.47843 
1.64055e-18 2.47434e-18 1 

-0.296864 -0.678998 5.29933 
1.0089 0.616828 -9.67248 
1.31103e-17 -1.25169e-17 1 

-0.484222 0.819402 -0.904257 
-0.212272 0.383385 -0.127512 
-8.41099e-18 4.50589e-19 1 

-0.277083 -0.345711 -0.000692982 
0.383738 0.200852 -0.975518 
-7.47331e-18 5.81586e-18 1 

-3.15665 6.10266 -18.0436 
-0.677967 2.50364 -7.48161 
6.33788e-18 -3.60226e-18 1 

-2.08358 -0.17603 16.0629 
0.50478 0.375452 0.877596 
-2.86254e-17 2.52508e-17 1 

-0.00905407 -0.149711 0.824981 
0.500636 0.0740353 0.295656 
-6.06891e-18 1.95346e-17 1 

-0.501266 -0.472508 -0.847062 
-0.00180559 -0.0756103 0.0954176 
-1.84582e-17 -4.74612e-18 1 

-1.32172 -4.74215 -6.01396 
-0.350518 0.0426285 -3.83051 
6.51462e-18 -1.02537e-18 1 

-1.52683 1.78437 56.9688 
-0.206829 1.00015 -32.8162 
-3.22074e-18 -8.61377e-19 1 

-1.50052 -1.80464 1.22312 
0.954854 0.885371 1.58206 
-5.90016e-18 6.28776e-18 1 

-5.32386 -3.77955 -1.53577 
1.03362 1.33757 0.452246 
-7.03565e-18 4.11745e-18 1 

-0.38303 0.0474618 0.367257 
0.0375125 0.16961 0.0812143 
4.49809e-18 -1.88759e-18 1 

-0.346034 0.265149 -0.122116 
-0.0350263 0.117105 0.223915 
-4.62871e-18 -1.48119e-19 1 

-0.658317 -0.26877 1.49605 
0.0279144 0.16222 -0.255846 
1.37455e-17 6.71683e-18 1 

-0.844733 -0.728027 -2.19277 
0.511506 0.654405 3.12885 
-1.02667e-17 -1.69502e-18 1 

-0.272874 -0.102231 0.024923 
-0.0167843 0.0522998 -0.198518 
-1.09802e-18 2.44005e-19 1 

-0.0963041 -0.311229 0.243098 
0.26856 0.0472487 -0.119126 
3.62916e-18 -6.68905e-18 1 

-0.032369 0.895487 0.264794 
-0.319089 0.41484 -0.179797 
-3.30237e-19 -1.13224e-18 1 

-0.583644 0.162085 -7.84971 
-0.609689 0.15108 2.25424 
3.49732e-18 7.2331e-18 1 

-1.81758 -1.34642 1.34613 
0.096904 0.314629 0.794936 
2.63622e-18 -2.6809e-18 1 

0.320263 -1.04018 0.902389 
1.02471 0.715237 0.787598 
2.57894e-17 -4.20337e-18 1 

0.330734 -0.89017 0.0106821 
0.843756 0.49038 -0.344723 
-4.53589e-18 -7.10623e-18 1 

-0.153908 -0.144562 -0.0177591 
0.0661584 -0.144383 -0.210059 
1.12063e-17 -3.21766e-18 1 

0.689003 -1.08178 -0.629446 
0.965958 0.995631 -0.298548 
-1.77844e-17 -1.01625e-17 1 

-4.95644 -2.73926 4.99759 
-0.512403 -0.473833 1.05201 
-2.12331e-17 5.3969e-18 1 

-0.333351 0.176021 -0.40741 
-0.0820699 0.0345088 -1.00354 
7.64844e-18 7.51235e-18 1 

-0.856669 -0.0744816 0.304489 
0.0375726 0.153365 0.321185 
-5.60958e-18 -2.67123e-19 1 

-2.24447 -0.600103 0.258706 
-0.719218 0.572349 10.757 
-1.75208e-18 1.90444e-19 1 

-0.228244 0.0492918 2.2405 
0.00340859 -0.00692263 -0.371409 
-3.20653e-18 6.38204e-18 1 

-0.854937 -0.104863 -1.20972 
0.123344 0.197043 -0.210484 
4.70442e-18 -1.44269e-17 1 

-0.697479 0.0995892 -1.67984 
-0.515552 0.159665 -0.664333 
1.40006e-17 -1.38777e-17 1 

-0.944631 0.302249 6.04915 
-0.80343 0.25666 2.30077 
4.86024e-18 -3.89442e-19 1 

-0.419024 -1.07897 0.223098 
0.623348 0.658751 0.0280677 
1.8676e-17 -3.537e-17 1 

-0.0995483 0.177832 -0.760053 
-0.177317 -0.0444735 0.437607 
-7.45317e-18 2.08228e-18 1 

-1.34209 -0.742384 1.10202 
0.140148 0.478193 0.412031 
-7.0856e-18 -1.13445e-17 1 

-2.2207 -4.17442 -4.50601 
0.165299 0.127625 -2.10313 
-2.8607e-17 2.89884e-17 1 

-1.43914 0.415527 2.59349 
-0.44795 0.457634 0.275638 
8.60419e-18 7.29269e-18 1 

-1.12003 -0.773499 -0.906589 
0.0603085 0.457694 -0.165989 
-1.69991e-17 -7.45165e-18 1 

-3.11865 -0.525744 -15.0009 
-0.136219 0.395466 1.40229 
-1.96983e-18 7.27741e-18 1 

-0.703626 0.116818 0.49577 
-0.569829 0.135121 0.709274 
1.02793e-17 1.51793e-17 1 

-1.41684 0.609742 -4.05846 
-0.249296 0.64493 1.10938 
-5.19316e-18 7.24951e-18 1 

-0.559158 -0.122222 0.794886 
0.167474 -0.0647805 0.0467606 
8.19752e-18 0 1 

0.186456 -0.491969 -0.195314 
0.456657 -0.0489518 0.384949 
-5.64962e-18 3.33841e-18 1 

-0.127927 -0.461009 0.169967 
0.896611 0.141582 0.46922 
1.13376e-17 1.96519e-17 1 

-0.0995028 -0.212166 -0.521986 
0.293144 0.0222545 -0.354679 
3.7443e-18 1.23562e-17 1 

-0.136627 -0.375468 1.18703 
0.384256 0.226824 -0.145998 
1.66195e-17 3.28073e-18 1 

-0.620672 -0.273178 -1.17018 
-0.0719491 0.28925 -0.886889 
4.01114e-18 -2.55254e-18 1 

-1.22443 -0.0969118 2.25895 
-1.23556 1.85811 -1.1191 
-7.65406e-18 1.10806e-17 1 

-7.86381 14.4421 27.4851 
-1.11194 2.20942 3.59765 
2.28341e-18 2.16924e-18 1 

-0.39926 0.023162 -0.303282 
-0.110706 0.033585 0.160455 
1.10864e-17 1.40541e-17 1 

-0.372302 -1.32581 -0.527262 
-0.0912134 -0.0154243 -0.617528 
1.36104e-18 -4.43907e-18 1 

-0.255222 0.0893725 -0.439734 
0.0104126 0.132049 0.800452 
2.63824e-18 -3.53636e-18 1 

-0.131322 -0.0369717 0.62758 
0.0104644 -0.0032147 0.0434768 
-4.60187e-18 -5.22329e-18 1 

-0.260396 -0.0246104 0.335223 
0.243764 -0.00871162 -0.143279 
-7.44893e-18 6.45172e-18 1 

0.128914 -0.605215 -0.922062 
0.488078 0.0653802 -0.505684 
1.63246e-18 -1.0134e-17 1 

-0.674546 0.728497 2.47327 
0.346553 0.199167 0.216691 
-9.60903e-18 -2.18718e-18 1 

-1.57953 0.444508 0.641072 
0.135971 0.598041 0.94077 
-5.14819e-18 3.83254e-18 1 

-0.120513 0.0584159 -0.0846444 
0.12101 -0.0883921 -0.412457 
9.2767e-19 2.23129e-17 1 

-0.382327 -0.358315 -3.049 
0.166861 0.172383 2.9546 
-6.79973e-18 -1.55988e-18 1 

-5.29387 -3.34651 -6.82496 
-0.502154 0.424848 -2.08724 
9.15441e-18 -9.86333e-19 1 

-4.037 -0.687436 -19.8846 
-0.990636 0.192728 -1.56706 
4.42713e-19 1.11199e-17 1 

-1.58462 0.912475 10.9208 
0.0314811 0.55633 1.02925 
1.96495e-17 8.07358e-18 1 

-0.464763 0.314781 -1.38125 
0.0976873 0.00572549 0.851822 
-8.45391e-18 4.47239e-18 1 

-0.2169 0.341298 -4.74379 
-0.239394 0.113303 0.898023 
1.18619e-17 -1.51278e-17 1 

-0.22983 -0.231126 -1.60192 
0.26236 0.160739 -4.10026 
6.50664e-18 -6.43514e-18 1 

-3.24584 0.900212 6.74067 
0.785598 0.572159 1.09393 
9.38052e-18 1.44058e-17 1 

-0.437199 -0.504202 0.687304 
0.41705 0.228254 -0.184937 
-5.95333e-18 -1.786e-18 1 

-0.386596 0.0995744 0.703596 
0.166225 0.0502251 0.345044 
3.34209e-18 -2.98401e-18 1 

-0.0372947 -0.443288 -1.82338 
0.458277 0.157257 -0.634451 
-3.585e-18 -1.43217e-18 1 

-0.743871 3.68337 0.11165 
-0.633548 1.17513 -0.422889 
3.18419e-18 -6.47706e-18 1 

-0.416018 1.41694 2.36374 
-0.0601798 0.430502 -0.737491 
4.49657e-18 -4.65315e-17 1 

-0.6333 -0.907656 0.328162 
0.220963 0.0744552 -0.156174 
-2.15195e-17 -1.12721e-17 1 

-1.82954 -0.190275 -0.200453 
-0.594017 0.317022 -0.392766 
-2.75855e-17 1.26286e-18 1 

-1.84098 0.188379 -8.41074 
-0.724857 0.913918 15.9781 
4.071e-18 1.78655e-18 1 

-0.842334 -0.222865 0.442609 