# vtk DataFile Version 3.0
Output file generated by Yade's KinematicLocalisationAnalyser
ASCII
DATASET UNSTRUCTURED_GRID

POINTS 13483 float
398.319 65.6269 -0.430381
491.544 95.8212 0.445192
100.001 6.10431 -0.453647
513.991 12.7296 0.425688
355.897 8.84514 -0.390472
242.805 64.8535 0.478971
132.681 7.09817 0.486324
380.436 34.3159 0.156153
349.322 26.4863 0.162643
469.393 16.9619 0.614779
171.714 12.2365 -0.118502
211.629 7.73508 0.377046
421.325 56.8136 -0.177825
421.152 16.1607 -0.130356
115.56 19.9092 0.528033
182.722 44.873 0.412096
178.564 14.3659 -0.307977
225.763 18.8393 0.509334
256.088 48.7826 0.435763
375.807 8.39681 0.57731
313.45 81.1997 -0.102811
393.606 85.3355 -0.25841
504.598 64.0558 -0.498409
450.059 83.35 0.511616
325.38 18.4114 0.374104
189.171 63.3287 -0.124045
330.226 35.8911 -0.512835
391.84 46.774 -0.270111
38.4412 18.9085 -0.625762
457.722 46.6983 -0.388722
343.215 4.82126 0.298708
14.5408 26.3441 -0.291326
498.642 82.1662 0.261378
354.377 2.48139 0.509027
70.8921 47.4185 -0.137458
345.003 43.0057 0.415655
379.991 18.7871 -0.624264
261.675 29.0608 -0.247479
352.58 46.0421 0.33711
264.071 56.2187 0.483697
198.663 14.9093 -0.426902
305.841 57.1145 0.0926283
446.862 31.6562 -0.137028
159.816 6.57469 0.413747
45.6363 8.32402 -0.0924406
57.1325 9.46881 0.273208
446.875 12.2448 -0.604557
20.7989 13.2608 0.30545
414.162 95.4347 -0.260466
438.829 51.163 0.366572
144.395 43.6116 -0.293582
481.412 86.0324 -0.119263
31.9878 34.4677 -0.115067
384.11 2.58682 0.362036
120.607 7.33154 -0.644829
401.133 77.3713 0.389502
332.495 43.3952 0.118817
150.517 0.983626 -0.230217
27.4934 2.60195 0.31116
266.751 24.0041 0.266949
425.594 101.195 -0.137264
325.176 43.7104 0.204613
289.84 0.890351 0.214565
455.116 7.74976 0.344222
22.4762 47.0481 0.261222
205.006 53.9945 -0.32034
470.891 9.4134 0.560973
429.611 92.8281 0.349998
295.217 15.7088 -0.649986
390.002 14.8133 -0.400316
474.777 71.1423 0.414395
110.404 7.81837 -0.261857
345.454 28.1422 -0.153216
338.524 13.9215 -0.436933
233.583 25.558 -0.510557
18.0681 15.2431 -0.304148
493.818 70.5821 0.309333
247.464 52.8074 0.315762
440.627 47.4141 0.334684
448.001 21.4287 0.319342
499.947 34.1228 -0.343156
326.42 47.6529 -0.216269
82.9598 45.3788 0.293505
445.687 93.412 0.216207
415.427 70.9696 -0.13079
508.986 68.11 0.142968
514.514 0.809191 -0.677399
228.306 42.7088 0.438849
413.552 6.73975 -0.207753
21.6055 6.98148 0.664563
111.837 42.3483 -0.167829
368.072 16.0248 0.332013
489.393 56.5492 -0.499401
162.107 35.0697 0.24375
40.0428 43.6807 -0.297438
353.272 1.12945 0.145781
194.462 8.8967 -0.505923
466.1 93.8935 -0.262329
486.311 65.9379 0.268409
263.821 39.4531 0.283638
140.649 34.9486 -0.455839
358.464 69.7295 -0.470542
277.928 39.669 -0.524897
305.749 66.1064 0.0991962
278.487 21.457 0.4535
362.902 31.4136 0.0959598
511.784 27.2094 0.283958
72.1256 42.179 -0.435067
260.954 7.07011 -0.4495
375.521 33.8435 -0.485877
265.601 71.8644 0.438981
21.5817 26.7066 -0.557994
26.1106 5.8499 0.515828
378.54 65.4485 0.439155
354.282 25.9085 -0.191776
22.5906 40.519 0.432633
83.7039 35.1127 -0.226314
251.992 18.8675 -0.411543
403.272 35.0067 -0.137125
329.263 63.1804 0.298329
484.322 7.35761 -0.605858
477.207 8.12909 -0.328363
293.295 73.2969 0.0981155
418.524 42.7798 -0.129593
196.88 17.1662 0.59203
258.067 5.4537 0.650489
93.2754 39.1687 -0.311096
97.9249 26.6395 0.268163
353.795 68.4072 0.0705602
239.589 19.4482 0.678067
445.038 60.0279 -0.0997235
433.856 96.0441 0.107317
341.256 20.7613 -0.467678
478.888 38.5707 0.332878
301.768 42.8517 0.293653
219.896 35.7476 0.331603
435.114 78.5571 -0.276981
221.941 44.4227 0.374558
389.419 38.4963 -0.232992
249.378 48.3395 -0.201099
363.285 13.4005 0.627385
278.205 60.783 0.0898615
306.889 23.9359 0.179452
247.189 72.5672 -0.435527
156.761 36.3447 0.129421
492.8 90.6713 -0.144818
509.413 29.3253 -0.289195
5.80276 13.0473 0.544149
308.871 30.3418 -0.482181
34.3455 27.7414 -0.0860738
284.621 65.3081 -0.453183
289.386 50.7765 -0.264268
62.9007 13.4369 -0.590862
45.4361 44.0598 0.425826
187.494 15.3412 0.510654
402.188 47.8624 0.514544
385.126 51.9202 -0.478222
62.0057 25.1468 -0.516659
452.633 80.1523 0.42727
506.577 4.19199 -0.571755
427.278 84.1242 0.34831
451.042 1.71417 0.642064
366.454 57.3881 0.400241
394.93 86.3264 0.446935
371.158 19.715 -0.55711
512.235 11.6616 0.291614
187.613 30.258 0.121894
107.138 39.9726 -0.220491
205.341 7.97563 0.6414
79.2281 5.78056 -0.291269
53.768 11.4261 0.303163
220.935 54.2985 -0.338484
15.3487 28.5509 -0.381384
371.79 44.7607 -0.408493
415.947 90.7274 -0.195914
331.284 25.1093 -0.422024
512.54 92.4668 0.35042
291.248 11.5085 0.202665
302.472 48.7886 -0.486338
390.64 4.03422 -0.436341
20.289 26.3991 0.418591
388.121 22.6287 0.40822
397.661 7.21525 0.433242
171.086 15.1451 0.548496
303.906 23.4533 -0.280697
244.969 6.04867 0.494442
287.216 41.6214 -0.450702
464.599 80.0053 0.111691
159.551 32.9815 -0.46867
494.988 24.3254 -0.496746
468.152 79.1851 0.313821
282.32 31.8462 -0.182146
469.906 2.47906 -0.48632
400.966 41.8587 -0.562618
489.806 17.8291 -0.60116
314.015 61.3889 -0.324386
358.741 13.9564 0.535763
320.002 64.7926 -0.289802
319.773 11.4891 -0.136183
430.745 85.8773 -0.267165
431.311 81.6923 -0.307655
161.674 48.551 -0.349947
497.77 34.1472 -0.165287
396.766 87.7289 0.241726
9.23745 19.3774 0.256381
293.943 51.988 0.40406
155.611 29.3353 -0.457873
83.5882 47.1675 -0.212288
486.897 55.0892 -0.430825
422.102 85.2249 -0.23905
249.032 30.7482 0.421419
387.851 9.89918 0.415549
74.1579 49.5517 0.169979
200.538 34.8512 -0.502306
371.728 50.6095 0.340773
350.792 19.6476 -0.627316
217.925 0.865204 -0.440556
367.223 72.9021 -0.396572
346.593 66.7749 -0.380982
339.474 69.8978 0.41388
362.775 2.47829 -0.651592
456.709 20.6782 0.478462
152.236 16.8724 -0.2015
354.124 79.2557 0.431091
377.385 73.5134 0.123381
62.0133 0.899092 0.365034
209.809 5.47617 0.220147
509.04 32.8004 0.215716
500.156 36.1488 -0.467569
514.041 32.4873 -0.653707
238.067 8.9727 -0.252374
465.587 44.516 -0.512326
318.849 84.1145 -0.30908
318.852 0.836238 0.639802
421.418 72.1736 -0.489828
23.7739 34.2341 0.331093
248.602 55.7693 -0.196218
211.082 4.0274 0.568952
500.302 78.1057 0.182421
455.644 73.8582 0.244011
228.375 19.4529 0.151431
428.598 69.5333 -0.0911999
400.244 5.52008 -0.380152
394.719 10.7492 0.564507
82.2385 19.9817 0.497869
238.361 1.03501 -0.367866
267.765 2.89178 0.595611
12.2177 9.23043 0.648776
4.81297 35.2317 0.238004
137.323 20.0474 0.426402
62.4865 47.159 0.236523
57.1385 35.2723 0.33332
302.867 20.8065 -0.606421
278.931 69.2112 -0.560061
478.495 90.6859 -0.114379
17.5586 5.37999 -0.295275
59.2161 6.87531 0.168492
407.257 55.2484 -0.169543
231.358 0.931636 0.597183
268.156 34.2364 -0.0696985
196.73 4.92242 0.467135
425.863 38.7379 0.193756
322.696 10.8329 -0.530853
487.294 29.6981 -0.465127
418.128 45.3115 -0.402551
440.282 45.4023 0.0871703
300.985 54.8211 0.556118
87.6152 57.3637 -0.305235
356.752 73.5069 0.0711653
488.212 12.8232 0.405846
194.749 42.5282 0.225525
28.589 22.1141 0.168672
263.478 17.0865 0.660414
95.1629 55.1946 0.317874
217.781 61.6555 0.190644
304.674 5.71026 -0.256694
490.088 60.4607 0.455065
445 4.75095 0.622775
260.915 5.76456 0.7032
237.052 38.8043 0.186975
321.581 61.7461 -0.232607
69.0492 9.83217 -0.593314
168.16 52.0893 -0.444936
485.535 70.9933 0.373192
348.778 80.6521 -0.0650128
168.004 46.6374 -0.275999
134.852 51.297 0.481519
515.491 59.8892 0.432363
511.085 28.6208 -0.585309
406.823 6.31072 -0.612151
157.898 32.2113 0.0965895
368.335 56.796 0.109953
369.1 59.5546 0.280457
296.6 9.75714 -0.246019
348.56 1.0313 0.536934
479.544 95.8051 -0.485614
78.7634 34.9002 -0.223322
429.581 38.2914 -0.510932
218.468 27.7511 -0.451746
8.54015 2.51527 0.491678
106.816 43.2704 0.21755
55.9483 26.592 0.503225
441.97 70.4044 0.308802
506.925 85.5098 -0.161889
156.274 38.4961 -0.178196
508.842 35.313 -0.380373
40.5919 46.2313 0.243755
81.9049 34.3471 0.1674
428.522 17.5395 0.474447
297.659 24.3272 -0.564512
378.139 18.5559 -0.220879
195.359 40.6476 -0.194325
420.129 4.6357 -0.634195
514.037 27.4814 0.466851
27.4785 36.0437 -0.263993
215.115 17.8567 -0.21489
185.95 16.1838 0.404926
1.07304 40.5007 -0.165265
188.609 15.8314 -0.436652
176.248 12.7435 -0.274693
182.574 30.0731 -0.330957
113.065 32.6057 -0.116479
367.81 38.9584 -0.294722
142.766 15.4613 0.438455
496.204 82.9145 0.261236
150.642 5.63425 0.642906
41.7723 49.2064 -0.357161
458.294 87.6952 -0.463795
224.705 47.5028 -0.381297
443.982 52.5012 0.471551
495.404 62.607 -0.54574
236.49 10.22 0.215056
465.521 58.4132 -0.388064
259.083 2.35467 0.637428
303.468 36.5862 0.428993
446.067 46.6574 0.497024
90.6989 13.1141 -0.572677
350.603 3.85184 -0.545664
475.774 35.0313 -0.239412
74.3432 8.73955 0.258484
225.683 25.4541 0.21481
303.434 18.9055 -0.459893
511.891 15.543 0.645467
295.31 0.797959 -0.512212
150.684 54.3862 0.306139
490.707 10.1999 -0.525452
108.959 40.9956 0.185491
211.437 47.747 -0.407297
293.089 48.594 0.198775
389.865 41.5707 0.515955
286.059 28.349 -0.621066
322.359 35.546 -0.488949
491.43 94.2801 0.359636
39.9599 12.9996 -0.169858
240.157 54.1947 0.315986
282.922 53.6864 -0.400071
296.056 27.164 -0.283493
337.584 58.0394 -0.412446
472.855 95.9576 0.227625
436.398 85.1958 -0.357181
188.109 48.2942 -0.415821
10.466 36.6758 0.162836
429.828 80.3581 0.140688
365.67 81.2328 0.408798
191.474 53.7265 0.098229
436.545 76.9872 -0.132548
130.164 9.6268 0.199308
271.479 43.2539 0.302755
321.852 63.761 -0.129936
297.727 26.1987 -0.284574
489.92 99.7994 0.290772
306.104 8.12491 0.59668
44.5506 33.8603 -0.298746
328.864 53.8877 0.388901
304.515 53.7011 0.370999
495.666 75.4759 0.23642
461.459 49.9044 0.256134
362.079 42.1892 -0.141068
488.82 84.4555 -0.515899
231.845 3.58181 -0.51256
285.127 63.1529 0.502804
25.2878 42.8188 0.338161
471.867 63.4917 0.176786
413.248 25.7356 -0.594909
332.031 0.77236 -0.573016
107.604 4.75646 0.388153
312.461 63.3956 -0.11232
10.8882 0.874884 -0.387187
509.487 16.6654 0.118663
281.348 77.1113 -0.395142
[...]
POINT_DATA 13483
TENSORS Strain_matrix float
-1.91596 2.65493 13.5391 
-0.918419 1.3098 0.426688 
1.74453e-18 5.7111e-18 1 

-2.55189 0.326484 48.8907 
-0.161721 0.674788 14.6006 
5.48094e-18 -7.55581e-18 1 

-0.28081 0.00466653 0.969308 
0.104642 0.0662023 -3.00937 
8.39377e-19 1.68914e-17 1 

-2.25909 -2.15207 0.403786 
0.787055 1.10138 0.0228911 
-9.13664e-19 2.26513e-18 1 

-0.611813 -0.397769 0.171993 
0.0615893 0.0593399 -0.29386 
3.57635e-18 -4.89395e-18 1 

-0.503185 -0.721922 -20.0437 
0.165439 0.41098 -28.449 
-2.06723e-18 -9.01181e-18 1 

-0.189942 -0.00737762 -0.288436 
-0.0525412 -0.0819177 0.350041 
2.12203e-17 -1.31674e-17 1 

-0.330719 -0.131638 -1.75094 
0.309659 0.187638 -0.0496884 
1.51025e-17 5.86199e-18 1 

-1.11972 -1.98664 -2.61328 
0.184096 0.613179 -0.25999 
9.02299e-18 -6.84262e-19 1 

-0.537701 -0.148418 2.32007 
0.267603 0.14081 -1.5883 
2.32841e-18 -1.01471e-17 1 

-0.41403 0.0772624 -1.31158 
-0.0816544 0.111539 0.443432 
-1.37919e-17 5.31736e-18 1 

-0.341918 -0.139995 -0.29947 
0.0776071 -0.00588855 -0.973147 
1.42678e-18 -1.55771e-17 1 

-1.29335 -0.319145 -1.01115 
-0.0799326 0.532925 -0.784751 
-3.66022e-18 -5.46189e-18 1 

-0.582111 0.156328 0.597372 
0.144603 -0.0214684 -0.248318 
4.75451e-18 1.52144e-18 1 

-0.143917 -0.132903 1.08056 
0.175641 0.00442997 0.541567 
-4.34955e-18 1.15916e-17 1 

-0.627825 -0.911146 0.388806 
0.947656 0.698652 -0.303969 
6.09168e-18 0 1 

-0.170266 0.213177 -0.153263 
-0.230883 -0.0723252 0.18067 
-1.29605e-19 7.12829e-18 1 

-0.690688 0.490999 1.41539 
-0.461691 0.264299 0.563754 
1.20029e-17 9.70825e-18 1 

-0.797332 0.182365 -0.963072 
0.550058 -0.00510449 -0.704365 
-1.21986e-17 -1.37702e-17 1 

-0.367199 0.0365251 1.23774 
-0.18351 -0.0122332 1.49586 
5.72111e-18 -9.78888e-18 1 

-0.0174088 0.454614 0.257751 
-0.296356 0.0544142 -0.233277 
1.98353e-17 8.50657e-18 1 

-0.0632432 -0.513493 -0.259609 
0.383691 0.125509 -0.332348 
3.81874e-18 5.89929e-19 1 

-1.03862 -0.268832 1.86696 
-0.295116 0.313997 0.696527 
-3.58571e-18 -8.87885e-19 1 

-0.664536 0.818118 -118.299 
-0.501624 1.25236 29.1567 
7.24697e-19 -2.70773e-18 1 

-0.690925 0.231967 -0.51597 
-0.442075 0.364876 0.331398 
-2.05299e-18 1.4223e-17 1 

0.139762 -1.43238 -2.32907 
0.451672 1.51705 -2.70942 
1.45092e-17 -1.39512e-18 1 

-2.66914 -0.107887 -3.96666 
0.042402 0.79442 0.0637564 
-6.98141e-18 1.20422e-17 1 

-0.621122 -1.19646 4.48852 
-0.241282 0.045261 2.56775 
-4.80257e-18 1.44077e-17 1 

-0.358554 0.117779 0.856547 
0.0700112 0.194231 6.35696 
3.97387e-19 -2.96715e-18 1 

-3.52356 -6.07412 -6.47776 
0.940433 1.65322 1.45673 
-1.20009e-17 -2.40019e-18 1 

-0.146077 -0.290484 -0.0863013 
0.281212 -0.124951 0.374402 
1.08057e-17 -8.3358e-18 1 

-0.52295 0.311756 -1.20822 
0.083819 0.218008 -0.320835 
5.52977e-18 8.12652e-18 1 

0.0784386 0.685751 -1.23706 
-0.587934 0.267666 2.29116 
1.9796e-18 -1.42172e-17 1 

-0.628066 -0.221057 -0.140123 
0.110831 0.285762 -1.05737 
6.2143e-18 -4.88267e-18 1 

-0.327213 -0.0115286 1.01717 
-0.0663006 0.0994099 -0.441635 
5.6265e-18 -1.08819e-17 1 

0.263324 -0.823935 -0.207542 
0.844334 0.396126 0.235336 
-1.75186e-18 -1.68405e-17 1 

-0.678937 -1.3527 37.6006 
0.0114166 0.71495 -11.7058 
-1.74499e-18 -1.39264e-17 1 

-0.864308 -0.864641 -0.61656 
0.11701 0.384745 0.215367 
8.91745e-19 -3.889e-18 1 

-1.10707 -0.065219 1.19382 
0.696008 0.720041 2.45102 
-1.87326e-17 -1.30729e-17 1 

-0.133043 -0.134078 -16.584 
0.690704 0.137066 1.27171 
2.26642e-18 -7.68565e-18 1 

-0.418564 -0.443327 1.62728 
0.274152 0.180406 -0.440893 
-1.49935e-18 -1.5942e-17 1 

0.918023 0.799572 -4.50934 
-1.14077 1.43077 -4.72782 
-6.76699e-18 1.17687e-18 1 

-1.08903 -0.443723 -0.67542 
-0.369988 0.123905 -0.198914 
4.20516e-18 -2.49194e-18 1 

-0.407029 0.309438 3.58605 
-0.35833 0.18891 0.78936 
5.16489e-18 6.09458e-18 1 

-0.257438 -0.0752616 -0.152854 
0.227272 0.0959268 0.204967 
-9.45563e-18 4.95658e-18 1 

-0.341532 0.0919807 -0.820268 
-0.108354 0.0922837 -0.928564 
-2.89757e-18 1.41976e-17 1 

-1.43953 0.727203 0.601516 
-1.60634 0.960442 1.9534 
6.74846e-18 -1.67689e-17 1 

-0.0588636 -0.0227236 -0.0118819 
0.019406 -0.174322 0.0571325 
5.81286e-18 4.65029e-18 1 

0.00375717 -0.336699 -0.15093 
0.377453 0.111332 -0.261836 
-1.44102e-17 1.67291e-17 1 

-0.206838 -1.31561 1.31798 
0.663715 0.449213 0.835448 
-1.20985e-17 2.37008e-17 1 

-0.848079 0.325049 2.16405 
0.12755 0.461466 1.16013 
3.09189e-18 3.35503e-18 1 

-3.03893 -2.04228 -12.958 
-0.11549 0.67703 0.466392 
-9.53334e-18 4.53968e-19 1 

-0.0713903 0.187796 0.452432 
0.265544 -0.0191611 0.622114 
-1.36979e-17 -1.92327e-17 1 

-0.498285 0.0469567 -0.163219 
-0.0528098 0.0281147 -0.342852 
1.97802e-17 8.09657e-18 1 

-0.334243 -0.0448809 8.04144 
-0.0353068 0.0833408 -9.70139 
2.67437e-18 -2.45262e-20 1 

-1.83415 0.981496 -24.353 
0.146891 0.410171 -8.03029 
3.14642e-18 5.62296e-18 1 

-7.88035 2.2453 -4.35224 
-1.28557 0.679537 2.54936 
-1.37209e-18 5.24194e-18 1 

-0.569018 2.8654 5.29269 
0.0207717 0.446811 -0.284135 
9.85337e-18 1.61765e-18 1 

-0.172056 0.284824 0.0829314 
-0.0946696 -0.108611 0.0800978 
-1.0063e-17 -7.39325e-18 1 

-0.933622 -1.09594 -6.70558 
0.207083 0.335331 0.341139 
5.36988e-18 3.7627e-18 1 

-0.502705 -7.16766 4.26734 
-0.0321848 1.19123 -0.797638 
1.93095e-18 -9.2457e-18 1 

-0.857845 0.180696 -1.20122 
0.471354 0.222033 -0.0606319 
-6.87747e-18 1.03162e-17 1 

-0.454667 -5.52396 1.17368 
0.0444904 0.131496 -0.0564545 
6.99251e-20 -6.17205e-18 1 

-0.287138 -0.0123805 -0.233999 
0.0102335 -0.00806217 0.29726 
-1.1468e-18 1.00778e-17 1 

-0.80533 -0.181821 1.11646 
0.07232 0.297263 0.915081 
9.56078e-18 3.10219e-19 1 

-1.00665 -0.216767 -1.94858 
-0.0289875 0.584592 0.0389438 
-1.95794e-18 6.79094e-19 1 

-0.605343 -0.00690562 1.83925 
0.284471 0.180292 -1.4898 
1.66659e-17 7.25771e-18 1 

-4.8983 2.56029 65.3496 
0.285381 0.722678 6.05255 
7.99482e-18 1.33126e-17 1 

-1.2396 -0.482207 15.0364 
0.203698 0.235587 18.312 
-3.78007e-19 -1.71792e-17 1 

-6.42692 -8.71157 -0.906812 
2.0705 3.36863 -1.35836 
-1.45794e-17 1.73246e-17 1 

-4.21974 1.65809 2.27003 
0.803681 0.373863 -3.82936 
-1.27371e-17 1.14594e-17 1 

-0.187703 0.111308 0.0538625 
-0.0807343 -0.0347224 -0.140679 
2.74691e-18 1.64815e-18 1 

0.0177952 -4.17359 -3.84623 
0.331021 0.113636 -1.41065 
-1.71474e-17 -4.74834e-18 1 

-0.368971 -0.156686 -0.142584 
-0.0115306 -0.117527 -0.19703 
-1.52034e-18 3.89657e-18 1 

-0.861646 0.576619 1.08498 
-0.652585 0.540483 0.16972 
-4.30779e-18 -2.81541e-18 1 

-0.145916 0.0378577 0.116983 
-0.181779 -0.0964684 -0.141423 
3.56377e-18 1.50187e-17 1 

-2.7366 0.29264 -3.03604 
-0.0620426 0.699532 -1.38511 
-1.43766e-17 -5.74452e-18 1 

-4.63891 4.06992 11.5926 
-2.15113 2.03775 0.300348 
8.1662e-18 9.3004e-18 1 

0.0509282 -0.830143 -0.826011 
0.704093 0.406081 0.21389 
2.25791e-17 2.89905e-18 1 

-0.97637 0.426028 0.297043 
-0.45119 0.423031 -1.11573 
9.62314e-18 -1.83298e-17 1 

-0.285321 -0.0406549 -0.11192 
0.145757 -0.0805686 0.335063 
-1.9519e-17 6.43034e-18 1 

-0.11382 -0.340869 2.44505 
0.693706 0.315497 0.441669 
2.15274e-18 1.95317e-17 1 

-0.136102 -0.4712 -0.157121 
0.521111 0.256857 0.943117 
-8.39762e-19 -5.589e-18 1 

-1.10225 -0.019878 4.00872 
-0.258525 0.569871 -0.312144 
3.5099e-18 2.82318e-18 1 

0.110213 -1.20504 0.323141 
0.615474 0.569592 0.495322 
1.20202e-17 6.44198e-18 1 

-0.390875 0.654374 0.794771 
-0.526162 0.427715 -0.511566 
6.55912e-18 8.47631e-18 1 

-13.0554 10.1855 48.558 
0.0499465 0.133857 0.512308 
6.33644e-18 -2.60932e-17 1 

-0.705688 -0.148305 1.70818 
-0.109127 0.204224 -0.0483061 
-9.95251e-20 1.84122e-18 1 

-0.316297 0.143309 -0.404395 
-0.1511 -0.0353569 0.126123 
1.65769e-17 -8.97915e-18 1 

-0.334073 0.101798 -1.68969 
-0.0212509 0.0254962 0.706386 
3.93363e-18 1.89606e-18 1 

-0.0851584 0.121889 -0.0197491 
-0.218201 -0.0637582 -0.149498 
1.02371e-17 1.09684e-17 1 

-0.46856 0.187537 0.0308819 
-0.19791 -0.0631503 0.467752 
1.58915e-17 -5.43861e-18 1 

-1.53168 -0.111004 4.24951 
-0.275016 0.42296 2.11368 
-1.94042e-18 1.4061e-19 1 

-0.0275825 -0.27399 -0.752155 
-0.14486 -0.203589 0.837782 
-7.46516e-19 7.96284e-18 1 

-0.0659836 -0.315372 0.465679 
0.389848 0.140231 -1.17056 
7.23696e-18 1.1266e-17 1 

-0.298048 0.49968 -0.799219 
-0.00966003 -0.0648716 0.0604279 
-7.49836e-18 -4.07054e-17 1 

-0.261718 0.00603685 -0.20118 
0.107545 -0.0561655 0.0581572 
2.28385e-18 8.76506e-18 1 

-0.127693 -1.19784 1.08358 
0.749234 0.739056 0.390062 
8.12802e-18 7.58231e-18 1 

-3.63918 -0.567037 -1.33998 
-0.33917 0.871592 -0.465982 
5.08339e-18 -1.7192e-17 1 

-1.93756 -0.217777 -2.22449 
0.351819 0.575672 -1.26637 
-6.32768e-19 -9.61016e-18 1 

-0.586751 0.35871 11.6532 
0.151179 0.191499 3.80002 
-5.49633e-18 -1.04579e-17 1 

-1.80533 2.05771 -44.0106 
-0.211175 0.449051 -8.00192 
5.02155e-20 4.99644e-18 1 

-0.425902 -0.0962942 0.768282 
0.0575899 0.0956258 9.55044 
3.18239e-18 -1.77304e-19 1 

-3.21976 4.35894 -0.286452 
-0.544021 1.20216 -1.14575 
2.38644e-18 0 1 

-3.86214 -2.58175 4.20562 
2.47766 1.44453 0.0180119 
2.85114e-18 5.15558e-18 1 

-3.00729 -4.74549 4.39812 
1.706 2.37533 1.17211 
-1.14074e-17 -1.10905e-17 1 

-0.929413 0.00706988 -0.170324 
-0.146083 0.236957 -0.216819 
-1.18244e-18 7.09462e-18 1 

-0.132976 0.0200308 0.925457 
-0.117862 -0.0676026 -0.163064 
-4.14957e-18 -6.50914e-18 1 

-0.6962 -0.00011591 -0.357795 
0.114872 0.0971305 0.467247 
7.42839e-18 6.82127e-18 1 

-0.492252 0.0980383 -0.238085 
0.0811918 -0.0281046 -1.40188 
1.03464e-17 -7.89596e-18 1 

-1.3857 1.2019 39.3637 
0.369566 0.647597 6.17499 
-8.35466e-18 -9.11417e-19 1 

-0.275006 -0.0305754 4.30265 
0.0735132 0.0853527 0.499044 
7.18107e-18 7.93334e-18 1 

-0.366079 0.138785 -0.62727 
-0.122011 -0.0095416 0.985703 
3.08244e-18 4.69996e-18 1 

-0.525428 0.590376 -0.165642 
-0.0371115 0.223281 -0.796201 
3.17477e-18 3.63776e-18 1 

0.815572 -3.00262 1.60155 
0.316285 0.175983 -1.46137 
6.01355e-18 2.19442e-18 1 

-0.151974 -0.13971 -0.956217 
0.132282 0.0527323 3.11226 
-8.90447e-18 -1.25313e-18 1 

-0.494496 0.816268 1.11502 
0.102028 0.265622 0.805129 
3.71448e-18 -4.98495e-18 1 

-0.628448 -0.0918231 -0.192359 
0.225502 0.157225 0.325986 
1.5948e-17 -1.37687e-17 1 

-1.53351 -1.51679 0.663348 
-0.402002 0.247266 -0.346816 
-1.00918e-18 4.32191e-18 1 

0.312383 -0.783041 0.0354756 
0.896134 0.387384 1.13898 
-4.75849e-18 -3.43669e-18 1 

-0.764701 -0.0271873 -0.219915 
0.1432 -0.0751382 -0.1129 
1.20868e-17 6.90673e-18 1 

-0.476846 0.411422 0.429802 
-0.776658 0.157399 0.44672 
-1.61399e-18 0 1 

-0.0533568 -0.172056 0.00744235 
0.172461 0.0248933 0.238581 
4.00141e-18 -4.69987e-19 1 

-1.5423 -0.411135 1.35942 
0.111059 0.595323 -0.402876 
-1.51411e-18 4.31722e-18 1 

-0.534 -0.346675 0.985828 
0.296207 0.238388 0.913996 
-1.94195e-18 -1.32079e-17 1 

-0.561119 -0.200384 -0.823678 
0.145685 -0.0786806 -1.37547 
8.54102e-18 -9.96452e-18 1 

-1.29259 0.160355 8.20864 
0.204557 0.480848 -0.944221 
8.37322e-18 -1.59005e-17 1 

-0.471986 0.119415 0.341523 
-0.296778 0.297095 1.28166 
2.87267e-18 1.77148e-17 1 

0.0736141 -0.469921 -0.0790467 
0.466436 0.0460739 -0.161681 
-5.51396e-18 -4.09881e-18 1 

-0.847279 0.0659217 6.21859 
-0.0111932 0.250484 26.9352 
2.77049e-18 1.04311e-18 1 

-2.49794 -3.24323 2.60747 
-0.769094 -0.604134 0.439949 
1.25288e-18 1.74582e-18 1 

0.228213 -0.632139 -0.201588 
0.788917 0.287237 0.0273488 
5.13171e-19 8.17866e-18 1 

-0.643607 -0.48609 -1.32464 
0.140593 0.307951 0.640603 
-9.22547e-18 4.05671e-18 1 

-0.670427 0.447216 0.64094 
-0.459264 0.305565 0.963324 
5.36182e-18 -1.64715e-17 1 

-3.65475 -2.96607 7.12567 
-0.880909 0.0432715 1.94603 
8.18173e-19 4.36359e-19 1 

-0.364088 0.222281 -0.296773 
-0.247085 0.305731 2.37124 
5.30855e-18 -4.77952e-18 1 

-5.3816 1.39265 16.8936 
0.175542 0.979337 0.7106 
1.14017e-18 1.4711e-17 1 

-0.7288 -0.26917 0.290354 
-0.0897007 0.42746 2.87197 
3.0957e-18 4.36091e-18 1 

-1.61723 0.390949 1.61427 
-0.292321 0.511708 -0.424176 
-3.20092e-18 2.81681e-18 1 

-0.0444664 -0.356192 -0.0491552 
0.301867 -0.0169425 -0.10022 
1.05723e-17 -2.36133e-18 1 

-0.3605 -0.255776 -0.423807 
0.202866 -0.00430151 0.215688 
-5.77503e-18 2.6635e-17 1 

-1.80521 1.14523 2.67247 
-0.0124774 0.676686 0.123695 
-1.75456e-17 -4.13718e-18 1 

-0.273822 0.0868959 0.220829 
-0.03508 -0.00420454 -0.491676 
1.70735e-17 8.09432e-18 1 

0.0225253 -0.0453124 -0.262808 
0.156834 -0.0489238 0.593588 
8.2347e-18 -8.51865e-19 1 

-0.511078 0.20542 2.16305 
-0.725118 0.365392 2.12638 
-2.45936e-18 5.05727e-18 1 

-0.129222 0.703121 0.254897 
-0.553912 0.375774 -0.259972 
-3.03332e-19 5.01509e-18 1 

-0.885409 -0.000447829 0.213643 
-0.427434 0.263226 -0.550167 
1.9839e-17 3.40983e-18 1 

-0.283443 -0.066063 -1.31717 
0.224189 -0.0253874 0.322034 
7.30435e-18 -1.54589e-19 1 

-0.580989 -0.0363626 -1.51915 
-0.653698 0.105374 1.06216 
1.31047e-18 -4.32702e-18 1 

-0.0424135 0.111361 -0.0808549 
-0.199924 0.0216679 0.762938 
-2.45564e-18 -5.31548e-18 1 

-0.916404 0.979978 10.7499 
0.2008 0.350692 3.36188 
3.11145e-18 -4.3832e-18 1 

-1.41408 -0.315813 -4.63371 
-0.0745842 0.606997 1.00206 
-4.62595e-19 -6.94337e-18 1 

-0.38696 -0.029887 -2.06246 
0.0315717 0.116826 -5.80314 
1.19978e-17 1.11107e-17 1 

-0.624514 -0.00871481 -0.214421 
0.0868171 0.273326 -2.35555 
-1.45581e-17 -6.7812e-19 1 

-0.37514 0.176995 0.721527 
-0.172871 0.0467895 -0.926626 
-2.62252e-18 -4.54144e-18 1 

-1.38301 -0.90569 0.706068 
-0.77728 -0.693929 -0.143734 
-8.40356e-18 1.3546e-17 1 

-0.671528 -0.808992 4.85841 
0.167883 0.240886 2.29628 
-7.34036e-19 -1.45491e-17 1 

-0.300425 0.195876 -10.7599 
-0.0861851 0.190273 -5.15206 
4.2433e-18 -1.38926e-18 1 

-1.99458 0.741369 -11.2298 
-0.509503 1.14369 11.4307 
2.77157e-18 -8.90415e-18 1 

-1.74511 -1.04078 0.800826 
0.618368 0.561213 -0.00542885 
3.35135e-17 3.02579e-17 1 

0.197971 -0.761865 -0.184937 
0.636007 0.303195 0.719743 
-1.02636e-17 2.21199e-18 1 

-0.454884 -0.302323 5.65967 
0.028398 -0.326289 0.88175 
1.10764e-17 -1.09246e-17 1 

-0.799257 -0.525758 3.37973 
-0.0832468 0.176032 0.244292 
-9.23545e-18 2.66962e-18 1 

-1.16538 1.39891 -25.4478 
0.179156 0.611884 7.57046 
1.09944e-18 3.66284e-19 1 

-0.941622 -1.29287 11.7702 
0.344595 0.502192 -3.6683 
-9.94593e-18 1.52793e-17 1 

-6.53654 -2.08523 13.1942 
-0.406849 0.465702 0.606348 
-8.82183e-18 -1.70779e-17 1 

-1.19051 -0.134218 -1.03489 
-0.202393 0.545345 -1.89384 
-4.20394e-18 7.49106e-18 1 

-0.41117 0.295769 0.619786 
0.0152687 0.130434 0.62136 
-2.54824e-18 -1.61395e-17 1 

-0.348324 -0.0412454 0.217667 
0.0968275 0.0595197 0.176084 
-1.12029e-17 -4.00243e-18 1 

-0.352645 -0.28048 -0.186718 
0.167576 0.0692546 0.025344 
6.33431e-18 1.56814e-17 1 

-0.368912 -0.143568 -0.447922 
-0.157483 0.0640183 -0.494397 
-7.44761e-18 2.56011e-18 1 

-0.176726 0.104597 0.452213 
-0.179368 0.0395175 1.63027 
-1.58238e-17 -4.12549e-18 1 

-0.752701 -0.0747397 3.45109 
0.136149 0.23378 -1.44505 
4.29985e-18 -9.7126e-18 1 

-0.0182198 -0.965441 2.74072 
0.0626956 0.0157874 -0.763872 
-4.67739e-18 -1.79687e-17 1 

0.0365504 -0.412782 0.0193777 
0.434593 0.0536225 -0.251282 
-7.00135e-18 3.52598e-18 1 

-0.810915 -0.770825 0.981447 
-0.574986 0.22252 1.09101 
3.07386e-17 -8.0718e-18 1 

0.193698 -1.22593 -0.130876 
0.854152 1.01699 -0.0026955 
3.17793e-18 2.05442e-18 1 

-0.207976 -0.979251 0.405126 
0.465283 0.208666 -0.45948 
1.22047e-17 -7.19314e-18 1 

-0.194107 0.457575 -8.61764 
-0.671573 0.195673 -10.2088 
-1.40085e-17 4.87448e-18 1 

-0.592443 -0.146353 0.573692 
0.351929 -0.0125457 -0.0413675 
-2.91274e-18 -1.14689e-18 1 

-0.374111 0.0490626 0.23884 
-0.0964575 0.11289 0.371078 
-1.87879e-18 1.4947e-17 1 

-1.63169 -0.803278 3.23107 
0.00869351 0.814979 -1.7013 
-1.36806e-18 -4.70868e-18 1 

-7.12575 -10.2774 -9.90667 
0.686951 1.0114 0.691736 
2.60736e-17 2.5535e-18 1 

-0.180855 0.317192 0.330297 
-0.292501 0.0777232 -0.294592 
1.89905e-17 -4.55771e-18 1 

-0.634888 0.410829 -0.635855 
0.135168 0.053686 -0.430882 
4.61034e-18 8.87599e-18 1 

-0.391292 0.0116952 -0.94296 
0.113835 -0.040335 0.206411 
-2.36627e-17 2.25111e-17 1 

-0.481061 0.217471 -0.86435 
-0.71509 0.169562 0.490985 
5.70344e-18 8.84033e-18 1 

0.974344 -1.05774 -0.0417415 
1.10317 1.1914 0.0261841 
-1.20349e-17 1.00138e-17 1 

-0.0783394 0.047151 0.200197 
-0.0245808 -0.262857 0.201986 
1.18147e-17 3.42325e-18 1 

-8.47071 -4.44359 -4.76363 
1.28401 1.91621 2.57558 
-4.27736e-18 -8.23067e-18 1 

1.10105 -1.034 0.834832 
1.1028 1.14555 0.392965 
1.0742e-17 -1.98652e-17 1 

-0.657841 -0.100346 0.299498 
0.0281605 0.29744 0.109744 
-1.11994e-17 -1.67991e-18 1 

-1.13089 -0.671496 -0.940115 
-0.0719961 0.478845 1.20923 
-1.89454e-17 2.35766e-18 1 

-2.47252 -2.03478 25.0151 
-1.05214 -0.133521 7.05807 
-2.00765e-18 1.77563e-18 1 

-0.617224 -0.380031 8.04113 
0.228265 0.173882 -3.74485 
2.86657e-17 -1.66231e-18 1 

-0.394366 1.70838 22.4989 
-0.462471 1.66394 -0.610263 
1.42683e-18 1.20732e-18 1 

-0.502071 -0.00152822 -0.238856 
-0.220855 -0.0384547 -0.252872 
-1.13081e-17 3.53377e-19 1 

-10.8873 1.26735 10.4276 
-0.276193 0.692248 -0.752314 
-4.66858e-18 -3.1367e-18 1 

-1.34711 0.555089 1.03251 
-0.188002 0.556452 -0.545469 
-4.82027e-18 -4.38206e-19 1 

0.0923438 -0.504627 7.41005 
0.780803 0.308842 -2.48249 
-1.48331e-17 4.39608e-18 1 

-0.474328 -0.757909 10.0371 
0.907664 0.295562 -2.98339 
-1.54866e-17 7.21014e-18 1 

-0.349302 0.616994 -0.0943362 
-0.689955 0.517221 -0.137814 
1.49415e-19 -3.47391e-18 1 

-0.470241 0.0841044 -0.537807 
0.0215798 0.127829 0.460712 
-6.20573e-18 5.78261e-18 1 

0.0268998 -0.541954 0.367441 
0.447654 0.185085 -0.0171591 
1.05753e-18 5.11551e-18 1 

-0.169119 -0.029415 -0.408687 
-0.0378877 -0.09116 -0.460856 
4.07329e-18 -8.91598e-18 1 

-2.40741 -0.677352 -5.66431 
-0.37499 0.696011 -9.38325 
1.19468e-18 2.85949e-18 1 

-0.172148 -0.516194 0.298877 
0.250797 0.166075 0.658648 
-4.80295e-18 7.32365e-18 1 

-0.157239 -0.471198 -0.623746 
0.489335 0.288761 -0.072529 
2.43081e-18 -8.38211e-19 1 

-0.499677 -0.142922 -9.22631 
-0.0185569 0.287365 -2.83729 
1.26556e-17 8.46251e-18 1 

-5.59743 7.12954 -11.6152 
-0.348314 1.86985 -1.82875 
-7.04683e-18 1.6111e-18 1 

-0.489798 0.332593 6.66239 
0.475166 0.228307 2.51122 
-4.91359e-19 -6.00434e-18 1 

-0.622083 -0.143455 -2.42922 
0.227259 0.136377 0.733498 
-1.33405e-17 4.61033e-18 1 

-0.746979 -0.262327 1.01603 
0.208179 0.725333 0.89078 
3.24981e-18 3.45615e-17 1 

-1.04099 0.208935 -21.2505 
0.449887 0.455971 7.05001 
4.25026e-18 -1.2683e-17 1 

-0.491764 -0.344576 1.93124 
0.128525 0.16915 -1.02331 
-8.71279e-18 1.23026e-17 1 

-0.367496 -0.526255 4.44203 
0.106207 0.100059 1.57783 
-1.55168e-18 6.00029e-18 1 

-0.71097 2.87114 17.6185 
0.0367274 0.281288 0.0419762 
7.22229e-18 -3.69608e-17 1 

-0.0952988 -0.3593 0.659316 
0.330712 0.0855248 0.488596 
1.0149e-18 2.24967e-17 1 

0.137264 -0.569789 -0.119355 
0.717424 0.114723 0.89309 
1.92041e-17 1.86823e-17 1 

-1.08609 2.10021 -5.08231 
0.474205 0.239725 -0.65347 
-6.24867e-18 -3.23207e-18 1 

-0.787572 -0.181019 1.5776 
0.0279992 0.117768 0.350111 
9.61608e-18 -1.55781e-17 1 

-0.631219 -0.0597309 0.705117 
0.472725 0.169281 -0.452026 
-1.07326e-17 1.03351e-17 1 

-0.153473 -0.0490382 0.401208 
0.250297 -0.0654255 0.171777 
9.51378e-18 -1.33508e-17 1 

-0.171231 -0.509103 -62.6631 
0.171812 -0.130131 -15.5204 
3.8415e-18 -7.58789e-18 1 

-0.24038 -0.45938 0.480663 
0.15853 0.0257829 0.443331 
-1.44952e-17 6.76472e-18 1 

-0.247648 -0.25391 -0.800286 
0.00802008 0.0109104 0.0437523 
5.72553e-19 6.08986e-18 1 

-0.259129 -0.173297 -0.23054 
0.376125 2.03263e-05 0.0971118 
-1.29096e-17 -2.0288e-17 1 

-2.095 1.10089 4.32343 
-1.30487 1.03315 0.563994 
9.57478e-18 8.96363e-18 1 

-0.611396 0.00827129 0.632363 
0.150844 0.083929 -1.29381 
5.14035e-18 1.04705e-17 1 

-0.775593 1.04711 0.140587 
-0.316958 0.392576 0.304685 
2.10576e-17 1.92004e-17 1 

-0.306902 0.0622229 -0.583389 