# vtk DataFile Version 3.0
Output file generated by Yade's KinematicLocalisationAnalyser
ASCII
DATASET UNSTRUCTURED_GRID

POINTS 13483 float
507.333 48.0791 -0.491568
608.141 60.7432 -0.525853
112.238 6.17262 0.423312
635.852 15.9987 0.442413
437.945 21.9259 0.35485
296.31 42.5443 0.580434
146.818 7.15729 -0.458768
496.558 11.0093 0.246746
438.508 45.3978 0.15078
578.626 34.5054 -0.542658
198.566 8.79178 -0.0923629
242.652 6.52553 -0.303616
537.147 60.8625 -0.150166
529.282 38.2513 -0.0796227
128.792 19.1311 0.445692
209.623 36.403 -0.344999
205.873 13.2404 0.260912
273.445 10.1346 0.438057
317.336 43.798 0.462076
455.09 8.77522 0.403828
382.313 45.1923 0.110636
489.261 58.3585 -0.286295
630.236 53.2736 0.483157
580.184 94.9451 0.424217
415.313 18.8625 0.28478
228.769 47.2214 0.140294
438.928 51.695 -0.511016
507.247 21.6541 0.310873
40.4843 16.3992 -0.479687
583.188 73.7594 -0.343036
435.016 4.83339 0.496953
17.2821 26.0395 0.303257
617.831 71.5854 -0.265021
435.983 15.5975 0.466943
71.2358 47.639 -0.102891
452.469 37.5755 0.368509
461.433 15.8815 -0.490893
321.746 26.2439 0.184633
464.415 26.8887 -0.381488
324.359 42.7379 0.463189
228.228 14.8416 0.325081
399.132 43.5487 0.0709923
556.544 17.3086 0.127582
181.09 6.2473 -0.464737
51.1581 8.37923 0.0786172
62.5734 9.12301 0.256103
563.505 30.8066 0.530715
21.7129 11.9736 -0.33964
487.36 71.1532 0.362294
551.117 50.1018 -0.316006
161.391 33.8112 -0.315257
608.289 47.6013 0.124157
31.1844 32.6245 0.125057
464.248 2.88591 0.421805
133.842 7.18206 0.498335
498.246 44.377 -0.418877
441.366 47.1848 0.125104
164.922 0.995889 0.275784
31.2539 2.35959 -0.29833
326.134 20.2443 0.271282
498.533 80.5313 -0.132364
427.203 51.0699 -0.190306
368.992 2.14564 0.354131
571.698 30.7845 0.415351
22.3203 49.7724 -0.235727
244.344 33.3315 -0.322179
575.17 25.4502 0.239279
549.837 83.6893 -0.319929
383.547 10.3959 -0.650619
496.848 3.70364 -0.51072
591.286 35.5238 0.487988
122.993 7.95888 -0.267368
442.648 50.8683 -0.141827
423.303 27.7641 0.111047
279.763 17.3337 -0.342126
19.4099 14.3589 0.245643
628.034 72.8481 0.358762
311.968 51.409 -0.416263
549.626 45.4715 0.337093
559.797 33.9642 -0.262142
625.513 19.0918 -0.351972
428.728 54.8286 -0.18542
85.8262 41.9987 0.266335
571.001 82.0814 -0.220541
528.651 72.9159 -0.0994081
631.882 63.9481 -0.120714
628.059 0.710186 0.672373
276.969 28.5198 0.450334
529.236 23.7724 -0.104972
23.525 5.87852 -0.641292
125.06 41.2808 0.17047
450.958 18.5913 0.287815
614.355 35.1751 0.598465
185.599 29.8964 0.241472
38.6031 37.7785 0.313802
444.538 0.975423 0.391592
224.085 8.51229 -0.446958
607.047 75.7934 -0.311913
605.648 34.5864 0.313175
337.061 22.4488 -0.283191
152.955 28.9697 0.482623
469.291 49.9985 -0.489433
354.251 17.2855 -0.479053
384.603 36.1949 -0.104208
351.326 5.54184 0.587036
478.704 10.7548 0.188387
633.526 29.9976 0.236229
73.5988 42.7163 -0.411443
316.002 5.95801 -0.191447
490.612 11.0017 -0.549877
338.012 49.7952 0.585721
22.5549 28.8721 0.463213
29.0762 5.67501 -0.331156
480.478 50.4479 0.49003
443.182 39.6519 0.160656
21.371 43.8425 -0.407443
87.1605 34.1143 -0.21633
307.654 18.554 0.3256
510.874 34.9261 -0.163821
434.91 66.7389 0.116656
576.165 7.1853 -0.550462
571.708 10.0869 -0.229363
363.316 42.9058 0.0946054
523.935 51.9697 0.116149
226.113 18.49 0.475044
312.293 4.8419 0.542322
96.0321 34.5704 0.336679
108.574 25.5842 0.261681
470.026 46.112 -0.0736498
294.036 20.1799 0.481804
581.62 75.6177 -0.103909
554.146 84.7023 0.116009
426.17 37.4791 -0.355147
612.245 13.0534 0.328277
395.636 30.3483 0.215237
264.072 24.5524 -0.317375
552.208 69.7942 -0.292812
266.115 31.471 0.377152
506.023 11.8633 -0.220628
312.729 46.7541 0.237065
445.419 20.5475 0.507779
342.752 35.7439 0.095718
395.585 19.0411 -0.0971607
299.075 49.7747 -0.372977
181.827 30.809 -0.125439
612.103 62.7304 -0.197697
630.539 31.545 -0.331729
6.04426 12.8744 0.44679
396.776 26.4103 -0.47323
34.1939 24.1226 -0.0886216
353.141 35.8325 -0.48226
369.097 30.5942 -0.257161
69.3079 12.0001 0.5054
46.1035 35.2666 0.469938
216.039 13.7155 0.461122
502.567 74.1575 -0.377097
504.39 23.657 -0.473058
70.8418 21.3594 0.47326
581.823 99.3327 -0.405166
602.071 4.0827 -0.555773
543.005 76.7635 -0.469195
563.525 12.9278 -0.426149
480.878 30.1233 -0.453543
490.798 57.4075 -0.44529
449.655 26.1603 -0.413185
635.505 11.4419 -0.421542
214.834 25.5549 -0.113702
120.535 38.3677 0.149649
235.983 8.00762 -0.591409
88.6814 4.56273 -0.278085
59.4354 11.4545 0.270975
265.005 38.6568 -0.29626
15.8984 28.069 -0.362554
487.69 21.1075 0.431474
492.747 67.1717 -0.234879
422.107 24.3885 -0.375183
635.852 80.8789 0.342255
376.856 10.7917 -0.252459
405.213 43.7365 -0.385143
472.053 3.32293 -0.287884
20.2561 26.7973 -0.415353
508.412 4.32099 0.56352
480.758 4.32062 -0.274469
196.915 11.3064 0.510381
392.24 16.7874 0.195534
298.526 6.41615 0.383418
363.96 22.8643 -0.384786
597.043 64.4329 0.100692
184.457 26.6053 0.435662
620.068 6.2232 0.410338
594.864 56.6493 0.472508
359.537 11.4841 0.175879
565.312 3.71164 0.563286
513.328 47.1294 -0.428277
584.921 19.8113 -0.448349
403.192 53.6524 0.272132
441.656 26.268 0.336064
425.481 67.1432 -0.220764
409.603 10.5481 -0.285911
546.884 77.5092 0.252378
545.973 73.5848 0.339955
183.774 40.2723 -0.340092
626.391 16.3035 -0.200328
491.177 51.2786 -0.288855
12.2195 17.559 0.165098
379.883 31.7888 0.385608
179.22 24.1782 0.405294
87.4396 43.0684 0.218082
611.621 28.7931 0.530038
540.554 83.1487 -0.245608
306.351 31.8095 0.358498
469.286 9.88175 0.334916
76.3662 48.0565 -0.177013
237.469 26.6314 -0.471383
487.644 30.6493 0.430532
433.335 36.4295 0.478524
251.978 0.880878 -0.345967
469.467 60.237 -0.447522
467.796 40.8357 0.455575
445.446 66.4173 0.393754
442.58 5.40605 -0.63137
565.924 53.6988 0.391554
171.396 12.8455 0.182867
457.994 65.668 0.468607
478.482 68.9962 -0.120442
67.8724 0.966474 -0.277958
240.995 4.90587 -0.217951
629.306 32.9946 0.282398
625.551 20.9966 -0.582279
635.316 35.8496 -0.494365
291.233 8.49682 -0.254145
589.522 25.3508 -0.467315
381.193 56.4635 0.336685
413.391 0.852915 0.661741
534.02 71.2823 0.459507
21.2086 37.4275 0.2986
313.486 54.1438 -0.473397
241.987 3.1558 0.435299
621.258 74.2199 0.184622
596.792 81.099 0.25773
275.953 11.6366 0.284654
547.293 66.937 0.0882522
492.766 2.53499 0.240928
478.386 6.38085 0.468082
91.5051 18.6084 -0.502342
291.148 1.02097 -0.234829
326.92 2.64087 -0.339662
13.5942 7.8053 0.565623
4.82808 31.3727 -0.25806
153.774 19.5081 0.354078
62.5847 43.8742 -0.224573
62.6979 30.6931 -0.325638
393.105 15.3049 -0.488957
346.31 38.7666 -0.481925
606.104 48.5639 -0.137966
19.1147 3.99662 0.276781
65.5687 7.09638 -0.161966
510.282 72.8105 -0.168738
282.709 0.955768 0.411416
343.961 18.8961 -0.109239
226.531 4.64515 -0.371506
539.59 48.7504 -0.192388
414.751 8.45245 0.535581
591.379 22.1405 0.431609
522.724 55.3534 0.310624
551.249 40.8948 -0.0809539
390.118 31.8043 0.496969
97.2228 47.89 0.323577
465.414 50.4742 0.0826571
580.907 12.509 0.276719
230.24 33.0263 -0.245459
28.5223 22.1501 0.154685
319.426 15.7316 0.466201
102.214 42.9738 -0.502548
259.434 44.636 -0.216916
395.139 2.28385 -0.305909
615.951 45.4749 -0.474939
558.818 2.12421 -0.530527
316.402 4.18633 0.517366
290.523 28.5663 0.141682
427.023 64.1415 0.206279
76.6569 7.98117 -0.460767
189.718 46.6032 -0.387406
607.795 38.4314 -0.568292
461.002 69.9718 -0.0661872
192.166 42.5935 0.301832
153.885 44.8983 -0.395123
635.371 57.9437 -0.398321
632.358 31.1634 -0.614718
535.615 4.65803 -0.588773
182.987 25.5381 -0.0934818
480.893 33.6862 0.101996
483.94 30.5382 0.313859
380.992 7.72738 -0.188975
439.954 0.812943 0.376208
603.455 49.3868 0.491607
79.9341 34.5241 -0.221732
548.068 37.118 0.539923
263.204 16.2105 -0.353097
8.85996 2.49784 0.384946
119.582 40.3679 0.19704
63.7504 25.3752 0.47917
583.048 82.9397 0.302663
620.691 83.0971 -0.167105
178.082 29.1355 -0.185603
628.944 28.362 0.533371
40.3354 39.6213 0.263266
86.2082 31.0138 0.151897
539.35 33.983 0.356657
385.546 23.0943 -0.464106
459.823 16.8533 0.157157
230.392 31.0587 0.18215
532.587 22.7997 -0.564905
636.036 28.9639 0.443451
24.0482 37.8738 -0.274868
259.963 7.79097 0.205792
214.043 15.6694 0.273594
1.09663 35.7153 -0.145524
217.174 14.8915 0.382032
203.312 11.1186 0.136023
206.967 26.78 -0.289619
125.453 30.8951 0.120055
483.696 15.2378 -0.512106
159.298 14.7509 -0.328221
617.286 68.3466 -0.219508
166.651 4.07831 -0.482902
42.456 40.2172 0.374046
599.526 75.1676 0.540007
271.267 33.7416 0.393711
552.971 58.3627 -0.456123
623.508 61.8998 0.553935
289.41 9.26998 0.194396
585.764 53.5707 0.378585
314.352 2.58375 -0.323202
388.632 27.0956 -0.41
552.906 37.6201 -0.526181
100.389 11.8128 -0.500202
441.996 3.84425 -0.448678
593.21 19.8277 0.208937
83.3073 7.93553 0.287239
271.086 15.2487 0.197817
393.45 12.5401 0.38912
637.288 7.15377 0.508982
373.324 1.77977 -0.593307
169.466 39.8508 -0.345297
583.273 10.0614 -0.428
122.778 39.347 0.194432
254.53 33.3207 0.396566
376.95 25.2032 0.206159
507.834 14.377 0.44247
363.416 10.0397 -0.579028
419.905 40.8478 -0.425746
609.67 61.0467 -0.498124
44.1016 12.7038 0.123401
286.789 39.6998 -0.300689
359.51 30.8287 -0.416716
382.666 23.1679 -0.276336
461.913 48.5757 -0.445555
615.037 76.2732 0.245497
552.112 74.8678 -0.348166
217.496 37.7128 0.450027
14.0351 36.2358 0.156602
544.043 73.4419 -0.153583
458.652 54.2056 -0.592273
221.237 42.4718 -0.109351
569.292 79.0764 -0.121481
143.901 9.37804 -0.242837
346.708 25.8213 0.262277
427.423 66.1849 0.102567
386.415 24.6507 0.217217
603.802 63.5943 -0.315209
395.463 4.24528 0.652219
45.1205 27.0031 0.309498
438.533 60.7548 0.32111
406.882 48.4365 -0.525586
623.486 65.338 -0.240067
586.741 50.0273 0.25035
478.975 19.979 -0.177953
616.938 59.4152 -0.507613
282.373 2.26689 -0.520318
359.256 33.7647 -0.485065
24.8484 45.073 -0.308398
592.987 48.4196 0.156329
518.332 37.365 -0.533128
424.526 0.798918 0.672161
120.125 5.00742 0.387851
399.891 49.288 0.120399
11.342 0.943007 0.33762
632.478 14.3063 -0.0844941
350.475 42.7691 -0.440563
[...]
POINT_DATA 13483
TENSORS Strain_matrix float
-1.31573 -0.32889 15.0801 
0.560066 0.462917 10.3451 
1.62882e-18 -2.03603e-18 1 

-1.62277 1.50684 13.5103 
0.132032 1.11226 -11.3791 
2.21684e-18 1.77016e-18 1 

-0.158261 -0.0841049 -0.0292401 
0.066242 0.00482379 -0.656946 
-8.03698e-18 -8.18186e-19 1 

-1.45624 -0.576668 0.092184 
0.718872 0.459734 0.181651 
-7.13741e-19 5.0136e-18 1 

-0.538072 0.24831 -0.07597 
-0.417683 0.102558 -0.350349 
5.25508e-18 -1.03041e-17 1 

-0.24883 -0.277714 -5.65575 
0.272253 0.24289 5.44743 
-3.93371e-18 -4.32671e-18 1 

-0.129559 -0.0710026 0.481734 
0.0321744 -0.0642534 0.285916 
5.51035e-18 1.12303e-17 1 

-0.189927 0.0685389 -0.103438 
0.0402715 -0.126001 -0.131983 
7.20738e-18 -5.24173e-18 1 

-2.64293 0.412092 -0.117089 
0.189946 0.513652 -0.769216 
1.61891e-18 -1.36534e-18 1 

-1.09363 0.436934 1.50893 
-1.40282 0.855864 -5.15487 
8.04436e-18 -7.40003e-18 1 

-0.106284 -0.0172994 -0.173559 
0.0119885 -0.074897 0.0714442 
8.8042e-18 -3.77323e-18 1 

-0.159687 -0.111111 -0.485379 
-0.0202841 -0.0811566 0.545582 
5.81202e-18 -1.99639e-17 1 

-0.947614 -1.18434 3.22643 
-0.0262497 0.383192 -0.607016 
2.53092e-18 -7.03033e-18 1 

0.0302626 -0.49177 0.890719 
0.56427 -0.035523 -0.350552 
-8.98469e-19 -4.54226e-18 1 

-0.219428 -0.0475074 -0.188407 
0.00564808 0.0888545 0.821741 
-1.05511e-17 6.67562e-18 1 

-0.107625 -0.306884 -0.657272 
0.254156 0.0977526 -0.287183 
-8.4315e-18 -6.18498e-18 1 

-0.11291 -0.0276836 -0.0848429 
0.0404382 -0.0742457 0.0062573 
6.117e-19 -8.80673e-18 1 

-0.191474 -0.0949148 0.041526 
0.117807 -0.105561 -0.173832 
3.4017e-19 -1.44572e-17 1 

-0.670042 -0.272913 4.41816 
-0.120695 0.216161 -1.28992 
5.92759e-18 -4.53468e-18 1 

-0.0722854 0.38338 0.55923 
-0.541375 -0.0595438 0.633106 
1.03659e-17 -9.85084e-18 1 

-0.710373 0.068102 -3.20193 
-0.0613283 0.284225 -1.59732 
-3.43877e-18 -3.56158e-18 1 

-3.64426 -3.50596 1.27945 
-0.366625 0.801426 1.29374 
-1.65112e-17 -3.92936e-18 1 

0.0516557 -0.123377 1.26816 
0.518498 0.190309 3.34613 
5.71773e-18 1.23549e-17 1 

0.0613209 -6.24599 -396.917 
0.0298045 1.10607 73.369 
1.74398e-18 1.26468e-17 1 

-0.323594 -0.151237 1.58314 
0.0708662 0.158384 -0.160533 
-1.39072e-17 1.07438e-17 1 

-0.222258 0.0682833 0.0872802 
-0.0373009 0.0785249 -0.0539111 
6.7389e-18 -6.7389e-18 1 

-1.47412 1.47405 -57.2204 
-0.217027 0.536923 11.0513 
5.10367e-18 -5.0898e-18 1 

-0.440052 -1.30533 -0.483891 
0.233374 0.167192 -0.241006 
1.52519e-17 -5.81025e-18 1 

-0.123294 -0.0795484 0.159189 
0.0704893 -0.0437735 -0.196739 
2.19608e-17 -5.1385e-18 1 

-1.09607 1.88202 1.90858 
-0.948411 1.11395 1.35648 
1.0225e-17 -6.93971e-18 1 

-0.314347 -0.194518 -0.40881 
0.0599177 -0.168878 0.359909 
8.56835e-19 -5.86932e-18 1 

-0.172975 -0.0472641 -0.248468 
0.148408 0.209565 0.184572 
-3.09585e-18 -9.90011e-19 1 

-0.579328 -0.403615 0.0365982 
0.759729 0.638472 -0.639309 
-5.59944e-18 6.73517e-18 1 

-1.08033 -2.22934 -6.69361 
0.655306 2.21166 2.5217 
1.35142e-17 2.06432e-17 1 

-0.055367 -0.12871 0.235259 
0.080114 -0.130946 0.391508 
1.0067e-18 -9.91208e-18 1 

-0.404635 0.463542 -1.70947 
-1.07377 0.40504 0.47673 
1.16926e-18 -7.0991e-18 1 

-0.382555 0.539697 -0.742959 
-0.0867135 0.169816 0.907904 
-5.89811e-18 -4.6323e-18 1 

-0.403989 0.145756 -0.172647 
-0.0933828 0.320239 -0.442557 
-9.16803e-18 -6.58952e-18 1 

0.0149834 -0.161645 -0.93571 
0.096134 -0.389145 1.50276 
-9.20207e-19 6.86616e-18 1 

-0.480365 0.0218443 7.50513 
-0.108805 0.286685 -0.0145803 
-3.53778e-18 -6.48593e-18 1 

-0.285419 -0.224243 -0.397158 
0.0553961 0.0711367 -0.594803 
-9.4045e-18 -1.5927e-17 1 

-0.138529 0.220092 0.455542 
-0.447739 0.125144 -0.0159646 
-7.95335e-18 2.1501e-17 1 

-0.71703 -0.781453 -0.679675 
0.259284 0.430063 0.799429 
-1.19231e-17 1.38415e-17 1 

-0.184766 0.0520882 -0.824531 
-0.0627244 -0.0261999 -1.53753 
-1.59967e-18 1.9907e-17 1 

-0.144353 0.0122363 -0.0860068 
-0.00582688 -0.0236252 -0.0368623 
-1.51654e-18 5.61805e-18 1 

-0.154737 0.0852855 0.158028 
-0.13508 0.0458695 0.165479 
-3.35218e-18 1.23844e-17 1 

-0.645519 -0.774351 -1.42917 
0.549137 0.478647 1.98139 
-6.63684e-18 1.18262e-17 1 

-0.113741 -0.149039 -0.442475 
0.0789531 -0.0871162 -0.0556457 
-1.45669e-18 -3.09546e-18 1 

-4.26001 -4.24191 -26.6373 
0.0411269 0.551461 1.26483 
-4.58051e-18 5.02424e-18 1 

-1.45098 -1.04783 2.32924 
0.182379 0.63219 -2.02572 
-1.18205e-17 7.03213e-18 1 

-0.0695696 -0.0303906 -0.0331908 
-0.174946 -0.0408165 -0.112229 
-9.78406e-18 1.52851e-18 1 

-0.191793 0.204066 1.16397 
0.479136 -0.0347769 -0.909762 
1.29787e-17 4.05583e-18 1 

-0.0966114 -0.738958 0.200103 
-0.217376 -0.120904 -0.0638829 
-4.05458e-18 7.87644e-19 1 

-0.211061 0.163768 -0.0103305 
-0.0860032 -0.104747 -0.0847908 
-6.56195e-18 -1.71458e-17 1 

-0.456867 -0.393775 -0.472913 
-0.0777215 0.142368 0.23082 
-3.19496e-17 -1.45987e-17 1 

0.249186 -0.972344 -2.17675 
0.898709 0.211221 2.46814 
1.04467e-17 5.30678e-18 1 

-1.29575 0.976404 0.203288 
-1.00043 0.666669 0.583509 
1.90407e-18 3.36303e-18 1 

-0.145401 0.406315 -0.818334 
0.0246974 0.0409877 0.441523 
1.67496e-17 -5.96942e-19 1 

-0.19455 -0.0444496 0.886534 
0.103808 -0.117974 -0.581246 
-5.67847e-18 2.41593e-17 1 

-0.328605 -0.0635065 -0.252067 
-0.116855 0.0705726 0.979679 
-2.31425e-17 3.25623e-18 1 

-2.91079 3.06331 -1.26768 
0.029407 0.914046 2.94134 
-2.27487e-18 3.92142e-19 1 

-0.318635 -0.0104306 9.35987 
0.861783 0.285536 -2.78517 
-1.96878e-17 -1.63276e-17 1 

-0.258568 0.00952429 -0.349381 
0.0240167 0.0705478 -0.162239 
-3.69247e-18 -7.06934e-18 1 

-2.31725 0.510811 -10.7373 
0.12345 0.474595 -2.78601 
-2.93542e-18 -1.23937e-18 1 

-0.0618034 0.180069 0.0151141 
-0.14497 0.00523654 -0.0654976 
1.01261e-18 8.55656e-18 1 

-0.310351 0.141328 0.76753 
-0.0505499 0.0485658 0.0522639 
-5.73289e-18 -5.7926e-18 1 

-1.75807 -0.337252 -3.01521 
-0.795922 0.531682 -0.259557 
-5.51188e-18 3.56047e-18 1 

-0.0370277 -0.428709 0.0831474 
0.44028 0.17843 -0.786234 
8.14146e-19 -8.25777e-18 1 

-0.395527 0.148429 -0.198854 
-0.148741 0.110662 -9.83127 
8.62935e-18 4.47448e-18 1 

-0.407298 0.102955 0.466607 
-0.323284 -0.152191 -0.405916 
7.32792e-19 1.61214e-17 1 

-2.40866 -0.0806475 1.67907 
-1.54513 0.796374 -0.053883 
-1.22307e-17 -2.69076e-18 1 

-0.131985 0.0752502 0.0612525 
-0.064695 -0.022126 -0.0725462 
1.50181e-17 5.50948e-18 1 

-2.67116 1.76694 -1.20137 
-0.713185 1.23759 0.352544 
-1.37819e-18 -1.69736e-18 1 

-2.22642 -0.533769 -0.957532 
1.5452 1.25405 1.70276 
6.18254e-19 1.35771e-17 1 

-0.097277 0.0486939 -0.703245 
0.00809256 -0.0497971 -0.151257 
4.723e-18 -6.41711e-21 1 

-0.338042 0.211532 0.29245 
-0.147656 0.119891 0.459605 
-1.07291e-18 4.4867e-18 1 

-2.99374 1.57054 -10.6345 
0.0291961 0.953958 -8.50156 
-1.06868e-18 1.34528e-17 1 

-0.244429 -0.160478 -0.278643 
0.296229 0.0902817 -0.0345425 
7.1027e-18 4.94378e-18 1 

-2.2138 0.484891 -0.00480708 
-0.175091 0.686472 0.117433 
1.90544e-17 9.85658e-18 1 

-0.125818 -0.900858 -1.01541 
0.521716 0.39923 0.357312 
3.52123e-18 1.02361e-17 1 

-0.660754 -0.885261 -1.34122 
0.859539 0.705814 1.75924 
-8.80937e-19 2.03064e-18 1 

-0.121229 -0.439207 3.50574 
0.744866 0.128175 -0.530246 
-1.45986e-17 7.24691e-18 1 

-0.0905726 0.0113098 -0.154342 
0.0087036 -0.00886343 -0.0432542 
-4.47094e-19 2.66766e-18 1 

-0.157228 0.451216 0.990524 
0.323101 -0.0260339 -0.633301 
2.84382e-18 4.94184e-18 1 

-0.193204 -0.274843 0.145323 
0.28314 0.0438755 0.205371 
8.86353e-19 1.35169e-17 1 

-0.325645 0.300089 -0.462107 
-0.294595 0.115163 -0.179932 
-2.67119e-18 1.3356e-18 1 

-1.05477 1.07683 -32.2603 
0.11324 0.49091 12.1252 
4.32582e-20 2.11189e-17 1 

0.0414606 0.324288 -0.0479569 
-0.106673 -0.177807 -0.168011 
1.83157e-17 2.15411e-18 1 

-1.65676 -2.43698 1.21393 
0.443144 1.04682 0.732178 
-9.79699e-18 -1.16592e-17 1 

-0.252754 -0.0195987 -3.11314 
0.0354536 -0.100391 -3.98846 
6.23502e-19 6.63914e-20 1 

-0.226065 -0.15371 0.0423063 
-0.0410637 -0.0243387 0.228081 
-1.85127e-18 7.0176e-18 1 

-0.436022 0.781186 0.0282896 
-0.658453 0.172647 0.452005 
-1.39137e-17 -6.40474e-18 1 

-1.09646 -0.0896417 -29.085 
0.243169 0.33451 1.13869 
-7.38595e-18 4.92703e-18 1 

-0.172022 -0.0639072 0.101817 
0.0196197 0.00777133 0.0444315 
1.26046e-17 -9.64382e-18 1 

-0.0806395 0.193557 -0.58515 
-0.164035 0.0180034 -0.122591 
-5.13645e-18 -7.8849e-18 1 

-3.86744 -4.1011 -1.68655 
0.101553 0.362259 0.0400707 
-7.62293e-18 3.29948e-18 1 

-0.257486 -0.0501138 0.346447 
0.0538057 0.0211714 -0.979869 
-8.76993e-18 -3.00507e-18 1 

-0.836483 -0.878909 0.4455 
0.953191 0.653653 -0.173697 
-1.26104e-17 8.31353e-18 1 

-1.30697 0.393981 0.262057 
0.310263 0.384621 0.655782 
7.42816e-18 1.46661e-17 1 

-0.357195 0.140073 -0.23788 
-0.429977 0.219593 -0.335988 
-3.90433e-18 -1.53384e-18 1 

-0.189725 -0.0284338 2.09337 
-0.0665906 0.0738481 1.16072 
-7.15731e-18 -4.09694e-18 1 

-0.509171 -0.891169 -12.5126 
0.797139 0.936825 -0.663131 
1.90758e-18 4.8454e-18 1 

-0.361892 -0.028536 1.74905 
-0.233822 0.129725 1.51012 
3.97871e-18 2.04461e-17 1 

-0.530991 0.866353 1.49121 
-0.0440073 0.466368 -0.201579 
-1.57546e-17 1.21631e-17 1 

-0.541264 0.176678 1.31822 
-0.0136096 0.0373199 0.87214 
-1.14936e-17 8.60758e-18 1 

-0.354425 0.269473 0.413102 
-0.41565 0.0530972 -0.214187 
5.81203e-19 -1.06554e-17 1 

-0.324497 0.522073 0.262948 
-0.477032 0.166486 0.0992103 
-1.93265e-18 -1.37515e-18 1 

-0.168977 -0.0498056 0.408985 
0.00104121 0.00700716 0.468729 
5.69966e-18 9.57423e-18 1 

-0.197982 0.161105 -0.00436805 
-0.131004 -0.0553545 -0.0672335 
3.98273e-18 -6.11929e-19 1 

-0.452247 0.019565 -0.965114 
0.12365 0.0607735 4.19503 
-8.61771e-18 2.10954e-18 1 

-0.29723 -0.29254 -20.8447 
-0.0355426 1.04264 27.3024 
-6.00209e-19 7.95465e-19 1 

-0.287312 -0.121413 -1.73744 
0.0881096 0.193396 -6.04072 
6.03066e-18 2.17281e-18 1 

-0.241221 -0.0383768 0.177 
0.00882763 -0.0494056 -0.252837 
4.49541e-18 -9.46403e-20 1 

-2.31287 -0.482834 -52.5855 
-0.0831518 0.667445 -18.0988 
-8.49911e-18 8.67256e-20 1 

-1.0981 0.157418 -0.42587 
-0.242226 0.531324 -0.980852 
-1.29139e-17 5.07331e-18 1 

-0.08582 0.116971 -0.104285 
-0.141729 -0.0151403 0.117136 
0 -1.38381e-17 1 

-0.464671 -0.199281 0.0762715 
0.0626796 0.155863 -0.397836 
-2.28681e-17 -7.97116e-18 1 

-0.338819 0.486757 -0.709024 
0.0153972 0.157443 -1.66796 
-4.47587e-18 -1.87051e-18 1 

-1.53662 -1.54326 -1.64781 
-0.345283 0.960467 0.0624621 
1.85544e-18 -5.95989e-18 1 

0.136461 -0.635467 0.373105 
0.691012 0.270444 -0.015304 
7.75395e-18 -1.29636e-17 1 

-0.836152 0.431832 1.60764 
-0.106117 0.200064 0.27161 
3.51612e-19 -6.59273e-18 1 

-0.520196 0.559239 0.0998466 
-0.629195 0.342444 0.496166 
-3.13262e-18 5.27598e-18 1 

-0.0627452 -0.255499 -0.0236232 
0.222299 0.0290674 -0.0470765 
-6.29135e-18 2.44142e-18 1 

-0.434296 -1.07195 2.84907 
0.357368 0.332188 0.643847 
-9.57937e-19 -6.52855e-18 1 

-0.489444 0.138464 4.54621 
-0.0814906 0.224729 -1.77781 
-1.01907e-17 -1.10082e-17 1 

-0.401104 -0.0561271 -1.5304 
0.0726913 -0.00865199 0.807265 
7.32428e-18 -1.2283e-17 1 

-0.228761 -0.00204879 0.359063 
-0.15518 0.140829 -0.166598 
1.28136e-18 -1.10197e-17 1 

-0.303416 -0.015875 -0.0185591 
0.117412 0.100134 -0.992415 
-1.15466e-17 3.17796e-19 1 

0.711483 -1.14253 0.0156346 
1.2048 1.11786 -0.377673 
2.4485e-18 -7.68714e-18 1 

-0.462823 -0.212739 -0.859762 
0.502425 0.154583 0.649734 
6.95318e-18 1.27144e-17 1 

-1.05805 1.36234 7.68657 
-0.116778 0.741356 0.32848 
-2.9472e-18 4.46834e-18 1 

-0.151416 -0.361479 -0.0672979 
0.361031 0.159358 -0.398105 
-9.48562e-18 -2.72418e-18 1 

-0.250863 0.8108 -1.05403 
0.096556 0.0389863 1.5678 
-5.46639e-19 1.3051e-17 1 

-0.359788 0.0784412 0.265193 
-0.00404855 -0.110666 -0.22637 
7.76036e-18 -1.29339e-17 1 

-0.3679 0.0731707 -1.30634 
-0.157877 0.386574 -2.49713 
1.73267e-17 -4.49738e-18 1 

-0.165257 0.307791 -0.154302 
-0.165531 0.0170297 -0.25063 
1.04738e-17 3.27307e-18 1 

-1.17823 3.08759 -7.94889 
0.336913 0.134378 -0.510211 
-5.93402e-20 1.1805e-17 1 

-0.309499 0.0985758 -0.632969 
0.244971 0.18884 -1.07182 
7.7567e-19 2.58412e-18 1 

-0.411714 -0.037778 0.00518113 
0.0473482 0.000128474 0.264001 
3.18962e-18 -1.19132e-17 1 

-0.544133 -0.259639 -0.820514 
0.207087 0.228447 -0.176251 
-1.94488e-17 -5.10942e-18 1 

-0.213605 0.654428 -2.58644 
-0.682428 0.328297 0.569575 
-3.8937e-18 4.27684e-18 1 

-0.0296518 0.154496 -0.167781 
-0.105852 -0.0615453 0.0485207 
-2.7132e-18 -1.03541e-17 1 

-0.0856416 -0.352212 -1.17152 
0.506896 0.0855412 1.25202 
1.05092e-17 -5.34521e-18 1 

-0.0331924 -0.424602 -0.229032 
0.414969 0.0725469 0.280053 
-2.14039e-17 1.29044e-17 1 

-0.0705399 -0.0209954 0.307114 
0.0199722 0.0345756 0.284312 
1.53015e-18 -2.67776e-18 1 

0.25361 -0.968449 -0.938827 
1.00687 0.523035 0.318719 
7.88582e-18 -1.6875e-17 1 

-0.342465 0.19841 0.836117 
0.338903 -0.0154114 0.418645 
-1.22168e-17 -3.19963e-17 1 

-0.111468 0.0772316 0.0645579 
-0.0692452 -0.0855316 -0.0841015 
-8.83635e-18 2.94545e-19 1 

-0.645186 0.534095 0.280227 
0.043044 0.395859 2.78132 
-3.31462e-18 8.56278e-18 1 

-0.317985 0.314844 -1.14561 
-0.292572 0.24306 -0.632489 
4.69996e-18 1.23908e-17 1 

-0.0121906 0.0830593 4.53186 
0.171 -0.031424 1.8223 
6.02138e-18 -6.64967e-18 1 

-0.275797 0.444982 -0.659349 
0.0724307 0.0324807 -0.765995 
8.51355e-18 7.99013e-18 1 

-0.197515 0.0402008 0.625316 
-0.0473871 -0.00675853 -0.0587423 
-6.42824e-18 -9.56571e-18 1 

-0.160329 0.0107586 0.325986 
-0.147909 -0.00495754 0.516784 
1.5452e-18 -3.12274e-18 1 

-0.126183 0.0919803 -0.790567 
-0.0702963 -0.0256462 0.188484 
-4.59595e-18 -4.43e-18 1 

-0.339512 -0.0897563 0.465086 
0.20492 0.184241 -0.108354 
1.31147e-17 5.08929e-18 1 

-0.751753 -0.553827 2.88441 
0.11582 0.383022 -3.229 
-1.41368e-17 8.63727e-18 1 

-0.216501 0.0319131 -2.54388 
-0.129347 0.13943 0.0733892 
-9.12008e-18 -1.48369e-19 1 

0.048188 -5.93592 42.5574 
-0.0196982 1.2755 -2.04686 
1.12694e-19 1.84484e-18 1 

-0.692988 -0.167361 -0.347497 
0.0286656 0.112681 0.426816 
1.50699e-18 3.34887e-18 1 

-0.249945 -0.219841 0.637977 
0.0989303 0.159102 -1.76725 
1.26367e-17 -5.30834e-18 1 

-7.79919 6.0009 2.18839 
-0.515311 0.706459 0.507324 
-7.62729e-18 8.4539e-19 1 

-0.91183 -0.672937 15.3883 
0.326932 0.604774 -1.06985 
5.65004e-18 6.79435e-19 1 

-2.19918 -1.90836 17.8624 
0.0130199 0.952082 -6.6286 
-2.10544e-17 -2.86522e-19 1 

-1.36446 -0.904637 5.17026 
-0.469867 0.252369 2.2117 
4.00319e-18 1.21375e-17 1 

-2.6341 -1.19064 2.25961 
1.21773 0.710366 -0.465277 
1.7419e-19 -2.54705e-17 1 

-0.0642357 0.0720358 -0.011547 
-0.0408038 -0.0190894 -0.0261493 
1.3997e-17 1.82356e-18 1 

-0.258875 0.0998294 -0.279991 
0.133564 0.0888311 0.737393 
7.85912e-18 -1.23972e-17 1 

-0.211813 -0.0039373 -7.53807 
-0.049959 0.0166089 -3.84366 
3.86471e-18 1.97304e-18 1 

-0.232022 -0.0237953 -0.256889 
0.034421 0.0107792 0.258986 
-1.95649e-18 2.34851e-18 1 

-0.286963 0.106195 0.177314 
-0.228982 0.102139 -0.15437 
-4.51585e-18 -8.46721e-19 1 

-0.0931946 0.0404863 -0.457575 
-0.075737 -0.0753489 0.340224 
1.19036e-18 -9.65514e-18 1 

-0.27276 -0.350405 -2.69965 
0.482544 0.265509 1.03906 
2.06773e-18 4.29101e-20 1 

-1.50375 0.326854 2.33379 
-0.0344642 0.50289 1.50659 
-1.14016e-17 5.63023e-18 1 

0.0714888 -1.0958 -1.04679 
1.19443 1.03012 0.468929 
-5.50634e-19 -1.82053e-17 1 

-0.943334 -1.0214 -0.657804 
0.259825 0.589109 -0.334741 
5.23796e-18 7.54663e-18 1 

-1.07634 0.506435 -20.5758 
-0.256424 1.11836 -12.2954 
1.62587e-17 7.23471e-19 1 

-0.38884 0.0785357 0.143588 
0.143616 0.0219744 -0.140682 
2.17513e-17 7.71356e-18 1 

-0.125588 0.148946 1.96437 
-0.0915176 -0.0139914 -0.725762 
1.55097e-18 -4.5329e-18 1 

-0.268282 -0.0229179 -0.509237 
0.0720319 -0.083468 -0.184855 
-3.2039e-18 -1.49051e-17 1 

-0.999152 -0.204684 -0.706383 
0.430907 0.345399 -0.783512 
1.22852e-17 2.61388e-19 1 

-0.408903 -0.105181 0.832234 
-0.070205 -0.048964 -0.0845712 
3.26655e-20 1.47648e-17 1 

-0.1546 -0.144188 0.0804536 
0.0422362 -0.0625061 0.00343149 
9.01749e-18 1.06506e-17 1 

-0.139105 0.0248214 -0.140886 
0.0235854 -0.0656806 -1.51589 
-3.26362e-18 9.3731e-18 1 

-0.325774 -0.324274 -0.342591 
-0.148081 0.209376 0.42547 
2.36505e-18 7.49999e-18 1 

-0.2604 -0.0868059 -0.260493 
0.0549489 -0.0341864 0.459623 
-8.49849e-18 5.00314e-18 1 

-0.272427 -0.221589 1.54889 
0.341747 0.142318 -0.57849 
-5.52134e-18 -7.30349e-18 1 

-1.8262 1.77369 5.79339 
1.03633 -0.368346 2.48164 
-5.57991e-19 1.59426e-18 1 

-0.146688 -0.0640489 0.300917 
-0.0107947 -0.0535697 0.0728657 
-5.40991e-18 7.01188e-18 1 

-0.302482 -0.20142 0.185199 
0.0980407 -0.0406364 0.505425 
2.74109e-19 1.44364e-17 1 

-1.26509 1.53223 -16.8718 
0.889557 0.153079 3.53953 
-2.29981e-18 1.48529e-17 1 

-0.236121 0.0367618 0.440158 
0.259197 0.11637 0.208759 
5.8022e-19 1.62461e-18 1 

-4.41529 -3.24775 5.77621 
-0.0539972 0.946662 -0.623954 
6.88524e-18 1.31557e-17 1 

-1.77431 -1.08391 3.60051 
0.370918 0.91689 2.44947 
7.01615e-18 3.62124e-18 1 

-0.921424 0.468524 -1.25904 
-0.0307915 0.32472 -1.28371 
-9.14445e-18 1.5873e-17 1 

-0.491987 0.0357186 -4.56947 
-0.260014 0.657568 0.358612 
-1.05538e-17 -3.61094e-18 1 

0.173876 -0.0641564 0.164879 
-1.0798 -0.48135 -0.563006 
-1.07539e-17 4.30157e-18 1 

0.238625 -0.790944 -0.438505 
0.579143 0.397693 -0.98105 
-3.31932e-18 1.10644e-17 1 

-0.354992 0.180199 -0.448476 
-0.294085 0.00821807 0.68396 
1.23487e-18 5.44117e-18 1 

-0.119196 -0.287517 1.16738 
0.201157 0.127903 0.652159 
-2.28555e-18 -2.99979e-18 1 

-0.0136156 -0.369912 0.00496737 
0.38943 -0.026385 -0.268662 
-4.95706e-18 5.79996e-18 1 

-0.104822 -0.0597359 0.0555867 
0.0589783 -0.0374406 -0.00055679 
-1.33164e-17 -2.30634e-18 1 

-0.962437 -1.6224 0.833435 
0.986821 1.14243 0.983543 
4.66357e-18 -1.55452e-18 1 

-2.23502 -0.444593 1.19648 
-0.300339 0.520267 -3.06787 
1.05841e-18 1.24437e-18 1 

-0.143546 0.229574 -0.419571 
-0.0565087 0.0240656 0.00752023 
4.84477e-18 4.52399e-18 1 

-0.628969 0.44978 2.62188 
0.0246246 0.320215 -1.24074 
8.62779e-19 -1.59014e-18 1 

-0.0760804 -0.0140825 0.282058 
0.00603436 -0.0259331 0.184691 
-3.91931e-18 -1.52872e-17 1 

-0.142911 -0.0231621 0.12847 
0.0692191 0.0576227 -0.406289 
-9.15805e-19 -3.43427e-18 1 

-1.59361 -0.353328 -0.957143 
0.0511845 0.463699 2.00718 
1.39145e-17 -2.98167e-18 1 

-0.312357 0.00991936 0.429705 
-0.196299 0.202073 -0.220963 
5.48392e-18 6.90387e-18 1 

-0.66846 -0.0392207 -1.2753 
0.576377 0.247618 -0.738646 
-2.9802e-18 1.90894e-18 1 

-0.249927 -0.0775328 0.433502 
0.0963306 -0.0625953 -0.287696 
7.20163e-18 -4.55799e-20 1 

-0.106879 0.0139834 0.400662 
0.0701088 -0.0376037 0.393045 
1.53955e-17 1.74898e-17 1 

-0.188744 0.11486 -0.506858 
0.0680288 0.111504 -1.04562 
9.29894e-18 8.92741e-18 1 

-0.548429 -1.24575 -1.69311 
0.339221 0.559681 0.30443 
-2.34691e-18 2.67695e-18 1 

-0.859836 -0.0813756 -0.217388 
-0.0851306 0.443024 -1.72634 
-3.83269e-18 -1.53661e-18 1 

-0.163312 0.209491 0.0918747 
0.00627348 -0.0793105 -0.320453 
3.66011e-18 9.54721e-17 1 

0.574187 -0.921073 -0.30737 
1.0587 0.697122 0.556855 
6.08494e-18 -7.0498e-18 1 

-0.0806767 -1.15033 -0.369902 
1.04209 0.910922 2.11287 
-2.50776e-18 -4.31335e-18 1 

-0.109154 -0.393139 -0.95737 
0.14027 0.134025 -0.611384 
-3.95004e-18 -7.49891e-18 1 

-3.09013 -1.47245 8.7913 
0.152467 0.776476 -2.44875 
-1.96653e-18 -5.80911e-18 1 

-0.261412 -1.07874 -2.64986 
0.0757317 0.178889 -0.631627 
5.13143e-18 -1.29986e-17 1 

-0.121966 0.035866 0.0347666 
0.0528552 -0.0724131 -0.1935 
3.95833e-18 4.83333e-18 1 

-0.788433 1.08496 -82.5595 
-0.505985 0.7389 -20.2969 
-6.99575e-18 1.29515e-18 1 

-0.214273 -0.426612 0.26152 
-0.0852693 0.088001 1.18241 
1.85984e-19 1.67386e-17 1 

-0.0835345 -0.059897 -0.179297 
0.0130122 -0.0571399 -0.0059481 
-1.59812e-17 -1.89245e-17 1 

-0.252004 -0.162712 -0.510914 
0.105274 -0.0281971 0.377773 
-1.01041e-17 3.16734e-18 1 

-0.177316 -0.4037 0.204786 