# vtk DataFile Version 3.0
Output file generated by Yade's KinematicLocalisationAnalyser
ASCII
DATASET UNSTRUCTURED_GRID

POINTS 13483 float
580.751 32.756 -0.448581
683.364 80.0702 0.454159
116.057 6.15553 -0.536385
714.673 5.64526 0.377659
487.047 8.16479 0.331868
307.674 35.4204 -0.474472
151.329 6.96909 0.457002
550.439 14.0192 0.190113
484.165 25.5136 -0.207219
665.973 14.0238 -0.543917
204.524 8.78713 0.130784
250.38 6.31498 -0.251895
618.532 45.6162 -0.195151
600.051 27.6154 -0.111299
132.943 17.8791 0.529986
215.056 34.8984 0.403439
211.826 13.0015 -0.295396
282.076 9.73629 0.398949
333.957 32.7819 -0.498961
509.637 8.3116 0.408723
402.406 37.3918 0.108508
568.45 50.5712 -0.267295
709.048 43.116 0.44192
650.92 56.883 0.450727
448.755 17.1025 -0.410189
234.525 44.7795 0.14025
478.848 29.488 0.462478
565.613 22.1339 -0.228847
43.654 16.4026 -0.329268
658.118 33.1578 0.336748
471.107 5.01915 0.365116
15.8794 23.9482 -0.338387
697.091 85.9122 -0.249651
483.194 2.21203 0.635667
75.2166 45.7727 -0.102074
507.744 33.8425 -0.406166
515.745 16.3829 0.525926
336.747 22.6837 -0.233166
517.367 26.3582 0.390025
343.01 33.6336 0.498835
234.318 14.6974 -0.323672
425.566 35.9342 0.0943791
629.124 7.49873 0.227318
186.857 6.26171 0.383406
53.4184 7.10312 -0.124984
66.2937 9.10072 -0.306636
640.427 14.4649 -0.630051
22.5754 11.899 -0.274763
576.654 63.6549 0.326989
631.592 44.5794 0.399031
167.213 32.6084 0.333258
688.819 65.4279 0.166339
33.453 29.0435 0.130964
519.865 2.99932 0.342699
137.738 7.44924 -0.556989
571.303 39.0006 -0.421234
491.179 29.0108 -0.164015
169.887 0.949739 -0.279503
31.8452 2.37636 -0.329012
341.802 17.9407 0.2764
585.16 64.3265 0.0656486
452.281 35.4785 -0.180068
390.847 1.03387 0.205461
648.585 7.16414 0.597673
25.3369 44.7684 -0.241225
249.844 30.9949 0.286885
668.056 8.62628 -0.216703
625.401 72.191 -0.342145
408.813 8.58116 -0.56076
552.064 6.35445 -0.505413
677.679 48.1463 0.438798
126.469 7.79705 0.270414
485.923 27.3309 -0.167372
467.852 16.0768 -0.119729
288.2 16.796 -0.351163
19.9659 13.8645 0.32122
708.166 82.9436 0.324674
326.364 39.2507 -0.298686
631.606 26.4091 -0.428332
639.576 20.2657 0.310175
702.553 14.8756 0.341191
454.182 36.7607 0.163068
89.2674 39.4814 -0.281705
640.39 54.7378 0.240328
613.954 56.8891 0.117149
717.162 48.504 -0.126102
698.37 0.742026 -0.555101
284.925 28.7963 0.479182
597.7 9.63336 0.259192
23.8848 5.56074 -0.626179
129.322 39.2272 -0.173528
500.541 15.905 0.209477
706.751 70.0048 -0.518376
190.551 29.1643 -0.233529
42.3832 35.4387 0.30044
482.003 1.16736 0.133296
230.19 8.83312 -0.404503
669.859 62.0027 0.286604
696.716 61.9567 0.27867
355.037 21.8485 -0.280057
158.925 27.1489 -0.431229
532.403 42.3348 0.429781
372.988 16.0832 -0.450347
405.949 30.2957 0.123042
370.878 4.61289 0.375648
534.155 11.2357 -0.19617
717.086 16.2449 0.262441
77.2134 40.7524 -0.459697
329.522 5.00386 -0.217967
545.141 12.9915 0.352187
353.477 44.5527 0.460623
25.1632 25.9503 -0.462384
29.6166 6.03527 -0.29798
551.883 37.0495 0.526541
494.019 26.3571 -0.163287
24.6669 38.2748 -0.421978
90.3377 31.4711 0.242966
319.542 16.0894 -0.286951
578.951 20.2064 0.130082
465.268 40.1818 0.292418
681.852 14.3793 -0.33228
674.614 11.6323 0.19336
380.873 38.1076 -0.10974
604.25 41.6457 0.134907
233.231 17.4572 0.523812
324.983 3.88533 0.460294
100.501 32.1384 0.39923
113.464 25.0878 0.329561
528.867 43.8668 -0.0782984
301.274 19.0363 0.462774
654.545 39.1159 -0.108466
629.684 69.5625 0.114629
472.592 21.8407 -0.482356
710.304 52.5446 -0.229529
422.18 23.4076 -0.26082
271.813 24.5243 0.301938
630.988 55.2897 -0.279252
274.108 28.5777 -0.455261
560.659 13.7054 -0.227872
327.356 35.9449 0.210817
494.977 12.669 0.54705
361.701 32.7585 -0.122141
424.108 16.8234 -0.111578
313.694 42.4876 0.431372
186.772 30.2126 0.144183
688.207 80.3735 -0.159343
713.865 16.8426 -0.352936
6.00183 12.4943 -0.502956
428.219 22.4164 -0.43623
37.0975 23.4375 -0.114576
371.674 32.3837 -0.451183
389.926 25.5752 0.271878
73.1076 12.3934 0.504248
50.1922 34.2105 0.422381
222.02 13.6245 0.418758
586.751 52.932 0.418259
563.719 24.8366 -0.682317
72.8097 21.5696 0.440083
653.569 57.6315 -0.667642
699.899 34.0502 -0.57827
618.553 67.9712 -0.490589
644.602 3.39268 -0.68299
536.734 30.947 0.504209
569.405 51.8848 0.45631
503.768 19.6581 -0.386817
711.993 3.93673 0.389216
219.711 25.0399 0.166883
125.282 36.2728 0.238099
243.35 6.66922 0.424934
91.9452 4.4785 0.27774
62.6541 10.2603 0.229497
272.248 36.1529 0.337881
15.9712 25.6557 0.439619
542.54 23.3902 -0.547976
575.874 57.4019 0.200208
456.946 22.1669 -0.421021
715.5 95.0103 0.358874
402.096 8.70923 -0.119647
430.287 37.8735 -0.498362
528.423 3.26998 -0.20646
22.4286 24.6435 -0.397465
561.302 5.19793 0.522694
537.687 4.19251 -0.304634
202.791 11.2855 0.492438
420.319 16.6591 -0.220604
308.101 6.2877 0.377254
384.181 19.6241 -0.307188
666.193 56.3054 -0.101206
189.062 26.1113 -0.453452
692.837 6.12064 -0.44854
666.349 50.9278 -0.315481
379.414 10.5479 0.193066
666.226 2.51325 0.279616
585.083 30.4551 -0.471146
682.164 34.0057 0.469916
425.478 45.7797 0.287753
489.803 13.3829 0.44893
458.902 46.9997 -0.227462
441.314 8.78903 -0.181736
621.786 65.9679 0.268323
621.492 60.9382 -0.3201
189.08 39.5446 -0.368478
700.744 15.71 -0.174103
560.781 55.1818 -0.242016
11.3868 16.8226 0.22853
403.465 25.796 0.481727
184.174 23.5606 0.401099
90.9923 40.3411 -0.222588
707.146 66.6013 -0.41213
616.584 73.3762 0.232123
316.306 25.8793 -0.389975
525.082 10.199 0.324112
80.2478 45.5035 -0.200613
244.417 26.1947 -0.488305
544.928 27.695 0.440211
481.889 20.4006 -0.41541
259.806 0.879153 -0.342
541.864 44.4041 -0.457739
523.406 44.7584 -0.562059
475.26 35.6441 -0.340164
492.342 2.36381 -0.6434
651.391 19.3441 0.49013
176.547 12.6381 -0.210616
494.543 38.7735 0.486421
552.215 45.5588 0.109271
71.6319 0.999606 0.315188
248.672 4.77407 0.178084
712.961 18.6787 0.16342
703.031 16.5083 -0.559333
718.485 23.5792 -0.698142
300.753 8.62993 -0.233144
683.053 39.8671 -0.420182
403.887 42.3689 0.309641
445.532 0.790646 -0.453307
621.149 50.8933 0.455655
26.0006 31.801 -0.342339
328.421 41.9159 0.580021
249.523 2.90812 0.369395
701.384 85.4873 -0.170538
655.804 78.0179 -0.223726
284.56 11.0891 0.251771
625.657 50.0873 -0.0872503
548.381 2.48632 0.250749
533.974 7.60975 0.514432
94.8783 18.836 -0.472447
300.596 1.04242 -0.230031
340.675 2.24685 -0.373083
13.9304 7.58392 -0.463879
4.33516 31.3306 -0.307176
158.806 19.2707 0.4138
66.9051 42.7355 0.248956
64.6771 30.1001 0.328238
419.942 14.755 -0.436964
364.456 36.1844 0.475938
686.686 65.8591 -0.149702
19.5262 3.95565 0.274225
69.3131 7.20421 0.140849
595.376 53.4107 0.132644
291.989 0.927319 0.382977
362.385 16.8318 -0.107095
232.702 4.69554 -0.382048
621.345 35.025 0.453294
448.268 7.94858 0.523464
685.519 41.5428 0.480585
602.946 44.7516 0.301622
630.499 24.98 0.166015
417.188 26.7511 0.568269
100.251 45.6202 0.325152
532.554 47.2485 0.0851904
682.41 25.0712 0.329173
235.092 30.9679 -0.276897
31.2927 18.0139 -0.232586
334.292 13.8636 0.518681
105.763 41.3138 -0.46062
265.248 42.4713 -0.224102
422.599 1.73809 -0.408966
708.543 77.9605 0.369966
640.038 2.25307 0.590895
330.014 3.46377 0.575008
297.869 26.6061 -0.159401
458.105 43.7657 0.229291
79.9399 8.83636 0.50865
194.852 45.716 0.382072
697.583 65.3558 0.418033
489.864 41.3713 -0.0750994
197.358 41.7213 -0.314078
158.007 42.9452 0.388223
718.55 42.2941 -0.550887
715.482 15.881 -0.592059
591.391 3.53546 -0.653628
187.768 24.9923 0.119124
538.208 32.1431 -0.120256
540.192 31.5677 -0.341427
406.582 5.7038 -0.146165
477.135 0.97982 0.441876
682.936 67.3595 -0.540378
83.2575 31.9503 0.209032
622.168 26.1291 -0.600074
271.918 15.6665 -0.372738
9.42182 2.33892 0.347352
123.969 38.1085 -0.207592
65.2775 23.516 0.592849
651.134 41.4633 -0.365892
703.019 93.5459 0.165394
183.016 28.8748 -0.197692
711.328 14.4847 -0.42423
43.7793 37.5238 -0.267225
89.2274 29.7729 0.20193
608.859 25.8468 0.488511
410.608 18.9191 -0.560696
512.625 16.9568 0.153727
235.566 28.9414 -0.185294
602.577 6.19282 0.538089
719.245 17.611 0.507169
28.7924 33.0048 0.28515
267.789 7.80372 0.202046
219.654 15.2709 0.259519
1.08795 35.9785 -0.154828
222.973 14.6799 -0.381119
209.333 11.0428 0.127961
211.777 26.5666 -0.282921
130.952 28.6461 0.224515
538.076 17.1691 -0.304258
164.544 14.3106 -0.366397
695.921 82.7693 0.232016
171.835 3.85058 0.512653
46.1391 38.4828 -0.420166
659.479 68.3893 -0.446491
279.023 31.4668 -0.381015
632.967 39.6658 -0.479622
717.127 84.2475 0.476314
298.811 9.25376 -0.104892
671.231 39.8953 -0.457
326.991 2.50409 -0.437894
413.55 24.3859 0.344963
631.689 18.7586 0.557552
103.928 12.146 -0.489024
479.181 3.92584 -0.514586
688.068 42.1169 0.190211
86.5382 7.85613 -0.257988
279.595 14.8553 0.200713
420.707 11.9863 -0.206342
712.369 5.75748 0.570801
395.696 2.00153 -0.543464
174.379 39.2487 -0.302982
685.643 25.5987 -0.535814
127.077 37.2902 -0.233551
260.826 31.575 -0.388449
398.28 22.1722 0.218256
563.484 15.0491 0.414059
385.065 10.2156 -0.558637
453.505 29.4156 -0.433894
684.813 79.5257 0.407194
46.5855 12.0219 -0.238305
297.499 38.7644 -0.257369
377.862 28.3916 -0.451655
407.44 20.953 0.328382
515.191 50.3574 0.356566
678.343 61.8956 0.207378
625.316 60.2411 0.378821
223.586 34.6832 -0.391927
13.4726 31.9714 -0.174203
620.087 62.4614 -0.120043
501.595 46.4931 0.430488
227.145 39.8561 0.124774
637.869 45.3555 0.121258
148.564 9.33403 0.250727
364.868 22.0711 0.363061
459.732 44.9167 -0.122562
411.483 20.1902 0.257106
679.576 78.8081 -0.2907
423.812 3.96462 0.568279
48.6403 26.1174 0.297098
466.382 33.4146 0.339369
431.125 44.8118 -0.388767
701.937 79.3704 -0.22841
670.205 36.733 0.311662
532.513 21.7693 -0.162149
694.199 75.0285 0.433225
291.589 2.21041 -0.470211
376.889 30.9905 0.605001
27.7735 40.1675 -0.333288
672.207 42.1115 -0.157931
591.935 23.7026 -0.597146
459.494 0.821091 0.461312
123.822 4.69091 -0.361785
423.8 40.027 -0.127069
11.8463 0.895731 -0.315775
711.717 7.93785 0.277115
368.451 40.4391 -0.448477
[...]
POINT_DATA 13483
TENSORS Strain_matrix float
-0.213801 0.0388792 0.053268 
-0.212835 0.379509 -0.406441 
0.0460304 0.058519 1.17316 

-0.30478 0.286567 4.26145 
-0.0525269 0.287936 2.70497 
0.00208879 -0.00548143 0.544301 

-0.00686568 0.00357378 0.00787093 
-0.0010449 0.00413152 -0.211984 
1.00543e-05 -0.000471575 0.298391 

-0.0505466 -0.0372039 -0.00812473 
-0.0306564 0.0104722 0.0862009 
0.00467338 -0.00476915 0.0229637 

-0.0641523 0.0321575 -0.00779608 
-0.00415436 0.0415079 -0.104308 
0.0340871 0.00975822 -0.0223469 

-0.00799247 -0.0027823 -0.0298515 
0.00153856 0.000915098 0.0500425 
0.000188254 0.000332685 0.0164839 

-0.000466855 0.00295413 -0.0243751 
-0.000744434 -0.00251493 0.00693791 
-0.00157015 -0.000213817 0.015643 

-0.209604 -0.0486618 0.172255 
0.0249592 0.200778 -0.144034 
0.00918177 0.00696561 0.0244465 

-0.0321417 -0.0130221 -0.0436724 
-0.032664 -0.00278921 -0.0537255 
0.00493451 0.00143879 0.0649752 

-0.00139386 0.00492437 0.124462 
0.114654 0.0113007 0.394406 
0.0102031 0.0110021 0.132831 

-0.00558343 -0.000796317 0.00892273 
0.0018682 0.000327463 -0.00271193 
-0.000271397 -0.000438435 0.0123151 

-0.0016329 -0.0157017 0.0332885 
0.00215759 -0.0020696 0.0106611 
0.00133088 0.00159012 -0.00466149 

0.0338175 0.0525524 -0.0567209 
-0.121008 -0.0182 0.109273 
-0.0243229 -0.0046058 -0.0041683 

-0.318602 -0.225796 0.163759 
0.404292 0.286666 -0.114547 
0.0239656 0.0401792 0.136693 

-0.0134853 0.000355787 -0.0247608 
0.00563724 0.00148941 -0.00971017 
-7.11826e-05 0.000207562 0.0157656 

-0.00861171 -0.00458348 0.0340593 
0.00798817 0.0019716 -0.00234764 
-0.000124703 0.000390223 0.0131574 

-0.00156341 0.00301362 0.0052589 
0.00546782 0.000546576 -0.00884524 
-0.0152278 -0.00436875 0.0129 

-0.00516388 0.000404776 0.0018309 
2.55336e-05 0.000508096 -0.0035894 
1.25713e-05 0.000274077 0.00885848 

-0.0112227 -0.0106135 0.50707 
0.00765904 0.00419371 0.200243 
6.84115e-05 -0.000296505 0.089539 

-0.0157655 0.0267463 0.0858739 
-0.0423885 -0.0492788 0.105334 
0.00392706 0.00187813 0.0537868 

-0.0120147 0.0111867 -0.00444373 
-0.00535715 -0.00597526 -0.0171817 
-0.000123404 -0.000893197 0.0326467 

-0.943915 -0.469193 2.17978 
0.355211 0.721035 -0.854059 
-0.0264881 0.00188174 1.06345 

-0.681039 -0.0153266 0.957121 
-0.645073 0.352395 2.05669 
0.0145418 0.0129168 0.243103 

-0.0603871 0.375954 0.213604 
-0.370754 0.182537 -0.936342 
-0.00218042 -0.00980965 0.213532 

-0.00953379 0.00805694 -0.0775483 
0.000206938 -0.00584285 0.0206537 
0.00385291 -0.000758603 0.0367599 

-0.00964399 -0.0244492 -0.0315542 
0.0216095 0.00812402 -0.00412948 
0.00112726 0.000322433 0.00316007 

-0.00601207 -0.0630143 0.67562 
0.0943705 0.000638925 1.04381 
0.00856257 -0.00229986 0.170522 

-0.170468 0.019316 -0.0330024 
0.167755 0.114595 -0.552823 
-0.0104433 0.0416646 0.327126 

-0.0130651 -0.00727562 0.0635644 
0.0189995 0.00651618 -0.0223497 
-0.00174728 0.00131551 0.0292249 

-0.0201494 -0.127912 0.1173 
0.265395 0.0546279 -0.0402216 
0.000862696 -0.00488279 -0.0244222 

0.00814326 0.000344303 0.112659 
0.0198854 0.027896 0.267802 
0.0079452 0.00652427 -0.0114703 

-0.0173474 -0.0153558 0.0340795 
0.00281271 -0.0157166 0.0352488 
0.002785 -0.00710931 0.0611602 

0.0131345 -0.0918907 -0.148081 
0.103777 0.00213452 -0.143656 
-0.00607157 -0.00560401 0.01199 

-0.0676309 0.110691 -2.63609 
0.0349917 0.111916 -0.0262523 
0.013688 -0.041132 0.022411 

-0.0316021 -0.0329794 0.00629969 
0.0583891 -0.0747353 0.281499 
-0.00443591 -0.00634859 -0.0064124 

-0.214825 -0.0602477 0.265532 
0.0986739 0.231993 1.04597 
-0.0607326 -0.0118644 0.714038 

-0.0941492 -0.0816047 -1.24333 
0.0264756 0.0528002 2.04638 
0.0263491 0.0282805 0.958073 

-0.00900722 0.0101582 0.0130418 
0.00557476 0.00655866 0.0093581 
0.000338749 0.0010753 0.000657522 

-0.40506 -0.210638 0.293469 
0.114331 0.354233 -0.0890595 
0.053312 -0.0783233 0.2109 

-0.01558 -0.0113979 -0.394345 
0.0127638 0.00997101 0.629236 
0.000215422 -0.000750889 0.245839 

-0.0137327 0.0068247 0.0878657 
0.0358543 0.0254986 0.132142 
0.132604 0.0646645 0.632743 

-0.0283394 -0.0447387 -0.0872034 
0.061136 -0.0111764 -0.0683059 
0.0607764 -0.0171466 0.294254 

0.010332 0.0162121 0.0830467 
-0.0191059 0.0314633 -0.0167621 
-0.0740096 0.03458 -0.120222 

-0.00814331 0.00504433 -0.00531969 
-0.00427418 0.000981837 0.0107877 
-0.0001217 6.05283e-05 0.0150633 

-0.0230606 -0.0134436 0.0724628 
-0.024881 0.00143603 -0.0361527 
-0.00469828 0.00121921 0.0144193 

-0.0134935 -0.0256031 0.00972406 
0.0296496 0.00786573 -0.0224358 
0.000520455 0.000523814 0.0111738 

-0.0748196 0.034272 0.033416 
-0.141565 -0.0482081 -0.229058 
0.00574598 -0.0129251 0.033475 

0.00146612 -0.00566382 0.000644958 
0.032345 0.00016209 0.00458713 
0.000149108 -0.00278597 -0.00238966 

-0.00281008 0.0587122 -0.354775 
0.105977 0.169008 -0.49799 
-0.0122529 -0.147809 0.14827 

-0.674682 0.0548671 0.61555 
-0.409047 0.610592 -3.2751 
-0.00903253 0.0128061 0.229984 

-0.00841205 0.00228738 0.00023138 
-0.00364375 0.00295789 0.0127504 
0.00288248 0.000551859 0.0141734 

0.00536711 -0.10765 -0.00116698 
0.106685 0.00294642 0.012262 
-8.08136e-05 -4.75758e-06 0.0157637 

-0.0236299 -0.00194386 -0.11027 
-0.0161783 0.0117136 -0.0246011 
-0.0570303 0.0380681 0.194035 

-0.00860948 -0.00045514 -0.0291691 
0.00446582 -0.0108916 0.00724457 
0.00144181 0.000405434 0.0158265 

-0.0290084 -0.0167278 0.0138402 
-0.00685906 0.0370138 0.697903 
0.00557626 0.000463696 0.0927782 

-0.34808 -0.203756 1.21808 
0.0121473 0.192906 0.348024 
-0.058391 -0.0282924 0.801217 

0.0126941 -0.0163373 0.00665847 
-0.0074051 -0.00548586 0.00425009 
0.000160861 -0.000763695 -0.0103414 

-0.00593724 -0.0355527 -0.0515388 
0.000173813 0.0098928 -0.0013656 
2.12648e-05 0.00401036 0.015997 

-0.0321881 -0.0506752 0.053081 
0.0113468 0.0357164 -0.0309993 
-0.0249609 0.0908545 0.265413 

-0.00312543 -0.00584005 0.000634753 
0.00717358 -0.00322286 -0.00330556 
-0.000876372 0.000655065 0.012286 

0.120655 0.125905 -0.408566 
-0.11609 -0.0134713 0.0285938 
0.0235774 -0.0993838 0.464873 

-0.0713842 -0.120802 -0.43746 
-0.117995 0.164477 1.48224 
-0.0173058 -0.0100908 0.030187 

-0.0150873 -0.0313408 0.0354127 
-0.00302404 0.00436714 -0.0253405 
-0.00179911 0.00264028 0.0303794 

-0.0096292 -0.0550866 -0.741114 
0.031401 -0.00751785 -0.0660205 
0.000892509 0.00263999 -0.0249154 

-0.130982 0.0742762 -0.305248 
-0.0178582 0.0555356 -0.166905 
0.0124174 0.0461873 0.128504 

-0.0377729 0.0373584 -0.0777592 
-0.0632535 0.0254843 0.031419 
-0.0121911 0.00695069 0.0629928 

-0.31002 -0.108368 -0.40608 
-0.0022603 0.142489 0.0384593 
-0.0225707 0.0824184 0.477445 

0.0372698 0.180587 0.261372 
0.0146403 -0.314986 0.15641 
-0.0270404 -0.0973044 0.883301 

-0.0296368 -0.0126894 0.457158 
-0.00874099 0.00448742 -0.698259 
-0.00143467 -0.00343282 0.0649781 

-0.227323 0.225383 0.226821 
-0.0756274 -0.0627193 0.371711 
0.0374594 0.0532647 0.122581 

-0.0584581 -0.0350495 0.00995537 
0.0580144 -0.0160319 0.0338084 
-0.00625926 0.00880227 0.109945 

-0.00256202 -0.00234086 0.000650619 
0.00171069 -8.84172e-05 0.00518063 
-0.000368504 4.0744e-05 0.00548533 

-0.0228609 -0.0249241 -0.0687579 
-0.0342431 0.000873538 -0.00801708 
-0.00891072 -0.00347551 0.00942524 

-0.0733393 0.0493354 -0.0619302 
-0.0133162 0.0813395 -0.049997 
0.00199761 0.010432 0.0362321 

-0.00374977 0.00140104 -0.000949041 
-0.000520081 0.000968713 -0.0115912 
-3.33712e-05 -7.54557e-05 0.00946889 

-0.0382315 0.0076242 0.166841 
-0.00337567 0.0204786 -0.165721 
-0.00773122 -0.00146671 0.044807 

0.0112556 -0.0936234 0.0613661 
0.11165 0.0239282 0.0539942 
0.000268132 0.000583216 -0.0474679 

-0.0132603 -0.000105071 -0.051075 
-0.00390462 0.00159993 0.00114768 
-0.000235982 -3.20447e-05 0.0328545 

-0.354352 0.282551 -0.399642 
-0.364438 0.302522 -0.117544 
0.0633299 -0.0204505 0.0806239 

-0.273138 0.0825546 -0.301764 
0.159098 0.233307 -0.249291 
-0.0101317 -0.0128266 0.0793097 

-0.014824 0.0180507 0.00365642 
0.00530001 -0.019478 -0.00083934 
7.18073e-06 -0.00280652 0.0339832 

-0.144301 -0.0654749 -1.38177 
-0.155361 0.123633 1.00149 
0.0216459 -0.0283177 0.28932 

-0.00901077 0.0147921 0.00376403 
-0.00552849 0.00276563 0.0370684 
0.000366418 -0.000170538 0.00739925 

-0.483293 0.325318 0.187621 
-0.444671 0.400234 -0.397879 
-0.0638362 0.129261 0.799197 

-0.0695245 -0.302301 -0.289507 
0.157149 0.258772 -0.24968 
-0.00592097 0.0620223 0.00656532 

-0.00231595 -0.0644136 -0.0719902 
0.0240966 -0.00960846 -0.028102 
0.00247031 0.00201499 0.0271088 

-0.0133779 0.262407 0.844913 
0.00356101 0.07291 0.37622 
-0.0012276 -0.0113719 0.105652 

-0.00767796 0.00339693 -0.00366095 
-0.00361787 -0.00113582 -0.0122558 
0.00125304 -0.000301383 0.00372323 

-0.292486 -0.0275596 -0.301799 
-0.0622629 0.106756 -0.262566 
-0.052577 -0.125719 0.148391 

-0.0341077 -0.031811 -4.19402 
0.00573234 0.0235617 2.67027 
-0.000764994 -0.00406976 -0.389366 

-0.00975242 -0.00356864 -0.00505045 
-0.000600786 0.00118755 -0.0042689 
0.000516305 0.000935922 0.0137173 

-0.0173664 0.0690227 -0.0201807 
-0.0369585 0.0177177 -0.00614735 
0.0165577 -0.0136502 -0.0422485 

-0.012438 -0.118357 -0.514295 
0.0952754 0.0145237 0.220317 
-0.00390626 0.00204884 0.0983527 

-0.00512276 0.00148764 -0.00495394 
-0.00101127 -8.92134e-05 0.00506177 
0.00136574 -0.00317797 0.0131475 

-0.00657925 -0.0554947 0.153901 
-0.00365794 -0.00243435 -0.224394 
-0.0030115 -0.00688809 0.0362227 

-0.0682 0.158259 -0.0546204 
-0.0106756 -0.0604817 -0.059371 
0.0139342 -0.161349 0.284615 

-0.0172562 -0.0137124 0.0932981 
-0.00150618 -0.0122265 -0.134349 
0.00300094 -0.00179083 0.0656431 

0.0205621 -0.107595 -0.0902431 
0.00145729 -0.0158838 -0.144225 
0.0808769 -0.0214957 0.278341 

0.0117524 -0.116294 0.00413677 
0.0948349 -0.00522991 -0.0223408 
0.000162856 -0.000931975 0.0187733 

-0.0242498 0.00117754 0.0421142 
0.00375582 -0.00541472 0.280376 
0.0117258 0.0342762 -0.142292 

-0.0101096 0.00541434 -0.127881 
-0.000368655 0.0035807 -0.100627 
0.000661583 0.000544805 0.0144115 

-0.0945807 0.174963 -0.689981 
0.0107275 0.123 -0.439255 
0.0653726 -0.0155909 0.187201 

-0.0249665 -0.0129362 0.112762 
-0.00267499 0.00666193 0.0892369 
0.0020658 0.000371065 0.0606546 

-0.00511812 0.020089 0.0279764 
-0.0150582 -0.00570334 -0.00236732 
-0.00119058 -0.000578916 0.0153101 

-0.0449085 -0.0550936 -0.248548 
-0.165499 -0.0159216 -0.35559 
-0.00827693 0.071582 -0.0553762 

-0.113785 -0.104332 0.124203 
0.0458992 -0.0279311 -0.140313 
0.00492257 -0.0446959 0.34036 

-0.038971 -0.00700114 0.00968799 
0.0188719 0.00209881 -0.0116965 
0.00270181 -0.00241196 0.0243381 

-0.052551 0.0314835 0.144969 
-0.00890797 0.0451886 0.11183 
-0.00646947 0.0062575 0.0197277 

-0.00734728 0.00199495 0.000655752 
0.0022214 0.00182708 0.000319964 
1.37804e-05 0.000322751 0.00778574 

-0.0978574 -0.0324596 0.246066 
0.0716352 0.132229 -0.18005 
0.00414771 0.0220946 0.24852 

-0.0241147 -0.0202185 0.508741 
-0.0291462 0.00903329 0.364129 
0.00508313 -0.00430618 0.083514 

-0.0655164 -0.0217398 0.0588456 
0.0708802 0.0320438 0.0486121 
-0.00150124 0.0115087 0.0797292 

-0.0212884 -0.00688786 -0.0159983 
0.00740838 0.0141183 0.0226978 
-0.00248443 -0.00124349 0.00031728 

-0.246509 0.124995 -0.218511 
-0.145393 0.238918 -0.701502 
-0.00531405 -0.00602286 0.442083 

0.0318308 -0.0241353 -0.0062742 
0.0249824 -0.00276985 -0.0864722 
-0.00385853 -0.00560737 -0.0229668 

-0.0133643 -0.0331365 -1.18445 
0.0280339 0.0356263 -0.093951 
0.0360499 0.0335631 0.532118 

-0.0129913 0.00433611 0.0270236 
-0.00463906 0.00151421 -0.0115857 
-0.00150883 0.00316678 0.018159 

-0.00690125 -0.00159506 -0.00471307 
0.00140446 0.00164397 -0.000213791 
-0.000815738 0.000968187 0.00761945 

-0.0580563 0.0520015 -0.130959 
0.0674137 0.055485 -0.221779 
0.0124274 -0.0153423 0.0892656 

-0.00678927 -0.0195628 0.327181 
0.020997 -0.00581679 -0.0320484 
-0.00568291 0.00475606 0.20715 

-0.145312 0.0974095 0.151075 
0.188691 0.0886437 0.0601462 
0.00359017 -0.00671517 0.105005 

-0.00466119 0.251554 -0.760507 
0.377066 -0.0200049 -0.0515774 
-0.164248 -0.0633224 0.797069 

-0.00265875 -0.0177103 -0.0263833 
0.00337878 -0.00234993 0.0605162 
0.00211759 0.000573589 0.0247658 

0.0211661 -0.045902 0.00133875 
0.0683852 -0.000357565 -0.0121958 
-0.00380754 0.00265118 -0.0444822 

-0.0299766 0.0131215 0.582797 
-0.0086378 0.0248652 -0.165181 
0.00595835 -0.0239914 -0.783095 

-0.00640256 0.00195968 -0.00548341 
-0.00050173 0.00232413 0.00419337 
-0.000154295 -0.000331498 0.00420729 

-0.0113197 0.0217506 -0.00497614 
-0.0131092 0.0063263 0.0119301 
0.00196262 0.013052 -0.0508039 

-0.00488514 0.0070233 -0.015795 
-0.00386193 0.00181499 0.00491722 
0.000327347 -0.00146835 0.0151417 

-0.0298082 -0.0190292 -0.104125 
0.0501091 0.0242983 -0.135399 
-0.0339245 0.0380016 0.14596 

-0.00535664 -0.0025999 -0.012501 
0.00421153 0.000742546 0.00661861 
-0.000230921 -0.000448013 0.00964087 

-0.0579273 0.00888241 0.451841 
0.0752988 0.067461 0.120648 
-0.00631062 -0.00109729 -0.0721271 

0.0325802 0.190595 0.0315672 
-0.227509 -0.0361442 0.110317 
-0.0180442 -0.0792699 0.273642 

-0.0462038 -0.0236879 0.333545 
-0.0410159 0.0185949 -0.296705 
-0.00186791 -0.012584 -0.221492 

0.0288106 0.145904 0.796287 
0.0585538 0.0289688 0.0351754 
-0.0570927 -0.0941637 0.168889 

-0.00652749 0.0143568 -0.00496857 
-0.013021 -0.00047265 -0.00709971 
7.73281e-05 -0.000692729 0.0140874 

-0.00654904 0.00485258 -0.00919101 
0.0018785 0.00160565 -0.0217068 
0.000370607 0.000600046 -0.00218273 

0.0725488 0.275294 0.156707 
-0.396783 0.059039 0.552722 
0.0283324 0.0249748 0.0642716 

-0.00574378 0.00388245 -0.0151855 
-0.00120707 0.00036804 0.00696477 
2.35821e-05 4.32493e-05 0.0124929 

-0.0467032 0.192869 0.245378 
-0.337076 0.0965401 -0.0463007 
-0.0275903 -0.0580439 0.344836 

-0.00757511 -0.0140364 -0.00167774 
0.00304424 -0.00247585 0.0074416 
-0.000813623 0.000691698 0.0157169 

-0.0243738 0.0282706 -0.261757 
-0.055522 -0.00586856 0.122528 
-0.00124997 -0.00164451 0.0192442 

0.000521836 -0.0499195 -0.0328652 
0.00201905 -0.0124667 0.0412324 
0.00235824 0.00158854 0.0556001 

-0.00553265 0.0139058 0.00240145 
-0.00971333 -0.00253336 0.0077313 
-0.000804424 0.000541749 0.0113851 

-0.00697537 -0.0028309 -0.0610111 
-0.000748009 0.000791206 -0.0487898 
0.000575205 -0.000478825 0.0104911 

-0.00729167 0.00207444 0.000896636 
-0.00174934 0.00072776 0.00323938 
0.00017175 -0.000766076 0.00473533 

0.00590693 -0.096721 0.0215062 
0.0990747 0.00785572 -0.0178459 
-0.0013696 0.000498674 -0.0170524 

-0.0404751 0.00368529 -0.0075207 
0.00491558 -0.00328928 0.00362477 
-0.00260076 -0.00151867 0.0310651 

-0.00950825 -0.00785408 0.406956 
-0.00231309 -0.00656594 -0.179369 
0.00114704 0.000430336 0.0780295 

-0.00335423 0.0118486 0.0123886 
-0.00715902 -0.00171811 0.00608365 
-0.00031276 3.645e-05 0.00777536 

-0.0400422 -0.0264895 0.0574029 
-0.0107927 0.0084033 0.0350249 
0.00147638 -0.0463024 0.242803 

-0.0183209 -0.0118802 -0.104554 
-0.0291868 0.0265111 0.34112 
0.000697083 0.0184251 0.558852 

-0.0156798 -0.012516 0.01908 
0.0112053 0.0100777 0.0102188 
0.0040518 -0.0139065 0.102739 

-0.0196462 -0.0240618 -0.202461 
0.0230334 0.0041855 -0.142781 
9.26352e-05 -0.00095863 0.0881452 

-0.000528558 -0.0199936 -0.308339 
0.0200685 0.00604439 0.0221023 
0.00129178 0.00148003 0.0246298 

-0.00583125 -0.00928311 -0.0504062 
0.0148624 4.61404e-05 0.01065 
0.00382626 -0.00219526 0.0212238 

-0.0935324 -0.22141 10.1635 
-0.0227927 0.256655 -8.80193 
-0.0175673 0.0179863 -1.25359 

-0.161357 0.0130554 -6.09973 
-0.0752962 0.0757643 12.8744 
0.00712627 -0.00185169 -0.0815424 

-0.00961473 -0.0276955 0.0577132 
0.0161077 0.00775087 -0.188248 
-0.00312543 -0.00189028 0.0114926 

-0.125216 -0.563811 241.268 
-0.0317934 -0.0410745 56.886 
0.000538719 0.00210099 0.0541474 

-0.363359 0.144382 0.481325 
-0.420981 0.208424 0.476772 
0.001738 -0.00177662 -0.125996 

0.0112336 -0.0699263 0.748783 
0.0915641 -0.0471748 0.297454 
-0.00297846 -0.00608643 0.0228699 

-0.0363683 0.294023 10.4318 
0.0134345 0.205154 1.35945 
-0.000117287 -0.00627817 0.090626 

-0.0649185 -0.0504253 0.0193962 
0.0992122 -0.00358088 -0.0542425 
-0.0143161 0.0161178 -0.0993497 

-0.694728 -1.0439 -3.75578 
0.297597 0.808832 -0.0119645 
0.00899625 -0.00430167 -0.379091 

-0.185508 -0.188407 0.0497985 
-0.0420398 0.1756 -0.309372 
0.0324629 -0.0494135 0.365329 

-0.0220274 -0.000126321 0.0361705 
0.0059856 -0.0163812 -0.0166471 
-0.00590217 -0.00108638 0.0228932 

-0.014567 -0.00852863 0.00359551 
0.00839241 0.0065481 0.00270846 
3.97254e-06 -0.00103775 0.00753354 

-0.00985765 0.0035282 0.0119026 
0.00787645 0.00396918 0.00847429 
-0.000270138 -0.000307604 0.0117664 

-0.052826 0.0030373 -0.185463 
0.0213075 0.00671451 -0.0102036 
0.0462751 -0.106893 0.892413 

-0.00376481 0.00612424 0.0179209 
-0.00359446 0.00794945 0.0202134 
-0.00067789 -0.000243944 0.00910159 

-0.0121991 -0.0189938 -0.01556 
0.00828954 0.00147301 0.00966527 
-0.000607139 0.00208731 0.0254511 

-0.00575179 0.00387385 -0.010189 
-0.00129755 0.000676322 -0.00710118 
-0.000637442 0.000344609 0.0128174 

0.00111917 -0.00421761 -0.273405 
0.00401772 -0.0234765 0.0704096 
0.00251036 -0.00119926 0.0902678 

-0.0658095 0.0392774 -0.608597 
0.0391945 -0.0401404 -1.23186 
0.0167743 0.000969122 0.0384302 

0.0189645 -0.0322196 0.224704 
0.0219246 -0.0211368 -0.224132 
0.0177208 0.0205501 0.238518 

-0.00203972 -0.0273872 -0.0293226 
-0.000475006 -0.0113702 -0.0186371 
-0.0020528 -2.18681e-05 0.0014006 

0.0318789 -0.023842 0.203489 
0.076282 -0.0259901 -0.0252238 
0.00406117 -0.00233991 -0.0673479 

-0.0166481 0.00723586 0.00147346 
0.0051732 0.00444667 -0.00104799 
-0.000394619 0.000387152 0.0185243 

-0.0779217 -0.0442641 0.225895 
-0.0125801 0.0650478 -0.179929 
-0.0014629 -0.00102769 0.0192103 

-0.030947 0.0574054 0.148769 
-0.0951798 -0.0193922 -0.0794182 
-0.00145083 -0.00140187 0.0936097 

-0.050748 0.0238271 0.0225735 
0.088633 0.024141 -0.0235751 
0.014644 -0.0058539 0.100579 

-0.0133533 0.00431503 0.0347825 
-0.0281452 0.0540029 0.0598675 
-0.000607782 -0.0043132 0.0602455 

-0.0986418 -0.272028 -0.0581243 
0.0424541 0.124957 0.0613823 
0.00572898 -0.00766865 0.0521245 

-0.00396406 0.00115686 -0.032496 
0.00133559 0.000280026 -0.0854338 
-0.000223066 -6.76687e-05 0.0150254 

-0.0097353 0.0131713 -0.00600575 
-0.0049151 0.000522896 0.00165973 
0.00183314 0.000107753 0.0152848 

-0.00973645 0.00272897 -0.0533511 
-0.00252899 0.00224036 0.0418098 
0.000161641 7.79378e-05 0.0139846 

-0.00152533 -0.00944024 0.00893815 
0.00490918 0.0135633 0.0359969 
0.000381426 0.000611583 -0.00982487 

-0.335241 -0.0532709 0.768252 
-0.107073 -0.0606933 0.00647185 
0.0155521 0.00989021 0.11191 

-0.00755025 -0.000141831 -0.0108996 
-0.00110691 0.00095639 -0.00878531 
0.000201177 -0.000210433 -0.00518299 

-0.00327343 0.042433 0.195102 
0.0149859 -0.00189031 0.0132783 
0.00416328 0.00552299 0.0735455 

-0.0130219 -0.000307275 -0.0225178 
0.0209335 0.0228932 -0.159666 
0.000661746 0.00182728 -0.00794337 

-0.0150452 0.00260335 0.0799534 
0.0329506 0.0289737 0.244979 
0.000181812 0.00537712 0.0355639 

-0.0539833 -0.0814818 -0.189543 
0.141509 0.215283 0.178058 
-0.0027352 -0.106509 0.395638 

0.00102369 -0.109035 -0.364696 
0.129488 0.00922051 -0.604718 
0.0234223 0.0247875 -0.186208 

0.00514709 -0.0681137 0.00927883 
0.0820896 -0.0126606 0.00622632 
0.000327211 -0.00033008 0.00691159 

-0.0712128 -0.115895 -0.359999 
-0.0096461 0.0720633 -0.284641 
-0.00920982 -0.0549246 0.0536587 

-0.0328781 0.0248708 -0.0161864 
0.00424246 -0.0211129 -0.0278363 
0.00333679 -0.00261525 0.0783158 

-0.0977322 -0.0389933 0.00734444 
-0.0461194 0.0446811 -0.238669 
-0.0249215 0.0510939 0.0423788 

-0.0171979 0.0170658 -0.00201949 
-0.0129071 -0.00573962 0.00629332 
0.00101751 -0.00166778 0.0370072 

0.041581 -0.0879448 -0.266986 
0.0229472 -0.0867499 -0.434862 
0.0224584 0.000483576 -0.226669 

-0.0194567 0.132581 1.11422 