# vtk DataFile Version 3.0
Output file generated by Yade's KinematicLocalisationAnalyser
ASCII
DATASET UNSTRUCTURED_GRID

POINTS 13483 float
553.757 34.9827 -0.597171
642.859 81.2819 0.462351
113.085 6.09161 -0.559388
673.719 5.58824 0.381517
474.492 8.19521 0.365502
302.007 35.8595 -0.479905
147.948 7.05325 0.456337
526.637 22.785 0.135197
472.857 25.8399 -0.179123
627.92 14.7152 -0.547082
200.388 8.72593 0.141327
245.889 6.29949 -0.25172
586.839 53.8241 -0.201516
568.207 35.5188 -0.1089
129.708 17.8988 0.537518
210.71 34.9801 0.400634
207.696 13.0034 -0.299181
277.257 9.94274 0.414314
328.306 33.7576 -0.503258
496.613 7.97084 0.476054
395.42 37.5198 0.110775
542.916 58.874 -0.343481
668.095 45.5717 0.458295
612.166 60.7433 -0.541989
440.582 19.4522 -0.495828
230.187 44.9619 0.140418
467.971 31.2631 0.458887
539.495 27.3873 -0.307007
41.8229 16.8278 -0.386676
619.754 33.861 0.360831
458.828 4.94712 0.387244
15.8405 24.3464 -0.401523
655.998 87.9091 -0.250032
470.754 2.18702 0.652656
73.5189 46.0604 -0.101532
496.175 33.5306 -0.38499
502.136 15.8627 0.618912
330.388 22.4963 -0.243207
502.901 28.7998 0.467919
336.904 33.7296 0.536383
229.996 14.7427 -0.326827
418.139 36.5062 0.0898389
593.493 7.03976 0.11144
183.045 6.26059 0.406216
51.4335 7.18331 -0.0915651
64.3719 9.15245 -0.300879
603.402 14.2537 -0.619908
22.0739 11.9615 -0.278793
545.335 74.2103 -0.352852
599.434 53.5579 0.398634
163.635 32.7437 0.305869
648.894 66.8539 0.168684
32.2593 30.1015 0.132844
506.766 2.84483 0.408162
134.552 7.4796 -0.554988
545.711 46.4512 -0.354186
479.149 29.5332 -0.193131
166.265 0.959331 -0.282499
30.7725 2.33111 -0.357689
335.69 17.836 0.239473
554.242 73.8576 0.063938
443.3 38.0391 -0.186227
384.308 1.03258 0.206138
611.641 7.00988 0.615849
24.4859 46.179 -0.238375
245.567 31.3705 -0.344128
630.185 9.45894 -0.239987
591.634 81.6751 -0.354122
402.247 8.89569 -0.587319
529.16 8.93023 -0.642068
638.392 49.1534 0.431565
123.396 7.79554 0.273956
474.388 28.4047 -0.128073
457.175 17.0816 -0.0977302
283.328 17.0226 -0.352215
19.6518 14.0914 0.332392
667.081 85.4135 0.331465
320.681 39.9941 -0.299388
593.991 26.9196 -0.399457
602.714 20.012 0.34883
661.829 14.9967 0.334202
445.081 39.4277 0.160578
87.4273 39.6715 -0.281647
607.202 62.3827 0.235415
581.707 64.9269 0.103644
676.248 49.4642 -0.13795
657.672 0.747638 -0.564013
279.942 28.8813 0.488638
567.667 9.84352 0.165082
23.1064 5.73765 -0.646425
126.055 40.2717 -0.179208
487.758 15.625 0.232327
666.259 72.3899 -0.524835
186.824 29.3614 -0.230252
41.1302 36.1922 0.304261
469.56 1.1587 0.144121
225.897 8.89288 -0.408227
630.569 62.7639 0.28926
656.818 63.782 0.278003
348.657 21.9403 -0.28135
155.366 27.3035 -0.433498
507.586 52.3765 0.396633
366.485 16.0905 -0.451295
398.91 30.4184 0.12396
364.402 4.62876 0.377697
517.917 15.446 -0.155498
676.235 15.8183 0.273724
75.4537 41.0115 -0.465422
323.416 4.97024 -0.233839
521.385 21.0218 0.330196
347.263 45.0247 0.488593
24.3538 27.1064 -0.605839
28.8301 5.93402 -0.311524
526.981 45.2275 0.518684
481.686 26.3513 -0.149702
23.9502 39.7855 -0.433898
88.5416 31.7386 0.237087
314.224 16.6302 -0.283737
552.058 21.3097 0.142945
455.912 43.7491 -0.223021
642.824 15.8603 -0.581032
636.471 13.1063 0.162142
374.157 38.2069 -0.119103
572.3 49.4424 0.12764
228.943 17.5155 0.527906
318.95 3.93863 0.457018
98.4008 32.0127 0.407859
110.438 25.1006 0.34912
503.939 54.1545 -0.0680642
296.109 19.1398 0.492355
615.638 39.9404 -0.151107
595.95 79.5373 0.104679
461.933 23.5919 -0.48858
670.729 55.2552 -0.227675
415.086 23.9273 -0.277263
266.779 24.5783 0.303419
598.907 64.2241 -0.279546
269.098 28.6415 -0.446852
533.99 18.9175 0.262263
321.711 36.7236 0.204034
482.165 12.6533 0.566537
355.286 32.8672 -0.123574
416.71 17.0807 -0.123452
308.043 43.0123 0.432369
183.097 30.3873 0.148766
647.587 81.854 -0.1612
673.187 16.7341 -0.364604
5.86318 12.8802 -0.477995
420.926 22.7013 -0.428571
35.6134 24.3236 -0.0983045
365.17 32.3638 -0.461821
383.192 25.5874 0.28464
70.6949 12.5375 0.492866
48.8852 34.5968 0.423923
217.799 13.6934 0.421117
555.134 62.3814 0.488335
538.962 32.0349 -0.615968
70.8226 21.8637 0.467913
615.485 59.5655 -0.659866
660.396 36.4069 -0.680588
585.264 76.3302 -0.486813
607.912 3.08361 -0.686995
511.049 40.337 0.418047
543.553 60.1358 0.620276
490.988 19.1873 -0.424874
670.984 3.92414 0.408777
215.528 25.1391 0.168025
121.663 37.6784 -0.196961
238.91 6.68037 0.433625
89.1814 4.43143 0.279655
60.7528 10.3827 0.226855
267.238 36.2795 0.374614
16.2707 25.922 0.420523
517.122 32.249 -0.511606
543.846 68.3154 0.197389
447.937 24.8359 -0.408337
674.182 97.5394 0.356741
395.505 8.77891 -0.114354
422.405 39.148 -0.54295
515.042 3.39447 -0.208549
21.9386 25.6753 0.528876
534.167 7.89821 0.591191
521.549 7.23414 -0.324972
198.854 11.176 0.488655
413.414 17.1623 -0.220109
303.031 6.58288 0.336752
377.563 19.6277 -0.311486
626.649 56.9217 -0.109485
185.563 26.2318 -0.458507
652.271 6.19787 -0.557232
627.039 51.5409 -0.332776
372.898 10.519 0.196136
629.428 2.34835 -0.47828
557.319 32.2427 -0.462305
643.074 35.3729 0.484009
417.223 46.3598 0.319708
477.122 13.4698 0.469604
449.253 50.0065 0.234458
433.715 8.94177 -0.174577
588.762 74.7433 0.25995
588.626 69.7044 -0.312903
185.431 39.721 -0.372974
660.063 15.9179 -0.171564
528.077 61.8519 -0.241066
11.2752 17.2598 0.231309
396.518 25.9111 0.494763
180.588 23.6757 0.398264
89.167 40.5254 -0.220897
666.805 69.0429 -0.427335
583.216 81.862 0.228212
310.769 26.44 -0.387883
510.885 10.2779 0.396154
78.5053 45.7358 -0.206717
240.274 26.2276 -0.490253
519.796 36.3629 0.442138
470.385 21.5843 -0.438034
255.255 0.878376 -0.345299
517.364 53.3874 -0.430361
498.4 55.815 -0.529702
465.926 39.1815 -0.433893
479.631 2.37736 -0.647926
613.953 19.2795 0.57449
172.921 12.7119 -0.210484
483.548 38.2694 0.596394
527.183 53.4024 0.112663
69.5639 0.971023 0.316818
244.198 4.78253 0.180267
672.43 18.6276 0.152146
662.324 16.6557 -0.550164
677.855 23.597 -0.631237
295.664 8.74635 -0.230033
643.861 41.1724 -0.421729
396.878 42.4585 0.317051
437.925 0.852977 0.469874
588.769 59.438 0.416898
25.1159 33.2039 -0.363069
322.675 42.7518 0.576385
245.035 2.91384 0.379856
660.292 87.7186 -0.16974
621.058 81.396 -0.247293
279.691 11.3575 0.265662
593.452 59.0192 -0.0800218
528.721 2.58654 -0.205043
517.664 10.9077 0.671711
92.6883 18.811 -0.493423
295.503 1.12674 -0.232269
334.48 2.2405 -0.377452
13.5396 8.09768 -0.572666
4.29867 31.6866 -0.311854
155.276 19.4092 0.415045
65.3157 43.1007 0.24825
62.7289 30.4404 0.315249
412.208 14.6586 -0.466322
358.029 36.2808 0.476377
646.761 67.1709 -0.153878
18.6287 3.99648 0.288394
67.4118 7.21437 0.148856
563.561 61.9431 0.129071
286.94 0.941754 0.376787
355.961 16.886 -0.106854
228.346 4.71982 -0.378819
589.855 42.9732 0.246809
440.514 7.99165 0.722295
646.349 42.8636 0.490713
570.963 52.5235 0.291814
593.897 24.9634 0.102081
410.106 27.1214 0.577094
98.0951 46.3543 0.312699
508.027 57.0509 0.0783503
643.399 26.7229 0.335345
230.925 31.0767 -0.268491
29.8022 18.9644 -0.210346
328.002 13.7889 0.536803
103.248 41.6347 -0.468284
260.608 42.8019 -0.217599
415.64 2.17715 -0.255804
667.699 80.4681 0.369694
603.511 2.22997 0.672579
323.914 3.45 0.588229
292.765 27.0152 -0.196884
448.503 46.6763 0.209056
77.573 9.17018 0.516562
191.186 45.9002 0.385125
657.505 67.2305 0.439287
479.729 41.9337 0.0717099
193.714 41.8398 -0.31845
154.487 43.0978 0.390764
677.568 43.2953 -0.546773
674.632 15.5321 -0.591771
560.997 3.6162 -0.652222
184.198 25.1374 0.109687
512.818 41.1602 -0.108161
514.816 40.534 -0.283973
400.028 5.90731 -0.147983
464.748 0.967577 0.4899
642.996 68.5447 -0.55313
81.3737 32.1692 0.21011
586.983 30.2863 -0.662395
267.126 15.7112 -0.384283
8.61807 2.66751 -0.396008
121.167 40.2113 -0.230909
63.3431 23.7738 0.608638
612.009 41.8177 -0.368088
661.703 95.8286 0.164251
179.378 29.0013 -0.196246
670.548 14.4685 -0.428843
42.5609 38.1963 -0.277535
87.3878 30.0543 0.199491
576.768 33.4056 0.356153
403.764 19.1866 -0.55343
499.33 16.5805 0.146897
231.347 29.0355 -0.18407
571.963 6.21434 0.562629
678.225 17.0521 0.554311
27.8998 34.3269 0.292886
263.15 7.77195 0.204388
215.453 15.338 0.262649
1.06739 36.3411 -0.160461
218.747 14.7479 -0.385038
205.189 11.0453 0.130022
207.583 26.5459 -0.305027
126.931 29.2689 0.138421
513.984 24.7592 0.226486
160.974 14.4058 -0.368038
654.998 84.698 0.235964
168.193 3.88627 0.509581
44.9532 38.9838 -0.416976
621.344 69.9529 -0.511005
274.044 31.5099 -0.391256
595.103 43.2798 -0.489313
676.057 86.8787 0.463818
293.73 9.35846 -0.0981527
631.949 40.8509 -0.475224
320.924 2.49567 -0.448385
406.546 24.693 0.343404
594.306 19.026 0.747165
101.213 12.5096 -0.55268
466.814 3.8621 -0.528615
648.795 43.4335 0.177406
84.0126 7.98538 -0.301435
274.756 14.9952 0.201289
413.273 12.1066 -0.217984
671.383 5.74602 0.582235
389.14 2.00605 -0.544237
170.785 39.3783 -0.305389
646.637 27.1049 -0.554867
123.746 38.5658 -0.23505
256.103 31.7629 -0.37285
391.435 22.192 0.221996
537.029 19.6947 0.434375
378.497 10.2088 -0.567069
444.479 32.0364 -0.429879
644.33 80.8019 0.419475
44.8068 12.3981 -0.244216
292.004 39.2999 -0.253915
371.3 28.4586 -0.454047
400.551 21.1448 0.340932
489.537 61.4961 0.357819
638.667 62.913 0.205325
592.528 69.2914 0.377032
219.315 34.7616 -0.387728
13.3452 32.5617 -0.176721
587.089 71.0849 -0.118718
474.18 57.039 -0.468964
223.012 39.8211 0.118877
600.943 46.7717 0.102407
145.163 9.40428 0.253831
358.414 22.1312 0.364253
450.086 47.9583 -0.111265
404.542 20.5357 0.266973
639.211 79.8402 -0.292415
416.282 4.19494 0.640514
46.9122 26.6861 0.366859
456.79 36.9525 0.327853
422.75 46.0028 -0.40874
661.047 81.5684 -0.233259
630.973 37.7446 0.318239
508.738 30.5201 -0.211351
653.641 76.8171 0.435501
286.518 2.25503 -0.46301
370.358 31.0282 0.607099
27.0399 41.603 -0.34991
632.949 43.0919 -0.183706
563.8 25.4593 -0.665416
449.195 2.18205 0.562368
120.78 4.68421 -0.370026
416 40.5394 -0.122054
10.9952 0.96646 0.405475
670.791 7.88649 0.295309
361.897 40.6154 -0.493613
[...]
POINT_DATA 13483
TENSORS Strain_matrix float
-0.422627 0.245365 -0.994329 
-0.178872 0.361269 -2.11283 
0.0157003 0.0081512 0.0950345 

-0.235888 0.288942 2.90302 
-0.014662 0.117351 1.31614 
-1.83117e-05 -0.000862159 -0.00385182 

-0.0164488 0.0118971 -1.59156 
0.00302681 0.00181829 0.565877 
0.00129055 -0.00329875 0.14564 

-0.0009849 0.0202358 -0.00163119 
-0.0346693 -0.016716 0.0224529 
-0.00392949 -0.00128072 0.0191248 

-0.0354011 -0.00151196 -0.00229086 
0.00534672 0.00797091 -0.0370612 
-0.000237204 -0.0152604 -0.033116 

-0.00805079 -0.00174831 -0.743522 
-0.00196987 0.0105039 0.206006 
0.0142313 0.00459016 -0.348751 

-0.00915928 -0.0183199 -0.0781314 
0.0129294 0.00779921 0.0811837 
0.000221432 0.000779962 0.0314985 

-0.0453947 -0.219033 -0.0572916 
-0.0246903 0.0122265 0.30368 
0.0443532 -0.0171525 0.1109 

-0.0944924 0.161278 -0.202474 
-0.108929 0.103921 -0.149301 
0.013638 0.03128 -0.031659 

-0.0522904 0.03371 -0.270574 
0.0669297 0.0267499 -0.00849248 
-0.0349774 0.00688928 0.104967 

-0.0129834 0.00143177 0.0652509 
0.0131786 -0.00501334 0.00864307 
-0.0121725 -0.040209 0.113281 

-0.00574804 0.000215143 0.00789758 
-0.0045837 -0.0124404 0.0106796 
0.000892789 -0.00187125 0.0274782 

0.00383414 -0.0779058 0.310203 
0.105486 0.0464752 -0.119111 
-0.00108833 0.0128267 0.00252175 

-0.0416284 0.0560323 0.0215958 
0.0211178 0.0923514 0.0295463 
0.0280403 0.0544667 -0.0212462 

-0.018305 -0.0217818 -0.149951 
0.0280097 0.0153675 0.387088 
-0.00136735 0.000749427 0.016961 

0.00456853 -0.00373184 0.257274 
0.0189669 0.0222858 0.198946 
-0.00234901 -0.00583709 0.154922 

-0.00338079 0.00100062 0.000746492 
0.00287794 -0.00211641 -0.00556562 
0.000229479 0.000390825 0.00742722 

-0.0206441 -0.0151835 0.00816679 
0.0389595 -0.000543763 -0.0309798 
0.00208653 0.000107022 0.0292807 

-0.0194594 -0.0096794 1.74693 
-0.0566238 0.0324045 1.29036 
-0.034197 0.0670933 -1.98295 

-0.02239 -0.00872406 -0.194283 
-0.0290002 -0.0323206 0.214631 
0.00977732 -0.000524108 0.0715766 

0.000921232 0.0283212 0.0136575 
0.00372141 -0.00456566 -0.0230242 
0.00134417 -0.00176681 0.0337843 

-0.787328 -0.331479 0.454173 
0.0822576 0.279816 -1.42712 
-0.0110259 -0.0584237 0.192709 

-0.4001 0.127996 -0.8764 
-0.473451 0.256184 -0.06282 
0.00641865 -0.0271558 -0.293718 

-0.260499 -0.071873 -1.85747 
-0.493482 0.200869 -1.80537 
0.00572377 -0.0216023 -0.560719 

-0.090527 -0.0380759 0.49271 
0.160938 0.0822252 0.913213 
0.0283258 -0.00219097 1.06741 

-0.00769831 -0.0798971 -0.0170579 
0.0608936 0.0095531 -0.0071169 
5.86301e-05 0.000638043 0.00718132 

0.00461879 0.141363 0.15589 
-0.151067 0.022702 0.19763 
-0.0430514 0.0432614 0.408793 

-0.0696084 0.0322637 -0.196849 
-0.308864 0.149161 -0.375213 
-0.00596444 -0.0372871 0.316922 

0.00824444 0.0134715 -0.045069 
-0.0365478 -0.0119491 0.00656559 
0.000997719 -0.00200795 0.0126597 

-0.315878 0.00934377 -0.585525 
-0.0433477 0.263887 -0.548364 
0.0142564 -0.000368338 0.0893802 

-0.0178892 -0.0120354 -0.00282983 
0.00302133 -0.0558956 -0.0105669 
-0.00567771 -0.00686532 0.084253 

-0.0925675 -0.0159549 0.258805 
-0.0864769 0.0962675 -0.218178 
-0.0192538 0.0104738 0.101456 

-0.00437668 -0.0537042 -0.0421217 
0.0555027 0.00462945 -0.0464911 
0.00175742 0.00253076 2.2691e-05 

-0.0305982 -0.00417855 0.252553 
0.00647692 -0.00598246 -0.233958 
-0.00264156 -0.00716764 0.308245 

-0.00710109 0.00777853 0.00217521 
-0.00718169 -0.000242891 0.0102265 
-0.000380191 -0.000434374 0.00644234 

-1.97591 -1.95361 4.17144 
1.6387 1.76891 -2.50494 
-0.033276 -0.0802188 0.575072 

-0.185295 0.00511972 -1.23829 
-0.012241 0.0480537 -0.243869 
0.0348899 0.0171744 0.975495 

-0.111686 -0.109228 -0.467835 
-0.0640517 0.0407148 -0.802785 
0.00905244 0.0529537 0.045167 

-1.89435 -1.13967 -0.752241 
1.01394 1.22459 1.20632 
-0.082654 -0.00781472 0.268184 

-0.0214003 0.0229006 -0.0363379 
-0.0237442 0.0183681 0.320766 
-0.00196877 -0.00188365 -0.119669 

-0.00932355 0.0047918 0.0144054 
-0.00491912 0.00262423 -0.00719059 
0.00104162 -0.000311013 0.0111241 

-0.00800834 -0.0809197 -0.0325721 
0.0645538 0.0140683 -0.00863874 
-0.0053306 0.0161309 0.0424219 

-0.174566 0.0159738 -0.0534309 
0.000730855 0.0755218 -0.332948 
0.00191666 -0.00145976 0.151183 

-0.0237278 0.00766447 0.0165507 
-0.0162351 0.00375658 0.0587278 
0.000552668 -0.000924193 0.0364479 

-0.0255657 0.0259148 -0.0210601 
-0.0108283 0.037751 -0.0814028 
-0.025417 0.016365 0.0852596 

0.00166772 0.0252501 -0.0101706 
-0.0118088 0.00316255 0.0501608 
0.00778026 0.0141 0.0528726 

0.0207521 0.0176771 0.02462 
-0.0279073 -0.0268982 0.0309941 
-0.00129227 -0.00214315 0.00148461 

-0.00185276 0.0665626 0.011581 
-0.0336533 0.00457385 -0.0101425 
-0.00322928 -0.000414687 -0.0103243 

0.0812197 -0.197895 2.5361 
-0.0683703 -0.102908 1.57305 
0.00668875 0.00549438 -0.247674 

-0.117714 0.153782 -0.698662 
-0.142686 0.194679 -1.7741 
0.0442044 0.0264256 0.355727 

-0.00278848 0.000594342 0.00853493 
0.00165621 0.0027011 0.0014165 
-0.00119092 -0.000127367 -0.000950872 

-0.00859062 -0.0453302 -0.0296413 
0.0503121 0.00227506 -0.00454474 
0.000783666 -0.000182934 0.0177121 

-0.00514329 0.0669016 -0.104263 
-0.0713748 0.011013 0.0441749 
-0.00206039 0.000666449 0.0214876 

-0.0104438 0.00536488 -0.0142036 
-0.0264834 -0.0850881 -0.107183 
0.063463 0.101772 0.399772 

-0.0160023 -0.00789233 -0.0108146 
0.00571212 0.0101384 0.0854488 
0.000799243 -0.000515399 -0.00718694 

-0.364824 -0.270176 -2.42658 
-0.342906 0.0910517 0.747883 
-0.0570824 0.0172556 -0.163663 

-0.118108 0.000244822 -0.10419 
-0.158701 0.0941032 0.0839036 
0.0515388 -0.0449236 0.206607 

-0.0079418 -0.0388072 -0.0329127 
0.00116214 0.0142053 -0.0108946 
0.000412786 0.00225829 0.014109 

-0.00204996 0.0297643 -0.0249228 
-0.0110139 -0.0404797 -0.10411 
0.0290319 -0.0331839 -0.046054 

-0.00498672 0.0180015 -0.12336 
0.0585402 0.0313878 -0.1572 
0.000525897 -0.00500502 0.0220149 

0.0556033 0.0676701 -0.0231666 
-0.127531 -0.031947 -0.0756649 
0.00266464 0.0274966 -0.0366644 

-0.0165813 -0.0380354 -0.0269113 
0.0288617 0.00340476 0.273874 
0.0202 -0.00347756 0.823151 

-0.00228669 -0.00803092 0.00123253 
-0.000708981 -0.00255146 -0.0023186 
-0.000182185 8.67922e-05 0.00610618 

-0.0176896 -0.0586124 0.396668 
0.0300941 -0.00465919 0.0915217 
-0.00211997 -0.00116954 -0.0518256 

0.0338263 0.0083344 0.0258622 
-0.0113853 -0.00517188 -0.00546901 
0.00451589 0.00369089 -0.0410584 

-0.0425327 -0.00268085 0.143504 
-0.000946346 0.00978671 -0.0155439 
-0.0404393 0.107638 0.852992 

-0.0165007 -0.0598555 0.0125574 
0.0858536 -0.0118881 -0.0184087 
-0.0018627 0.00202171 0.0438269 

-0.0122776 -0.0256709 -1.09996 
0.141847 -0.0333559 0.858684 
0.0201484 -0.00947924 0.249982 

-0.00849509 0.00466242 1.01604 
0.0291713 0.0255361 -1.59111 
-0.0325997 0.0336429 -0.12487 

-0.952453 -0.223352 -2.12796 
-0.0908075 0.373234 -0.21599 
0.0148395 -0.00159489 0.501473 

-0.0025942 -0.00845202 -0.0151157 
0.0273068 -0.00325189 0.0369834 
-0.000896934 -0.00493446 0.00933376 

-0.0190291 -0.0167293 -0.0949529 
-0.00211529 -0.000216335 -0.00434716 
0.0941878 0.0277912 0.506606 

-0.0451888 0.0487185 0.42945 
-0.0351716 0.152409 -0.0197322 
-0.0281203 -0.0188768 0.000101129 

-0.373103 -0.0779286 -0.286188 
0.177204 0.319434 -1.40008 
0.00469488 0.0141109 0.107481 

-0.00784272 -0.00663614 0.13753 
-0.00126308 0.0071108 -0.00616202 
-0.0174596 0.0149051 -0.197483 

-0.0236565 0.0659717 1.58044e-06 
-0.0364716 0.02582 0.0125411 
-0.000304213 -0.00451978 -0.030921 

-0.00163637 -0.0265472 -0.0290887 
0.021914 -0.00907777 -0.028997 
-0.000423621 -0.000592293 0.0169967 

0.0020568 -0.0233388 0.0640377 
0.0358961 0.00407917 -0.0412331 
0.00214882 -0.0010346 -0.0197605 

-0.230485 0.0659219 0.311339 
-0.416085 0.108399 -0.0271714 
-0.00722559 -0.00270846 0.0119019 

-0.0159445 -0.0126367 -0.118828 
0.0250069 -0.0182492 -0.0205699 
-0.011383 -0.00209183 0.0179766 

-0.0170991 0.00341237 0.00828446 
-0.0123256 0.0153108 0.00363795 
-0.000133615 0.000338063 0.0138303 

-0.00423494 -0.0366822 -0.068738 
0.0338162 0.00937508 0.0696722 
-0.000901309 0.000289676 0.0039669 

0.0025469 0.00724147 -0.0312752 
-0.00290887 -0.00618129 -0.00769787 
0.000733552 -0.000805701 0.00617234 

-1.05015 -0.245156 3.67137 
-0.336235 0.467387 3.05104 
-0.0102593 -0.022642 0.430596 

0.0135551 -0.0570589 -0.05841 
0.070253 -0.00563011 0.0513623 
-0.00726117 0.00735064 -0.023864 

-0.0115507 0.0178317 0.0301265 
-0.0146136 -0.00694671 0.00588657 
-0.00320288 -0.000376416 0.014978 

-0.0097131 0.00455653 0.0822358 
-0.00142559 0.0250078 0.568778 
0.000157185 0.00759656 0.050795 

0.00181156 -0.00879636 -0.0235515 
0.0081961 -0.0147073 -0.0635634 
0.000645115 0.000212101 0.0346793 

-0.284386 0.0603808 0.211091 
0.117708 0.122896 0.120027 
-0.0763483 -0.000143982 0.106933 

-0.0287251 0.0286087 -3.40372 
-0.000425053 0.0377173 2.12208 
-0.00148682 -0.000770291 -0.369012 

-0.00428008 0.081075 0.0457069 
-0.105028 0.0176542 0.119318 
0.00197611 -0.00749061 -0.00813294 

-0.00972087 0.0226755 -0.035781 
-0.028795 -0.0198969 0.0278585 
-0.00128007 0.00123705 0.0566552 

-0.0144117 -0.0476463 -0.672576 
0.0422669 -0.00394573 0.124689 
-8.36141e-05 0.000146719 0.0105256 

-0.0229151 -0.00158826 -0.135695 
-0.00233283 0.00742671 0.0448746 
-0.00157788 0.0014738 0.0138551 

-0.0160456 0.031532 0.0919169 
-0.0472244 -0.00487584 -0.0775866 
0.00745852 -0.0166187 0.0482427 

-0.018683 0.0112418 -0.0135371 
0.00147906 -0.0155018 0.0135277 
-0.00579273 0.000645318 0.0537896 

-0.0110718 0.00744873 0.0155556 
-0.0190724 -0.0036447 -0.127068 
0.000700877 0.00109258 0.0277233 

-0.0340707 -0.036401 -0.122651 
0.0573775 0.0307956 -0.0638476 
0.00739685 -0.0128107 0.0268403 

-0.00810944 -0.046136 -0.00612479 
0.0495703 0.00597722 0.0080059 
-0.00100045 0.000446069 -0.00315264 

-0.00525004 -0.00533034 0.00900781 
0.000466615 0.00176428 0.0107159 
0.000188703 0.000180795 0.00430104 

-0.0029482 -0.00136354 -0.0156072 
-0.00176419 0.00065933 0.0170976 
7.64745e-06 0.00121243 0.00334268 

0.0306575 -0.000114088 0.0495213 
-0.137011 -0.0145252 0.0166923 
-0.00359724 -0.0120482 0.0886764 

-0.00623922 -0.000952854 -0.00726048 
-0.00488643 0.000635963 0.00133583 
0.000468618 -0.000203455 0.0168659 

-0.00922339 -0.0126348 0.0198379 
0.0207056 -0.00844586 -0.0119007 
0.000291029 0.000491251 0.0230993 

-0.00498265 0.000191943 -0.0169008 
-0.0045547 -0.00129937 -0.0166809 
-0.000595063 0.000516645 0.00550812 

-0.378784 -0.57623 0.570376 
0.26138 0.48577 0.113291 
0.0033343 -0.0199638 0.00763314 

-0.0522364 0.0206955 0.0933149 
-0.0298037 -0.0057831 -0.0725371 
-0.00455738 0.00222191 0.0497957 

-0.00664032 0.0166074 0.034367 
-0.00766484 0.00161219 -0.0486526 
0.000887079 7.63832e-05 0.0311659 

-0.0107134 -0.010044 0.00734004 
0.00883967 -0.00849276 -0.00079388 
-0.00128263 -5.33567e-05 0.0351821 

-0.32972 -1.08503 -1.35732 
0.408976 0.67822 0.910808 
-0.0717273 -0.032742 -0.293941 

-0.0356771 0.0177058 0.0955865 
-0.0425409 0.0363864 1.38984 
-0.00970186 -0.000666346 -0.0549716 

-0.0677965 0.0225743 -0.26024 
0.00352577 0.0324107 0.953894 
-0.000196576 -0.000726365 -0.16484 

-0.032204 0.0661727 0.0463669 
-0.0579761 -0.00269219 -0.0699626 
-0.00353118 0.06027 0.123673 

0.0655377 0.0343342 0.489449 
-0.0647464 -0.0520782 0.353072 
-0.000482703 -0.00470883 0.0231072 

-0.051889 0.0822982 -0.0216978 
-0.00174784 0.0134861 0.1791 
0.000516401 0.0434241 0.192617 

-0.00215498 -0.0187575 0.22953 
0.0155609 -0.000778624 0.166237 
-0.001307 0.00365609 0.0581696 

-0.0369412 -0.0741002 0.0492818 
0.0218509 0.0240643 -0.0641047 
-0.0172295 0.015049 0.0831786 

-0.00537058 0.0111224 0.025759 
-0.0534619 0.00891451 0.0100279 
-0.00173903 0.0021919 -0.0266983 

-0.0979021 0.426282 0.372917 
-0.154774 0.0880637 -0.450373 
-0.00517239 0.00636771 0.137258 

0.012678 -0.0320951 0.0926282 
0.122929 -0.00276001 0.126822 
0.000173366 0.00194428 0.0677221 

-0.156987 0.0837803 -0.197208 
-0.175388 0.0679929 0.0676988 
0.0308163 -0.17296 0.346472 

-0.0111719 -0.0483409 0.11 
0.116823 -0.0095232 0.0195771 
-0.00167205 0.00773684 0.0700926 

-0.0033746 -0.0189427 -0.0241283 
0.021672 -0.0024168 0.0513734 
0.000723132 6.03666e-05 0.0132712 

0.0211136 -0.0166197 -0.00625066 
0.0155903 -0.000994201 0.00544136 
-0.000524625 0.000980614 -0.0312482 

-0.0109997 -0.000984635 0.145873 
-0.00474456 0.000786033 -0.590335 
0.000871957 -0.00012667 0.282836 

-0.0185541 -0.0270712 0.0416789 
-0.00935496 0.00427709 -0.133252 
0.00024015 -0.0028927 0.0385415 

0.00761504 0.0234217 0.0447721 
-0.0333644 -0.0227834 0.165853 
0.0109459 0.00172749 0.073583 

-0.145969 0.185052 -0.604457 
-0.0455307 0.0997549 0.0603148 
-0.0378988 -0.0153561 0.0582741 

0.0624649 0.095256 0.0487888 
-0.115643 -0.021331 0.0989154 
0.00646327 -0.00467838 -0.0647809 

-0.0271113 -0.000983254 -0.0583534 
0.022184 -0.0181526 0.317424 
-0.000326171 0.00015814 0.0148396 

-0.0308731 -0.136414 -0.0861064 
0.157077 0.00840893 0.132548 
0.00722498 -0.0119623 0.119808 

0.0232608 -0.0123301 0.013042 
0.040369 0.00140818 -0.0726015 
-0.0616135 -0.0129393 0.228194 

-0.0778345 0.253652 0.194939 
-0.241282 0.0859729 -0.0517467 
0.0358347 0.0250749 0.288627 

0.0112293 -0.117478 0.0204808 
0.0759117 0.0113537 0.0231471 
-0.0592614 0.0748482 0.214566 

-0.0173341 -0.0208498 0.0250878 
0.0163498 -0.00243976 0.0736684 
-0.000869556 -0.000453364 0.0405507 

0.0147869 -0.0242907 0.163932 
-0.0158803 0.00493259 0.222162 
-0.00133359 3.42694e-05 0.0737855 

-0.027146 -0.0470201 0.43009 
-0.0663973 -0.000708265 0.260326 
-0.0519443 0.000976568 -0.16612 

0.00291731 0.0104861 -0.0547929 
-0.0153017 -0.00291578 -0.179338 
0.000130543 -0.00081171 0.0272146 

-0.592224 0.140698 -0.539206 
-0.575238 0.33203 -0.139879 
-0.00933618 -0.0172361 0.171324 

-0.0083748 -0.00477975 -0.0144939 
0.0443569 0.00464864 0.00491299 
0.0187435 -0.00262506 -0.0393356 

-0.0190802 0.00952233 -0.0421299 
-0.0246871 -0.00969114 -0.456444 
-0.000251442 0.000549199 0.0673196 

-0.0015649 -0.00271093 0.00372234 
-0.000830695 -0.00107265 0.0032624 
0.000256926 -0.000486414 0.00621767 

-0.025337 0.0206821 -0.00357671 
-0.0132157 0.0071261 0.104442 
-0.00434193 0.00134302 0.138305 

-0.00592048 -0.00408573 0.0220866 
0.00958906 0.00600387 0.10532 
-0.000197712 -6.77761e-05 0.0139722 

-0.0111671 -0.00362034 0.0278078 
0.00932113 0.0018681 -0.0025675 
1.7613e-06 0.00501919 -0.0115584 

-0.0128632 -0.0640015 0.00100546 
0.0661503 0.00499559 -0.0120866 
-0.000566068 -5.54266e-05 0.038374 

-0.0190075 0.0634927 0.0692984 
-0.0864203 0.00831963 0.079923 
0.00375405 0.00254868 0.00563406 

-0.0137319 0.0154853 -0.0401673 
0.00755284 0.0194718 -0.0095688 
0.00255015 0.000494862 0.037601 

-0.00558786 0.0423781 -0.0287002 
-0.0280277 0.0160798 -0.0427534 
0.00212029 0.000892451 0.00014048 

0.00994963 0.0595819 -0.00709355 
-0.0783653 0.0105552 -0.0184085 
0.00137194 0.000849451 -0.0277861 

-0.00828454 -7.29181e-07 -0.026555 
-0.00810517 -0.00224596 0.0775436 
0.000434676 -0.00127857 0.0411892 

-0.0158661 -0.0103838 -0.000322192 
0.00608573 0.000312637 -0.00457408 
0.000444423 -0.000722528 0.0225819 

-0.0312687 -0.00943453 0.326436 
0.0554423 0.023503 0.181498 
0.0111294 0.00840893 -0.0752957 

-0.00225928 0.0541052 -0.22149 
-0.0035772 0.0120303 0.358839 
0.00313171 0.000405442 0.0625072 

-0.00928517 0.00159821 0.00592485 
0.00853371 0.00344059 0.0132021 
0.000411245 -4.17307e-05 0.0161549 

0.0409525 0.0597451 2.02026 
-0.169387 -0.0426592 -1.25899 
0.0226797 0.00659239 1.9736 

-0.073526 0.107092 16.6501 
-0.310048 0.128974 -4.2262 
0.000349114 0.0161745 0.33536 

-0.00718324 0.00705053 0.00166176 
0.0059756 0.000354746 0.0223339 
-0.00983625 0.00440916 -0.0874084 

-0.119593 0.0490781 -13.4097 
-0.1369 0.187064 -34.6413 
0.00855749 0.00141083 -0.215239 

-0.0402908 -0.0227655 4.11134 
-0.0276985 0.0100644 3.62515 
-0.00742499 0.00187773 -0.0787038 

-0.0199407 -0.0617364 -0.415194 
0.0730736 0.019277 0.0726097 
-0.00264529 0.0275667 -0.116971 

-0.0378403 -0.169486 0.361208 
0.0210388 -0.00824251 -0.567232 
-0.0226823 0.0105783 0.246316 

-0.0934631 0.140625 3.50747 
-0.103271 0.164689 -0.383432 
-0.0361717 0.0344161 1.72464 

-0.264833 0.058037 14.4388 
0.103453 -0.435295 -81.5067 
-0.00140508 0.00676171 1.09473 

0.0229053 0.0163265 0.0139721 
-0.0180638 -0.0429156 0.0177054 
0.00299581 0.00166265 0.00446183 

-0.0193249 0.0073524 0.00496248 
-0.000872974 -0.00451107 -0.00188714 
0.0015304 0.00142992 0.0195533 

-0.00407968 0.000226749 -0.00217174 
0.00426491 0.00203966 0.000417869 
0.000111414 -0.000123653 0.000596065 

-0.170378 0.136433 -0.271522 
0.0829233 0.165146 -0.39427 
-0.0420633 -0.0228635 0.160908 

-0.0097765 0.00468417 0.0386728 
0.00320186 0.000793517 0.0170831 
-0.000207063 0.000337816 0.00626885 

0.00738048 0.0350727 0.0215803 
-0.00400047 0.000665375 0.0365407 
-0.0207658 0.00823607 0.158687 

-0.00131508 0.0216521 0.0246006 
-0.00643943 0.00772632 -0.0468849 
-0.00321352 -0.00350285 -0.03831 

-0.0108476 0.0301272 0.0569528 
-0.0333269 -0.013758 0.12089 
0.0143711 -0.0167564 0.0873657 

-0.105817 -0.00118341 0.310082 
-0.056571 0.152691 -0.482242 
-0.106411 0.0645979 0.434733 

-0.0657958 -0.0625647 0.00754327 
0.0870801 0.15217 0.939463 
-0.00372827 0.00149446 -0.0051964 

0.0356869 0.0823408 -0.0658707 
-0.13176 0.00506247 -0.0384554 
0.021264 -0.00500648 -0.109791 

-0.0235564 0.00969837 0.061913 
0.0367345 0.0113366 -0.210946 
0.00162184 0.00402457 0.106573 

0.0332609 0.0260488 0.330805 
0.0140526 -0.0318194 -0.16433 
0.00079683 -0.00248396 -0.0299961 

0.0054802 -0.0152605 0.0113536 
0.007599 -0.00228344 -0.000625976 
0.00149939 -0.000516036 -0.00598729 

-0.0437188 -0.0732646 1.01389 
0.0467613 0.0699795 1.21166 
-0.0125197 0.020313 1.18055 

-0.0234646 -0.211795 0.230544 
0.235994 0.0248598 0.183019 
0.00158457 0.00719119 0.121167 

-0.130776 0.0491488 -0.151144 
0.140483 0.0508444 0.248419 
0.0170523 0.0208148 0.153672 

-0.318413 -0.18448 -0.36775 
0.308964 0.130773 -0.24874 
0.0885696 -0.0769342 0.861896 

-0.217023 -0.133872 1.63317 
0.365871 0.170442 -0.607665 
-0.0131139 0.0189625 0.0278439 

-0.0170363 0.00823937 0.411954 
0.00224914 -0.00100068 -0.293094 
-0.0083042 0.00259901 0.211082 

-0.0789939 0.135716 0.18497 
0.0184897 0.076995 0.201881 
0.0169199 0.00924227 0.101781 

-0.00854429 0.00750979 -0.222835 
0.0406935 0.013738 -0.0866555 
0.0256784 -0.019089 -0.0668822 

-0.0288738 -0.000344493 -0.0447162 
-0.00614512 0.00149976 -0.010164 
0.085473 0.0247154 0.175235 

0.00178894 0.16898 0.385165 
0.130562 0.0164429 -0.10361 
-0.0220308 0.0339816 0.152501 

-0.0172126 -0.0101861 0.108151 
0.000511349 0.00959131 0.137138 
0.0107401 -0.0183489 0.116386 

-0.104552 0.0734585 0.128611 
0.0235936 -0.000894223 -0.0404592 
0.0399705 0.102232 0.337279 

-0.02077 -0.0272729 0.128129 
0.0724115 -0.00210886 -0.134838 
-0.000784137 -3.48635e-05 0.024974 

-0.0035504 -0.00353732 -0.00243488 
0.000587693 -9.08047e-05 0.0114305 
0.0006586 8.39474e-05 0.00839672 

-0.149168 -0.033641 1.16661 
0.162071 0.145128 -1.15092 
-0.00480136 -0.0143029 0.239635 

-0.112948 -0.0773673 1.96567 
0.195551 0.0761443 -2.14175 
0.0124882 0.00316595 0.128209 

0.00113571 -0.0160279 -0.0118285 
0.00352506 -0.0297881 0.00876335 
0.00317319 0.000859677 0.0171421 

-0.052524 -0.0831528 0.0688788 
0.051077 0.0248524 0.170814 
-0.00199372 0.00116916 0.0352215 

-0.0203668 0.00191447 0.00797691 
0.00507195 -0.00330546 -0.0906608 
0.000147412 -0.00165846 0.0470894 

-0.0339543 -0.0433571 -0.0137468 
0.0686972 0.0170075 -0.00428559 
-0.00113396 -0.000696343 0.00864243 

0.0059959 -0.0440732 0.00604383 
0.049719 0.00639951 -0.0261114 
-9.87412e-05 0.00224709 -0.016959 

-0.00875804 -0.0981614 -0.0249988 
0.127598 0.0287297 -0.010048 
-0.0223961 -0.00370325 0.187829 

0.00877817 -0.0868382 -0.0617372 
0.0830022 0.00305237 0.0615521 
0.000138449 -0.0114057 0.112763 

-0.00273698 0.00241132 -0.00123076 
4.79851e-05 -7.00198e-06 0.0210366 