# vtk DataFile Version 3.0
Output file generated by Yade's KinematicLocalisationAnalyser
ASCII
DATASET UNSTRUCTURED_GRID

POINTS 13483 float
518.173 46.4766 -0.5012
604.152 76.6555 0.490762
112.449 6.02116 -0.586178
633.351 10.9342 -0.363075
446.386 9.50856 0.62828
295.831 37.685 -0.536472
147.176 7.33724 0.463156
504.658 10.208 0.167143
452.995 36.5172 -0.27542
580.616 12.53 0.587947
198.839 8.76656 0.142818
243.623 6.84514 0.333099
548.38 71.0924 -0.152121
536.676 45.9915 -0.104278
129.172 18.1171 0.533406
208.552 35.0553 0.413678
206.106 13.0799 -0.298893
272.917 10.6279 0.488854
321.105 35.8031 -0.484142
465.813 8.32301 0.371805
382.772 40.3256 -0.101142
491 68.1383 0.0384583
629.714 45.6899 -0.537131
592.722 86.2851 -0.425744
424.161 20.4755 0.398258
227.174 45.864 0.133197
447.636 41.7301 -0.516327
513.023 23.4412 0.363048
41.4381 16.6327 -0.280907
574.083 32.7575 0.428144
438.579 6.64066 -0.442548
14.9545 23.7323 0.482184
614.766 80.4236 0.276171
445.389 2.20529 0.74401
73.2169 46.0955 0.110283
465.706 39.3686 0.422764
471.116 16.9276 0.512539
323.723 23.9212 -0.230948
474.318 28.3955 -0.324588
328.233 37.6387 0.459537
228.504 14.9352 -0.280095
401.056 38.812 0.0849872
541.784 7.78186 -0.136278
181.746 6.25629 0.417045
51.1475 7.15273 -0.111355
63.9157 9.12236 -0.310538
553.993 9.97283 -0.676902
21.4763 12.7288 -0.30695
506.449 75.7242 0.354808
574.067 66.9537 0.35912
162.087 33.1639 0.320806
604.147 59.6095 -0.141731
31.8469 29.7983 0.133122
474.718 4.49666 0.58551
133.624 7.50217 -0.57796
511.3 47.2922 0.449095
457.708 42.6405 -0.13594
164.973 0.935906 -0.283335
29.5706 2.26546 -0.391917
328.232 19.367 0.324688
515.039 85.8631 -0.133505
419.824 45.2545 -0.178941
371.568 1.03028 0.204876
564.108 8.96041 -0.569964
25.1543 45.6725 0.253886
242.902 32.1392 0.296713
580.77 7.7472 0.320554
563.682 92.3916 0.365119
389.492 8.93992 -0.609664
505.045 3.59366 -0.627193
592.777 44.6241 -0.485644
122.832 7.89161 0.276514
453.147 40.0847 -0.138756
437.114 25.5585 -0.117834
278.967 17.4803 -0.352408
18.8789 14.6634 0.333439
625.327 75.9216 0.310287
313.149 41.5349 -0.310427
572.385 55.9862 0.337294
554.077 13.5252 0.328986
625.83 15.0729 -0.23773
422.977 47.2159 0.182692
87.1658 40.0614 0.301782
579.626 80.1021 -0.267465
541.761 77.9136 0.106207
635.45 56.877 -0.237445
621.115 2.66324 -0.663972
276.041 29.9476 0.433527
539.434 29.602 -0.140795
22.6977 6.3659 -0.659741
126.07 39.6506 -0.172532
459.813 16.8792 0.232179
623.252 61.4189 -0.519033
185.014 29.4286 0.248603
41.2946 35.6965 0.30653
444.35 1.01628 0.257625
224.155 8.8362 -0.444553
588.408 57.6125 -0.348022
611.403 54.9256 0.312342
339.006 23.4634 -0.370229
154.466 27.404 -0.431023
480.629 55.9694 -0.437276
356.183 17.8704 -0.456679
385.345 30.8346 -0.105567
354.671 6.93244 0.382689
486.899 11.2881 -0.236893
635.709 17.4333 -0.265286
75.3696 40.1926 -0.46546
316.407 5.82102 -0.214727
498.017 9.54872 0.42073
338.666 48.4669 0.534352
22.9583 26.5146 -0.50913
28.1339 6.13612 -0.303661
493.382 44.3424 0.483274
456.364 33.2582 0.199832
23.5666 39.1239 0.435698
87.6615 31.3097 0.209985
307.855 17.7062 -0.282825
521.452 28.9667 0.142086
432.388 52.9782 0.32236
595.279 10.6757 -0.391372
589.025 6.92497 -0.196439
364.341 40.844 0.094776
535.377 60.4762 0.131024
226.796 17.0662 0.586439
313.03 4.08398 0.480035
97.2674 32.2706 0.394887
109.886 25.4971 -0.308591
479.866 52.222 0.0750854
290.729 19.0657 0.512271
569.319 38.8515 -0.137387
568.373 92.2061 -0.0986743
439.465 34.3647 0.372837
623.006 44.1497 0.374461
401.756 23.8701 -0.296984
262.804 25.3251 -0.328555
573.626 75.7067 -0.296588
265.189 29.3921 -0.476962
512.876 12.9507 -0.35971
314.337 38.2946 0.201112
453.643 15.4275 0.54583
345.416 35.3773 -0.0909215
402.922 17.1362 0.129416
301.587 45.6297 -0.49484
181.4 30.5211 0.14693
607.716 72.9596 -0.174958
633.326 18.854 -0.473119
5.92573 13.03 -0.484127
406.232 24.0757 -0.587114
35.418 24.1504 -0.114015
355.425 33.9163 -0.471285
372.466 27.9824 0.263122
70.7997 12.2453 0.510466
48.9033 34.1587 0.433711
215.981 13.8328 0.428433
515.874 65.9139 0.463615
510.093 25.4349 -0.503084
70.7038 21.4564 0.478702
596.637 87.3644 -0.429048
606.936 2.4279 0.623232
558.18 85.6268 -0.469436
560.847 2.65674 -0.666494
490.756 29.3288 -0.457153
492.494 69.0765 -0.437197
461.92 20.7867 -0.524799
632.525 6.19555 0.316091
213.715 25.2767 0.162156
121.703 36.6456 0.101549
236.77 6.98375 0.458678
89.1838 4.5207 0.286743
60.3298 10.3543 0.231277
263.932 37.2558 0.29792
15.063 25.5978 0.447025
495.378 20.7099 -0.452991
509.897 71.1639 0.186094
428.556 30.9489 -0.396444
633.83 84.9317 0.355226
382.852 8.69668 -0.116199
405.948 41.215 -0.517187
481.12 3.21741 -0.247456
20.2914 25.6619 -0.458719
516.387 4.15191 0.524633
488.245 3.91637 -0.305488
197.283 11.2042 0.490694
399.673 17.0152 -0.228336
297.776 6.48424 0.356887
366.586 20.7939 -0.365223
579.962 49.3499 0.158737
183.808 26.2862 -0.48091
612.506 13.0147 -0.436921
582.645 46.5977 0.38391
361.904 11.5482 -0.253313
580.189 2.19916 0.455405
522.581 37.4984 0.553365
596.697 23.2135 -0.551978
400.072 48.7197 0.316353
449.85 18.0765 0.5905
424.441 58.9363 0.220166
418.753 10.2203 -0.156017
562.048 85.7859 0.259452
560.195 81.55 0.296074
184.237 39.7164 -0.334342
623.958 14.5838 -0.257309
493.574 70.3073 0.260602
11.0144 18.4927 0.196904
383.192 26.1885 0.543964
178.968 23.6375 0.435794
88.7735 41.0033 -0.228762
622.438 58.1361 -0.456617
553.762 88.8773 0.219346
304.301 27.4544 -0.400755
478.806 10.2112 0.578685
78.0788 45.8407 -0.2144
237.68 26.925 -0.504929
498.522 26.8617 0.48577
449.674 32.5423 0.438328
252.243 0.919986 -0.374975
483.019 62.2181 -0.349967
481.362 47.591 -0.530711
442.326 48.9426 0.408032
451.529 5.85245 -0.624732
565.086 20.8238 0.441491
171.704 12.5907 -0.218338
461.943 52.1424 0.439355
492.068 53.8209 0.115364
69.1351 0.991114 0.320373
242.014 5.47666 0.193947
631.992 23.7556 -0.293903
625.524 16.9971 -0.528105
636.083 25.2829 -0.701432
290.386 8.5115 -0.242921
598.641 32.971 0.630447
383.527 45.5068 0.370935
422.154 0.835025 -0.392022
547.33 78.3671 0.43502
24.5726 32.8245 0.343508
314.85 44.449 0.587264
242.783 3.64761 0.461307
619.521 79.0216 -0.174039
596.536 96.7316 0.222073
275.047 12.13 0.294091
567.775 75.5158 0.0854921
500.189 2.49666 0.360015
486.234 7.92762 0.548421
92.1218 18.8532 -0.495536
290.298 1.03846 -0.231429
326.603 2.21351 -0.396764
13.307 7.92354 -0.603319
3.98831 31.9276 -0.248691
154.452 19.3573 0.401939
65.0216 42.9343 0.24471
62.8635 30.2315 0.308691
398.891 14.4026 -0.474842
348.658 38.5999 0.421999
601.187 60.7675 0.156674
18.6467 4.20652 0.28046
66.8927 7.20184 0.148281
522.854 71.476 -0.134686
281.835 0.942514 0.424086
346.091 18.4541 -0.185247
226.561 4.74128 -0.380836
558.857 63.918 -0.300369
424.376 8.26894 0.407721
601.071 34.1022 0.417446
532.868 63.3876 -0.30081
573.702 52.8039 0.0792963
396.576 27.3662 0.576205
97.3226 46.8323 0.320883
478.869 66.3345 0.0818506
599.315 17.7267 0.235235
228.57 32.1112 -0.254709
29.4375 18.7641 -0.20351
321.139 14.8596 0.510709
102.39 42.1024 -0.467692
256.94 43.6816 -0.236858
402.719 2.18073 -0.266803
626.39 68.4647 0.436555
556.107 0.675477 0.643468
316.97 4.14946 0.530805
287.147 28.2837 -0.159858
425.423 54.9978 0.254745
77.3847 8.72165 0.525296
189.548 46.4295 0.391626
612.867 58.09 0.353965
456.894 55.1053 -0.0783051
191.807 41.7785 -0.292921
153.114 44.6872 0.463832
638.631 50.77 -0.540674
635.003 19.0361 -0.677011
534.316 18.1944 -0.664416
182.477 25.2113 0.117196
492.353 30.7586 0.180521
494.32 30.8871 -0.330754
387.423 5.90635 -0.147468
441.063 2.30141 -0.410507
598.863 63.8393 -0.531393
81.1901 32.0467 -0.256531
564.198 61.6582 -0.498771
263.14 16.0449 -0.463649
8.50419 2.54005 -0.353361
120.335 38.6187 0.198205
63.4465 23.5354 0.592555
563.803 41.5953 0.297776
618.97 87.8846 0.189536
177.652 29.3041 -0.203911
629.995 20.4685 0.454037
42.7391 37.6844 -0.302843
86.4838 29.6889 -0.151397
545.57 48.097 0.484585
390.573 19.3551 -0.593641
469.484 17.9273 0.127845
229.055 30.122 -0.179
542.494 18.2819 -0.469363
636.118 19.3837 0.410241
27.1849 33.5822 0.304973
259.65 7.8932 0.202083
213.722 15.5495 0.26445
1.29988 37.3692 0.121966
216.939 14.8622 -0.399505
203.608 11.1175 0.129894
205.802 26.5941 -0.280077
127.533 28.9111 -0.157533
491.259 16.6274 -0.423759
160.147 14.5151 -0.366851
614.151 77.08 0.240551
166.954 3.79882 0.519878
44.8266 38.694 -0.456628
585.7 66.9934 -0.45922
270.01 32.1447 -0.430269
576.591 62.9666 -0.42161
631.472 71.442 0.454719
288.448 9.13888 -0.116928
588.695 34.7005 -0.397912
314.848 2.55574 -0.418281
392.994 24.8705 -0.383523
547.466 21.4676 0.479865
101.009 12.6617 -0.544612
442.964 4.42777 -0.573692
604.29 34.4144 -0.184651
83.8716 7.96084 -0.288383
270.494 15.6685 0.189414
400.061 11.9537 -0.241059
632.328 2.42857 0.613652
376.476 1.9702 -0.549008
169.369 39.9483 -0.329986
602.13 15.7736 0.375101
123.507 37.7181 0.191503
252.598 32.5634 -0.380294
378.639 21.7916 0.289015
514.575 15.5356 0.43125
366.2 10.3005 -0.565448
423.388 40.5579 0.483736
603.23 74.1666 0.435816
44.3956 12.2234 -0.226335
286.858 40.9373 -0.302088
360.689 29.096 -0.454898
387.382 21.1979 0.34297
475.162 63.7955 0.371792
597.205 58.6289 -0.203165
566.026 81.8089 0.360393
216.885 34.9228 -0.388644
12.332 33.9822 0.19675
558.208 82.0196 -0.117451
470.44 60.4472 0.481186
220.454 40.106 0.115876
583.345 72.5332 -0.121484
144.649 9.7281 0.271641
348.335 23.9186 0.393492
425.532 57.0536 0.102656
391.315 20.6456 0.284747
604.194 82.0353 -0.291362
403.48 4.35775 0.642212
46.9436 26.0459 0.198692
434.389 45.6838 0.335269
403.532 48.0961 -0.438572
619.882 71.5648 -0.235551
587.89 32.9373 -0.469625
486.794 21.4124 -0.209803
612.844 68.436 -0.409626
281.49 2.25745 -0.486903
360.444 32.1936 0.548172
26.8008 40.8081 -0.318838
588.316 40.105 -0.154768
526.008 43.0374 0.566584
430.954 2.55387 -0.536646
120.103 4.76495 -0.356055
398.903 42.7315 0.127938
10.9862 0.905932 -0.30175
630.997 7.8253 0.157437
352.278 43.4359 -0.573953
536.832 27.7147 0.467381
[...]
POINT_DATA 13483
TENSORS Strain_matrix float
-1.72287 -3.66607 -16.3815 
0.826217 1.23381 3.36361 
-1.11499e-17 -3.95005e-18 1 

-2.79939 0.263629 71.0272 
0.226305 0.487798 6.5548 
-2.14954e-18 -3.56459e-18 1 

-0.206807 0.0178797 -1.64221 
0.0209834 0.0023858 -1.39099 
4.50793e-18 2.34913e-18 1 

-1.23036 -0.594889 -3.74458 
0.363895 0.464557 1.95594 
6.4009e-18 3.24782e-18 1 

-1.14052 0.0547841 5.82672 
-0.0870339 0.384617 -0.042384 
2.78121e-18 1.87346e-18 1 

-0.287516 0.0454258 -1.09647 
-0.0205273 0.0807778 0.588471 
-4.99535e-19 4.83421e-19 1 

-0.202632 -0.074869 -0.769755 
0.0607419 -0.0204026 -0.607197 
-7.80335e-18 2.54015e-18 1 

-0.257441 -0.0853733 -0.58815 
0.276307 -0.0361556 0.269448 
1.65176e-18 3.78696e-18 1 

-0.560728 0.0973219 1.56456 
0.138278 0.298452 -0.179644 
2.07835e-18 -1.01851e-17 1 

-0.506718 -0.268735 0.0555889 
0.0846707 0.0299036 0.361295 
6.55145e-18 2.66911e-18 1 

-0.119421 0.00991057 0.0500392 
0.0401597 -0.0771851 0.0852301 
1.0093e-17 5.42312e-18 1 

-0.325452 -0.0482007 -0.824253 
-0.163911 -0.00999433 -0.955967 
-1.11454e-17 1.45122e-17 1 

-0.312757 -0.597346 1.12382 
0.320249 0.276372 -0.0971167 
-1.73754e-18 1.48908e-17 1 

-0.289629 -0.620123 -0.322703 
0.607861 0.442745 0.247139 
-4.8328e-18 2.589e-19 1 

-0.316851 -0.0439899 -1.73363 
0.0350055 0.020324 -1.62629 
-5.35988e-18 4.20264e-18 1 

-0.168745 -0.0344303 0.819934 
-0.0567492 0.00781578 0.313687 
-1.42437e-17 -2.32469e-17 1 

-0.0921804 -0.0375815 0.0657804 
0.0234758 -0.108868 -0.0426926 
-2.01642e-18 -1.90228e-19 1 

-0.344966 -0.0314699 -0.0165773 
0.188161 -0.0878555 -0.0808497 
-4.47783e-18 -1.59484e-17 1 

-0.288931 -0.0874653 0.438112 
0.0864657 0.0773068 2.62714 
7.82041e-18 -3.24033e-18 1 

-0.262054 0.0330155 -0.102811 
-0.225113 0.0204844 0.26475 
3.28253e-18 8.14451e-18 1 

-0.213368 -0.206417 0.232986 
0.176445 0.0629168 -0.00926999 
2.68168e-18 -1.47887e-18 1 

-7.11097 -0.775576 1.83995 
0.4858 0.199379 0.247074 
-2.59032e-18 5.7407e-18 1 

-4.46644 0.808256 2.91656 
-1.78917 0.788617 4.58564 
1.42517e-20 3.16299e-18 1 

-0.410186 -0.801783 -9.03057 
-0.37288 0.419624 2.40008 
9.75836e-19 3.93062e-18 1 

-0.889261 -0.153383 -0.307928 
0.288704 0.45463 -0.267397 
-3.38387e-18 -7.78789e-18 1 

-0.305783 -0.187592 0.175259 
0.118086 0.11595 -0.182197 
-9.62557e-18 8.84209e-18 1 

-0.381314 -0.260922 2.31517 
0.102978 0.198495 0.122674 
-7.58725e-18 5.86614e-18 1 

-1.61211 -1.0105 -2.03736 
0.372851 1.08412 -2.01402 
-1.16499e-17 5.03112e-18 1 

-0.135793 0.133316 0.661784 
0.138231 -0.105943 -0.540796 
1.40526e-17 -1.50991e-17 1 

-1.40504 -0.939531 0.749539 
0.162865 0.367342 -1.13819 
-1.35521e-18 -3.48331e-18 1 

-1.11414 0.436918 -0.0215717 
0.20521 0.113599 0.30664 
2.06341e-18 4.28554e-18 1 

-0.459703 0.110029 0.475693 
-0.174379 0.064475 0.46659 
4.01705e-18 -1.78959e-18 1 

0.198506 -0.907594 -1.25515 
0.644937 0.449347 -0.630934 
-6.80941e-19 -1.92479e-18 1 

-0.693606 0.512301 -136.191 
0.03743 0.114474 -53.9578 
1.12891e-19 -8.17638e-19 1 

-0.111324 -0.115018 -0.0756983 
0.0627899 -0.108815 -0.390879 
-2.3771e-19 -9.98381e-18 1 

-1.14812 0.00482791 -0.757573 
-0.183053 0.346269 -1.33361 
-1.37793e-17 -1.04488e-18 1 

-0.557523 0.117632 3.11909 
-0.044026 0.220834 -0.123805 
4.80462e-18 -8.14577e-19 1 

-0.289555 -0.0692477 -0.52446 
0.201386 -0.0191409 -0.319885 
1.09664e-17 1.09664e-17 1 

-0.869406 0.335297 0.682961 
0.108219 0.301319 0.316211 
1.34912e-17 -1.20858e-17 1 

-0.438136 0.245527 0.492938 
-0.0492092 0.23492 0.665354 
-5.48942e-18 1.87269e-18 1 

-0.353567 -0.125644 -0.37632 
0.13561 0.059061 -0.246573 
1.34703e-17 1.75363e-17 1 

-0.0891113 -0.274248 0.228108 
0.296466 0.0222684 0.317629 
-3.13347e-18 6.94445e-18 1 

-0.260116 0.125263 0.00232584 
-0.269943 -0.144591 -0.0562601 
1.36628e-17 2.04942e-18 1 

-0.183834 0.0697176 0.191923 
-0.0319469 -0.0179028 -0.344587 
-1.01828e-17 2.89052e-18 1 

-0.116454 0.0508071 0.066088 
-0.108378 -0.0661029 0.103836 
5.78527e-18 1.14907e-18 1 

-0.125341 -0.00523054 -0.0593816 
0.00530573 -0.0395671 -0.258813 
-5.87033e-19 -3.14347e-18 1 

-0.67982 -0.136927 -0.911218 
-0.261339 -0.0854469 -1.39028 
-2.05134e-17 3.65201e-18 1 

-0.0657836 0.0321709 -0.169109 
0.0397316 -0.130296 0.10172 
-9.5851e-18 1.03794e-17 1 

0.0405358 -1.26042 -1.81168 
0.536296 0.406483 0.722572 
-3.71583e-18 9.70456e-18 1 

-0.287105 0.345123 0.440102 
-0.4172 0.350972 -1.47329 
-7.04317e-18 9.31285e-18 1 

-0.368626 -0.157746 -0.0873682 
0.172937 0.166079 0.523658 
-8.23389e-18 7.78132e-18 1 

0.0307394 -0.519501 0.362381 
0.375389 0.0615168 0.0373656 
2.57887e-17 -2.07231e-18 1 

-0.144241 0.00483581 -0.102108 
-0.0014533 0.00941981 0.151201 
-6.59861e-18 3.93947e-19 1 

-0.373213 0.0301586 1.16516 
-0.0315896 -0.0750955 -1.80436 
-3.48196e-18 5.49267e-18 1 

-0.188344 -0.00683506 -0.143347 
-0.0199262 -0.0141271 -0.878115 
-4.68539e-19 -9.9091e-18 1 

-2.09918 -2.72215 0.454138 
0.756894 1.1259 -1.60692 
2.72068e-18 1.02915e-17 1 

-0.271715 0.028745 -0.999931 
0.136026 0.126614 0.0632097 
-1.29766e-17 3.52222e-18 1 

-0.125963 0.101202 -0.834911 
-0.00473849 -0.00526924 -0.639931 
-1.7927e-18 3.61988e-19 1 

-0.120724 0.0906294 -0.232506 
-0.122076 -0.0787945 -0.174732 
5.90034e-18 -1.99187e-17 1 

-0.322937 -0.0961164 -0.120162 
-0.203461 0.0795167 -0.448036 
-1.43766e-18 -1.70722e-18 1 

-0.261621 -1.99306 1.66387 
0.00297737 0.995876 -0.0768475 
-2.50473e-19 4.64903e-19 1 

-0.112466 -0.391193 -2.4712 
0.345403 0.0606111 -0.502557 
-1.62812e-17 -3.96045e-19 1 

-0.126009 -0.0844331 -0.373657 
-0.028963 -0.0637831 -0.0757549 
1.4367e-17 -1.99112e-17 1 

-0.31824 -0.227421 2.56039 
-0.00742158 0.0346897 0.584966 
2.98861e-17 -1.85936e-17 1 

-0.463665 0.187986 0.213858 
-0.166999 0.126623 0.503637 
4.65443e-19 -1.19153e-17 1 

-0.422787 -0.168001 0.386607 
-0.0457933 0.267948 0.142216 
1.38399e-18 -6.11264e-18 1 

-0.719291 -0.301346 0.0111269 
0.0505532 0.0477951 0.836571 
-1.46864e-17 -3.0739e-18 1 

-0.259823 -0.369772 0.162244 
0.290672 0.18274 0.287084 
9.25825e-19 -9.00751e-18 1 

-0.210106 -0.00215263 5.35331 
0.023784 -0.0897019 3.36008 
-2.93683e-18 2.31446e-18 1 

-0.336846 0.0813045 -0.115726 
-0.205071 -0.353142 0.573374 
6.63293e-18 1.4852e-17 1 

-0.601151 -0.767148 -1.87093 
0.382253 0.42615 0.694771 
1.13199e-17 -1.71844e-17 1 

-0.15372 0.0168137 -0.130035 
-0.0555731 -0.0262482 -0.0108812 
5.69104e-18 6.66785e-18 1 

-0.459523 -0.313839 -0.141416 
0.203237 0.192882 0.0163769 
-5.78712e-18 -3.34568e-19 1 

-0.491532 -0.355046 -1.70221 
0.327759 0.332339 -0.479692 
9.40133e-18 2.23841e-19 1 

-0.1518 0.0582241 -0.171733 
-0.0959127 -0.018539 -0.179222 
-6.81314e-18 -1.83009e-17 1 

-0.237279 -0.0217848 0.258331 
0.0292734 -0.00910001 -0.200778 
2.28946e-17 1.56908e-18 1 

-0.223174 -0.74599 0.190775 
0.270886 0.239955 0.405325 
-1.44929e-18 1.89523e-18 1 

-0.174876 -0.0165226 -0.5791 
0.0249803 -0.0154569 0.118946 
1.6581e-18 4.24092e-18 1 

-7.72543 -0.950275 7.70011 
-3.54962 0.502288 5.63645 
5.40287e-18 -4.08866e-18 1 

-0.324648 -0.139878 0.20724 
0.0710761 -0.0151658 0.678686 
4.70654e-18 -1.46129e-18 1 

-0.746807 -0.204289 0.198067 
0.563408 0.185498 0.583288 
-8.97431e-19 -9.47288e-18 1 

-0.0306066 -0.360499 0.544391 
0.362655 0.0677646 0.962806 
1.86465e-19 4.14884e-18 1 

-0.122578 -0.0244187 -0.0293032 
0.074597 -0.0042919 0.0940866 
-3.95398e-18 6.19171e-18 1 

-0.493915 -0.247572 -1.02315 
0.0286204 0.147713 -0.381426 
-1.25682e-17 -6.02858e-18 1 

-0.0553972 -0.51106 -0.151103 
0.274601 0.0871661 -0.100347 
5.74204e-18 3.76046e-19 1 

-1.44058 -0.436049 -2.32979 
0.126072 0.496439 0.191175 
-5.72613e-18 -6.65134e-18 1 

-2.2273 -0.916862 -18.0794 
-0.123106 0.542526 -2.80074 
-6.34518e-19 7.39779e-18 1 

-0.136975 -0.0304853 -0.375325 
0.0297111 -0.0197753 -0.131311 
5.56313e-20 -8.06653e-19 1 

-0.739495 -0.712819 -0.0136371 
0.555008 0.307899 -0.0629994 
-1.39975e-17 -7.742e-18 1 

-0.234894 -0.0303349 -12.3711 
0.0365191 -0.0426536 -0.0464921 
7.73625e-18 -8.22684e-19 1 

-0.156414 -0.0526923 0.116753 
-0.0208097 -0.0276524 -0.0723552 
6.95896e-20 1.12039e-17 1 

-0.447443 0.323141 -0.979849 
-0.0666373 0.0956275 0.507043 
-1.2175e-17 -1.44974e-17 1 

-0.274538 -0.316499 7.84826 
0.379453 0.2742 3.26238 
-8.35075e-19 -2.49107e-18 1 

-0.152663 0.0265056 0.113813 
-0.0410633 -0.0187042 -0.103138 
2.07589e-18 -3.86212e-18 1 

-0.137476 0.0909634 0.219707 
-0.0411056 0.0125038 0.0784433 
6.09176e-18 8.98535e-18 1 

-0.518925 0.396721 -0.826181 
-0.234884 0.569208 -0.4993 
-1.13726e-17 -6.75993e-17 1 

-0.189155 0.0148191 -0.252574 
-0.0296055 -0.0358747 -0.989889 
2.23635e-17 -9.00927e-19 1 

-0.551736 -0.696561 1.1461 
0.500956 0.301107 0.803932 
4.48847e-19 1.11314e-17 1 

-0.0405647 -0.728001 0.0897717 
0.557338 0.139503 0.0158024 
-6.64684e-18 -1.82252e-17 1 

-0.26576 -0.196277 0.119142 
0.31901 0.0478541 1.01938 
1.19951e-17 -4.67342e-19 1 

-0.156955 0.0666749 -1.68421 
-0.00623601 -0.0158013 1.17286 
-3.07032e-18 -1.68493e-17 1 

-4.55892 0.69485 24.32 
-0.0205932 0.993475 0.458049 
-1.27497e-17 5.77259e-18 1 

-0.230805 0.0783647 1.11922 
-0.0774963 0.0291125 0.669023 
1.52476e-18 1.04094e-17 1 

-0.510425 -0.235038 0.238343 
0.0109762 0.190932 0.168605 
-3.41021e-18 -4.96783e-18 1 

-0.365808 -0.287718 -0.512258 
0.0958002 -0.00416052 0.342771 
3.78989e-18 3.44535e-19 1 

-0.305439 0.0722028 0.620549 
-0.146462 -0.109349 -0.374165 
-9.73499e-18 -2.52735e-18 1 

-1.09154 -0.729218 -0.0278513 
0.390671 0.588368 -0.233359 
7.00148e-19 1.79413e-18 1 

-0.205231 0.0352339 0.0699212 
-0.0174696 0.0495742 0.376447 
5.52876e-18 -6.84115e-18 1 

-0.275874 0.0296369 0.0900185 
0.00288631 -0.05886 -0.116106 
-1.43488e-17 4.66944e-19 1 

-0.281003 0.0250474 0.300816 
-0.135907 -0.0262732 -0.14267 
-5.61752e-18 1.08476e-17 1 

-0.204946 -2.06781 -87.609 
-0.0209638 0.65899 18.652 
-3.42975e-18 -1.82248e-17 1 

-0.173025 0.0291863 -0.0369009 
0.00618889 -0.0177152 2.13785 
1.88838e-18 -4.43016e-18 1 

-0.170686 0.238378 0.138397 
-0.257967 -0.0452712 -0.0189767 
1.68162e-18 1.38734e-17 1 

-1.20091 -0.385919 17.1181 
0.243337 0.270314 -9.20438 
7.7132e-18 -8.68916e-18 1 

-1.41025 1.30164 -1.44095 
-0.802986 0.915018 -0.975186 
-7.06421e-18 -1.36196e-18 1 

-0.158021 0.04154 -0.485256 
-0.00949772 0.0387372 -0.269435 
8.76161e-18 -1.08953e-17 1 

-0.263269 0.159684 0.614685 
-0.123221 0.0769044 0.744941 
3.85741e-18 2.10404e-18 1 

-0.164917 0.102058 -0.150868 
-0.0107822 -0.0248747 -0.104082 
5.3386e-18 6.96921e-18 1 

-0.354216 -0.876741 -0.0467478 
0.389313 0.313027 -0.065747 
-4.02093e-18 -2.88458e-18 1 

-0.26647 -0.519048 0.612072 
0.276689 0.286435 0.490701 
-4.02948e-18 3.91324e-18 1 

-0.492911 -0.00121498 -0.193182 
0.00570917 -0.0465252 -0.440019 
1.09517e-17 2.63897e-19 1 

-0.921441 -0.446397 0.665999 
-0.0394647 0.35089 -0.152166 
-2.19205e-17 8.67146e-18 1 

-0.173282 0.0252724 -0.426922 
0.0453466 -0.00257037 -0.0632806 
1.21161e-18 -2.75365e-18 1 

-0.115271 -0.682729 0.135821 
0.436596 0.257073 0.155262 
-7.15912e-18 -8.85268e-18 1 

-0.216464 -0.0565978 1.50601 
0.00838242 0.0198168 -0.12425 
6.74143e-18 7.99726e-18 1 

-0.351836 -0.211819 -0.217474 
0.182817 -0.0207493 -0.217919 
1.93404e-17 1.69128e-17 1 

-0.166058 -0.00879849 0.329818 
-0.0528758 -0.0240804 0.0979169 
2.45999e-18 -1.65999e-17 1 

-0.285321 0.0990826 0.0679491 
0.0252818 0.134423 -0.420099 
2.38228e-18 -9.20511e-18 1 

-1.02479 -2.35477 -0.985006 
0.513438 1.71967 0.980096 
-3.37431e-18 1.0846e-17 1 

-0.376343 0.0419035 -0.821698 
0.229579 0.0455187 0.972783 
9.0115e-18 6.88519e-18 1 

-1.38387 0.253176 -2.18041 
0.0346249 0.508731 2.74179 
-4.77663e-18 3.31615e-18 1 

-0.299331 0.120143 -0.511318 
0.458068 -0.0238757 1.04013 
-1.0333e-19 -7.18142e-18 1 

-0.196509 0.126226 0.490979 
-0.0413701 0.0749702 -0.534687 
8.31865e-18 -1.36933e-19 1 

-0.393941 -0.714997 0.3137 
0.637153 0.205741 -0.0901847 
8.05002e-18 -1.27635e-17 1 

-0.43682 -0.240067 0.334672 
-0.0582583 0.221046 -0.392261 
-6.74934e-18 -2.19437e-18 1 

-0.169448 -0.0730978 -0.235262 
-0.0985302 0.022756 -0.396848 
-3.26482e-18 -1.47288e-17 1 

-0.785725 -0.195947 0.762093 
-0.501317 0.321251 -0.137531 
-4.13288e-18 -1.24094e-18 1 

-0.14273 0.02229 -0.033585 
-0.0547427 -0.0555997 -0.117386 
1.89866e-18 -1.3884e-17 1 

-0.562058 -0.368066 -0.293993 
0.298027 0.0885091 0.425704 
-3.1047e-18 -7.76176e-18 1 

-0.110089 -0.167581 0.107786 
0.147411 -0.0297433 -0.0577886 
7.8642e-18 -5.73432e-19 1 

-0.254262 0.285309 -0.00590488 
-0.269816 0.0172644 -0.902769 
2.55726e-18 1.06552e-18 1 

-0.162575 0.158904 0.195823 
0.0472006 -0.00640234 0.171908 
-1.43888e-17 -7.26684e-18 1 

-0.215793 -0.11333 0.300915 
0.0564081 -0.0864052 0.117647 
8.29331e-18 -9.695e-18 1 

-0.27735 0.143927 0.351593 
-0.193289 0.0981067 1.00622 
-1.53987e-17 -3.87373e-18 1 

-0.105261 0.0760317 -0.235406 
-0.0509541 0.00541855 -0.0481945 
-1.41434e-18 6.31271e-18 1 

0.0751489 -1.05405 -1.5516 
0.558558 0.426297 -0.695965 
8.18418e-18 1.49593e-19 1 

-1.15272 -0.0465934 0.20443 
-0.476984 0.318123 -0.309759 
-7.97264e-18 1.3394e-17 1 

-0.165729 0.0300751 0.155633 
-0.0978103 -0.0986631 0.865006 
-1.02506e-18 -2.49339e-18 1 

-0.351823 -0.00733466 -0.919925 
0.0460741 0.123813 -0.779605 
-1.15528e-17 2.3773e-18 1 

-0.181164 0.0617015 0.346254 
-0.134671 0.000459147 0.0630871 
-2.29011e-18 7.88121e-18 1 

-0.172737 0.0299491 -0.167117 
-0.0315136 0.0520339 -0.110787 
5.83398e-18 -3.85869e-18 1 

-0.245852 0.108853 0.734807 
-0.0957884 0.201926 -0.478884 
2.14024e-18 2.00853e-18 1 

-0.18602 -0.0744943 0.242641 
0.0361352 -0.0314203 0.941048 
-5.4257e-18 -9.40161e-18 1 

-0.140105 0.0533468 0.283331 
-0.00715802 0.0110337 0.594555 
-2.78852e-18 5.87506e-18 1 

-0.179205 -0.0305518 0.405617 
0.0126894 -0.0207009 0.0136565 
6.40122e-18 1.55637e-17 1 

-1.24353 0.228202 14.2133 
0.0349011 0.718437 5.41949 
-2.01874e-18 1.82131e-18 1 

-1.84882 -1.02023 -2.55859 
0.77026 0.785017 1.53504 
-3.5444e-18 -7.12166e-18 1 

-0.167509 -0.0241922 0.227156 
0.010064 0.00194306 -0.48746 
-1.28041e-18 -9.19337e-18 1 

-2.94644 -2.57344 0.708485 
0.295741 1.02522 1.35446 
-8.93675e-18 -5.38359e-19 1 

-1.31412 0.419919 1.62836 
-0.281837 0.211565 0.131322 
1.4789e-17 3.82773e-17 1 

-0.112419 -0.213284 1.47516 
0.147441 0.0728957 -2.6838 
5.19201e-18 -3.01698e-18 1 

-0.494723 -0.271704 3.75521 
0.130118 -0.0367876 -3.72369 
-1.17054e-17 8.82744e-18 1 

-0.626682 -0.169703 -0.0388875 
-0.00957636 0.279254 -0.247528 
1.58373e-17 1.84002e-17 1 

-1.65169 -1.06251 -11.1835 
0.020056 0.757226 -6.81042 
-4.6226e-18 -2.83421e-18 1 

-0.297727 -0.31154 0.722768 
-0.0532569 -0.00730854 -0.152309 
-4.30287e-18 1.14403e-17 1 

-1.63962 -0.0426089 -0.988578 
0.59394 0.403002 -0.0486281 
4.37352e-18 -1.09046e-17 1 

-0.125981 -0.0328633 -0.168536 
0.0737104 -0.0292161 0.0966531 
6.84486e-19 7.21155e-19 1 

-0.110592 0.0218548 -0.261941 
-0.0794858 -0.0343845 0.141864 
6.01408e-18 -2.22994e-18 1 

-0.180326 -0.0994395 0.611862 
0.0971362 -0.0566403 -0.26305 
-5.37228e-18 3.05664e-18 1 

-0.219304 -0.0167285 0.211802 
0.0117053 -0.00154936 -0.183038 
-8.91341e-18 1.08152e-17 1 

-0.138008 -0.000126888 0.00370354 
-0.00533997 -0.036225 -0.111901 
5.66679e-18 1.39683e-17 1 

-0.125166 0.0792348 -0.508729 
-0.13179 0.00412642 -0.368976 
2.24026e-18 -9.27092e-18 1 

-0.550473 -0.089388 -0.0857065 
-0.137925 0.190379 -0.0129254 
-8.47236e-18 1.41373e-17 1 

-0.635908 -0.0510254 -1.84164 
0.0275318 0.219746 0.302378 
3.10693e-19 3.11416e-18 1 

-0.196343 -0.569137 0.602439 
0.673105 0.399505 -0.260714 
2.47778e-18 5.3928e-18 1 

-0.556753 -0.362009 0.404898 
0.603189 0.384179 0.300495 
9.10755e-18 1.53937e-17 1 

-0.0121428 -0.655297 0.0937148 
0.583385 0.349843 0.540451 
-1.61145e-18 2.90789e-19 1 

-0.145169 -0.0493665 0.0130188 
0.00391527 -0.0668816 -0.13958 
-6.2483e-18 -5.20466e-18 1 

-0.404577 -0.24244 3.66669 
0.15708 0.192315 0.962513 
-7.60164e-19 -5.1974e-18 1 

-0.285455 0.252719 -0.050049 
-0.226955 -0.105684 -0.083392 
1.16284e-17 -8.04548e-19 1 

-0.161798 -0.128323 -0.108084 
0.0762407 0.0464728 0.700258 
1.54456e-18 3.93914e-18 1 

-0.436209 -0.169541 1.7233 
-0.0788784 -0.036703 0.415272 
-3.65492e-18 1.37619e-17 1 

-0.48375 -0.0364853 -0.248266 
-0.163514 0.079897 -0.143083 
5.89972e-18 8.80683e-18 1 

-0.133726 0.016646 0.707511 
0.0262566 -0.0541373 0.514091 
6.1676e-18 -2.29645e-19 1 

-0.485478 0.0954228 0.332449 
0.0978873 0.148534 -0.115037 
-1.90154e-17 2.01434e-19 1 

-0.198554 -0.00985308 -0.580304 
-0.0186363 -0.0467375 0.245058 
1.14501e-17 -1.17065e-17 1 

-0.62942 0.250863 -0.464906 
-0.226093 0.0665795 -0.522188 
1.24972e-17 9.11398e-18 1 

0.0912625 -1.1756 0.710435 
0.626499 0.760185 0.725898 
4.188e-18 2.17639e-18 1 

-0.171583 -0.014685 0.762518 
-0.0103545 -0.0203356 -0.0131931 
6.75708e-18 -4.60547e-19 1 

-0.699999 -0.39561 -0.344226 
-0.161981 0.0176403 -0.445101 
2.97536e-18 -4.82102e-18 1 

0.442677 -0.960307 -0.079441 
0.993368 0.548114 -0.0500761 
-4.35134e-18 -9.03977e-19 1 

-0.371572 0.154123 0.08246 
-0.156934 0.0436951 0.193417 
-6.74142e-18 -4.45764e-18 1 

-0.645358 -0.800573 -1.07372 
0.14363 0.286986 0.409386 
-6.2278e-18 -1.88009e-18 1 

-0.952397 -1.02614 -0.132803 
0.902063 0.852153 6.86207 
-7.68508e-18 -3.96124e-18 1 

-1.48372 -0.682605 0.2738 
0.291055 0.505946 -1.54272 
-2.23579e-18 -5.62363e-18 1 

-0.923122 -0.57589 -0.0746883 
0.164921 0.44113 -0.639896 
-3.4278e-18 -4.55998e-18 1 

-0.557037 0.572428 2.42052 
-0.452287 0.229592 1.18695 
-3.09942e-18 -7.45052e-18 1 

-0.511427 -0.0705137 1.41395 
0.180464 0.20626 -0.356362 
6.14811e-19 2.24296e-18 1 

-0.620451 0.0434427 0.398071 
-0.270842 0.187673 0.199321 
-1.31826e-17 2.55147e-17 1 

-0.126277 -0.227383 0.0319022 
0.250115 0.152242 -0.0933943 
1.67754e-18 -4.14451e-18 1 

-0.0246625 -0.127112 -0.187226 
0.125474 -0.0624603 -0.0342683 
9.75987e-18 -3.84626e-18 1 

-0.136005 0.0632269 -0.0674511 
0.028665 -0.0122582 -0.210784 
9.0687e-19 -4.4118e-18 1 

-0.529059 -0.225854 -0.175259 
-0.117282 0.00208726 -0.162845 
9.71055e-18 -5.09979e-18 1 

-2.18684 -0.287788 17.061 
0.0398469 0.710912 1.44498 
4.66728e-18 -2.94561e-18 1 

-0.572552 0.217287 -0.0553228 
-0.369914 0.2175 -0.0258466 
-2.64782e-17 1.03092e-17 1 

-0.285144 -0.0348109 0.801336 
0.0415234 0.0703791 0.542776 
9.97743e-18 -5.10879e-18 1 

-0.119667 -0.0334701 -0.109095 
-0.00735314 -0.0320188 0.402479 
-3.82632e-18 1.07905e-17 1 

-0.146453 0.0170044 -0.284267 
0.0494972 0.0233252 0.486223 
1.39964e-17 -1.12148e-17 1 

-0.212434 -0.440428 6.93743 
0.465291 0.136572 4.62517 
-4.71664e-18 5.0262e-18 1 

0.0146593 -0.226738 -0.188524 
0.155367 -0.01558 0.102472 
-4.4603e-18 -1.4912e-17 1 

-0.155855 -0.00477373 -0.198398 
0.00854235 -0.0180962 0.133583 
-4.82784e-18 3.28364e-19 1 

-0.472837 -0.0906497 -0.244296 
0.0567146 -0.0646329 -1.44965 
-5.91353e-18 -5.94915e-18 1 

-0.160061 0.101276 -0.234921 
-0.0690641 0.101379 -0.670623 
4.06796e-18 6.45681e-18 1 

-0.172663 0.0607363 0.388061 
-0.0769791 0.0392032 -0.640603 
2.0163e-17 6.97446e-19 1 

-0.527593 0.116135 -0.235883 
-0.0147306 0.158471 -0.450765 
-3.94143e-18 -5.02339e-19 1 

-1.12048 0.696352 -5.65664 
-0.444071 0.323289 -2.23331 
-1.78119e-17 8.53167e-18 1 

-0.223211 -0.0573883 0.171895 
0.0244369 -0.019651 -0.0416798 
-5.76815e-18 -2.81239e-17 1 

-2.51116 -0.0975896 12.3931 
0.443835 0.859961 3.22959 
-1.16662e-17 -3.92612e-18 1 

-2.55545 0.27713 3.3997 
0.618107 0.290196 -27.2163 
-1.14117e-19 -1.96852e-18 1 

-0.178723 -0.307153 -0.283653 
0.0510127 0.0675398 -0.319542 
-2.96006e-18 4.68873e-18 1 

-1.33271 -0.474895 -0.657026 
0.33768 0.446955 -0.216123 
-1.21601e-17 3.36037e-17 1 

-1.14591 -0.355221 0.766095 
0.58723 0.549502 0.457396 
-8.82613e-19 2.20653e-18 1 

-0.136554 -0.0171122 0.221641 
0.0281333 -0.0262478 -0.192861 
-1.07399e-17 -7.33458e-18 1 

-0.310214 0.0412938 -5.76051 
-0.059788 0.0371883 -4.68712 
1.55078e-18 -6.77004e-18 1 

-0.436869 0.207631 2.71063 