# vtk DataFile Version 3.0
Output file generated by Yade's KinematicLocalisationAnalyser
ASCII
DATASET UNSTRUCTURED_GRID

POINTS 13483 float
443.99 47.1576 -0.556593
522.641 81.0691 0.53632
108.085 6.15688 -0.601076
552.201 12.6373 -0.366311
380.481 9.22139 0.68654
272.448 45.5816 -0.527317
138.085 8.74069 0.552081
431.493 10.1879 0.146702
395.349 58.8641 0.153732
505.19 12.4403 0.589719
186.373 8.7475 0.154057
227.515 6.997 0.32857
470.059 74.9608 -0.155554
462.009 47.7575 -0.0941623
121.794 20.8653 0.545749
194.07 36.1358 0.420738
193.457 13.2655 -0.321016
254.203 13.1719 0.656769
296.647 49.697 -0.469689
396.51 11.0472 0.577247
337.353 54.2369 -0.113302
419.582 76.618 -0.255338
547.677 50.1076 -0.558804
513.451 91.1004 -0.429058
372.333 36.9135 0.324635
211.716 48.6649 0.135634
389.625 64.0782 -0.485034
439.417 23.5915 0.400569
40.5583 16.6296 -0.292408
498.438 32.7179 0.448671
376.852 11.9544 -0.331681
14.2157 23.5825 0.42445
533.311 84.6963 0.26845
383.194 2.26681 0.709822
70.6353 47.8758 0.109101
399.386 50.0903 0.545808
401.41 19.5955 0.648941
292.937 24.9814 0.260301
403.448 31.3399 -0.333074
293.643 38.5561 0.422647
213.155 15.4658 -0.429488
349.209 50.1622 0.0820506
466.718 7.54093 -0.149269
169.705 6.13373 0.455401
50.2357 7.52072 -0.0815881
61.6485 9.38049 0.231695
478.508 10.1277 -0.640965
20.9474 12.7805 -0.32678
431.809 79.0225 0.354767
495.241 72.1089 0.328458
152.666 34.9466 0.490188
522.355 63.5134 -0.135019
30.8265 29.898 0.135428
403.571 5.19151 0.489825
127.708 9.43956 -0.595795
437.244 47.855 0.455955
399.983 64.875 0.112888
153.48 0.955132 -0.308967
28.9105 2.26342 -0.392612
296.101 19.8755 0.336447
437.233 90.2427 -0.131507
359.933 64.2412 0.171186
336.95 1.03853 0.253251
488.644 8.92753 -0.568066
24.5013 46.0343 0.254618
226.574 33.4846 -0.361305
505.197 7.68863 0.32656
482.956 97.9794 0.358717
351.939 11.7045 -0.557495
432.029 3.5447 -0.642691
511.597 47.5902 -0.499578
117.777 9.25416 0.282814
395.51 62.7269 0.120102
380.921 47.6871 -0.100425
259.372 20.674 -0.364981
18.3924 14.7329 0.375073
543.517 80.0621 0.323133
287.958 53.2644 -0.281937
493.904 60.0121 -0.397958
478.225 13.8611 0.383704
547.2 17.3683 0.42763
362.964 66.7804 0.168292
83.9876 42.2492 0.309209
499.782 86.7447 -0.247096
462.734 80.9517 0.107145
553.511 61.1184 -0.249721
541.313 4.02763 -0.728134
255.963 34.2532 0.529782
465.217 31.0746 -0.127226
22.1316 6.46871 -0.671764
119.109 44.9004 -0.182628
390.587 21.5247 0.274952
541.54 66.1602 -0.511494
172.651 29.8825 0.239904
40.1383 35.9893 0.300863
382.477 1.07139 -0.187115
209.173 9.43822 -0.475533
506.626 60.5134 -0.31476
529.767 59.1603 0.308591
306.259 24.4762 -0.316899
145.217 30.5979 -0.521266
409.645 59.0975 -0.471209
322.458 18.2705 -0.501648
337.792 39.839 -0.111944
320.904 7.64202 0.465556
414.526 11.7439 -0.199038
553.502 20.7744 -0.210391
72.9511 42.0046 -0.473256
285.864 7.0766 0.214375
425.355 9.5322 0.474416
304.209 52.652 0.445703
22.1888 26.4459 -0.527217
27.4662 6.12541 -0.302029
421.069 46.7213 0.595215
394.83 46.0147 0.199517
22.6629 41.1628 0.452475
85.1622 32.7535 0.215784
282.132 23.1362 0.339101
447.651 29.835 0.154964
372.643 74.0326 0.2894
519.055 10.1516 -0.492743
513.281 6.63505 -0.217251
322.069 50.1002 0.126985
458.634 62.9072 0.131111
213.031 18.2158 0.499631
284.094 6.6198 0.644871
93.0797 33.0421 0.382043
105.069 27.2405 -0.359396
407.745 55.8802 0.0567075
269.394 23.9964 0.546247
492.536 38.3075 -0.164629
487.85 98.5512 -0.104935
382.367 56.126 0.398021
541.905 48.9794 0.325706
353.36 35.1138 -0.237729
244.718 27.1417 -0.386103
494.238 82.8277 -0.324379
245.643 32.7538 -0.398989
439.542 13.1306 -0.353366
290.106 50.552 0.188704
384.74 19.7285 0.506756
311.364 37.5235 -0.109358
354.965 27.5521 0.0962017
277.149 55.397 0.440253
169.59 31.703 -0.115905
525.879 77.2374 -0.156705
551.183 22.4976 -0.417061
5.76304 13.2422 -0.464287
356.301 34.5667 -0.462138
34.387 24.1519 -0.104377
320.164 35.899 -0.571616
329.305 36.1992 0.241342
68.5988 12.325 0.540839
47.3434 34.3682 0.434306
202.887 16.1604 0.472538
440.118 67.1185 0.439116
436.653 25.9945 -0.460281
68.1175 23.2449 0.515042
517.359 91.6373 -0.411138
531.335 2.52753 0.633971
477.84 90.8453 -0.457702
485.595 2.41387 -0.566455
418.545 30.8332 -0.504407
419.139 71.7863 0.579036
392.271 25.3153 -0.570092
551.634 5.56781 0.49053
199.808 26.9151 0.153088
114.84 41.9895 -0.218669
220.762 6.95352 0.477509
84.6517 4.91651 0.258907
58.5306 11.8154 0.240318
243.663 40.971 0.353886
14.6369 25.4163 0.591663
422.492 21.7575 -0.536336
435.352 74.5652 -0.194126
371.476 50.7867 -0.33205
552.149 89.6844 0.365431
346.997 8.96238 -0.13559
352.64 53.9873 -0.46145
408.506 3.13048 -0.220698
19.5973 25.5583 -0.48778
443.015 4.19522 0.532003
415.637 3.97897 -0.26246
184.853 11.1561 0.499228
351.777 27.744 -0.264909
271.602 6.51545 0.407126
331.118 21.735 0.413589
498.834 51.04 0.166846
172.045 26.5444 -0.490171
534.247 15.1424 -0.448693
501.549 48.4583 0.422466
327.634 11.2088 0.243751
504.504 2.16845 0.461634
448.495 38.4648 0.562332
520.462 22.4594 -0.493551
329.518 64.7243 -0.26657
381.366 23.7092 -0.543567
364.288 78.5054 -0.225579
368.224 17.8453 0.153792
481.709 91.3281 0.253757
480.312 87.1159 0.29258
172.925 41.6696 -0.394626
545.395 18.0095 -0.244599
419.596 73.2678 -0.267668
10.7429 18.6537 0.192035
336.233 33.0434 0.383783
167.571 23.2458 0.465853
85.6593 42.9371 -0.227313
540.727 62.8595 -0.458997
472.952 93.5004 0.219682
282.106 36.9437 -0.376016
407.396 10.8362 0.565532
75.5237 47.678 -0.214142
221.042 28.258 -0.485208
426.045 27.6959 0.512564
392.123 54.7491 -0.453184
235.633 0.91032 -0.404324
412.165 65.4401 0.456729
410.803 49.6979 -0.553678
383.703 70.9952 0.377209
383.989 8.30004 -0.636051
489.605 20.6745 0.449194
159.905 12.7777 -0.192864
403.599 75.105 0.419705
419.443 55.5619 -0.138205
67 0.98765 0.359445
225.866 5.64955 0.22235
550.481 27.6794 -0.272342
546.833 19.1269 -0.518145
553.996 28.9536 -0.667899
267.255 10.8487 -0.409788
519.334 36.0518 0.563337
336.437 59.2432 0.345905
368.811 1.86534 0.681918
468.07 82.1023 0.421823
23.5845 32.8556 0.361682
289.103 56.578 0.51475
226.544 3.77303 0.473639
537.97 83.4737 -0.179509
516.363 102.399 0.229111
255.784 15.988 0.233456
488.678 82.1325 0.0863334
427.215 2.44906 0.399675
413.707 7.67657 0.53613
88.5434 19.0332 -0.534686
266.356 0.911848 0.315967
294.781 2.14178 -0.442089
12.6502 7.81915 -0.609785
3.99664 32.2349 -0.247344
144.695 21.74 0.447965
62.474 44.5183 0.240309
60.6385 31.73 0.307999
352.837 24.7569 -0.606841
313.957 41.259 0.49416
519.414 64.575 0.150594
18.2393 4.3103 -0.267163
64.3921 7.24789 -0.185509
445.913 72.1377 -0.158741
259.373 0.88289 -0.39596
311.766 19.2293 -0.146364
211.445 5.28374 -0.388011
480.658 69.4872 -0.229457
367.184 13.2232 0.45113
520.769 37.78 0.593211
456.117 65.4862 -0.290207
493.729 56.0383 -0.110253
347.433 37.5057 0.557177
92.4691 50.4036 0.304234
417.538 86.1471 -0.0685327
523.676 17.9481 0.165941
213.934 34.9252 -0.250432
28.6892 18.7778 -0.221002
290.375 15.4881 0.513316
97.1629 44.0054 -0.584809
237.096 48.9703 -0.204635
361.618 4.52208 0.3171
544.839 73.28 0.401104
480.8 0.692231 0.672805
285.191 4.06108 0.504381
264.961 34.8605 -0.218763
365.247 74.5303 0.2092
74.4178 9.682 0.527843
178.003 49.345 0.377358
531.142 62.402 0.35625
398.656 77.7943 -0.0669349
179.411 43.6566 -0.292693
145.152 47.5244 0.472643
556.655 55.0675 -0.555754
552.895 22.4635 -0.663989
460.289 19.3568 -0.664206
170.912 25.0682 0.144392
420.776 32.3578 0.167916
422.67 32.3851 -0.298407
351.664 6.61446 -0.195478
380.185 2.43035 -0.702147
516.976 67.5735 -0.529295
78.8076 33.8651 -0.260091
485.597 66.0547 -0.440731
245.181 17.0866 -0.556182
8.30277 2.57839 -0.352791
114.274 44.0102 0.183694
61.7131 25.0218 0.619071
486.478 41.4508 0.395727
537.585 92.191 0.194951
166.588 29.085 0.209347
548.171 24.595 0.527377
41.6377 38.1235 -0.276395
83.9688 31.1986 -0.157984
470.463 50.6573 0.432258
344.238 26.9049 -0.653033
399.644 21.1546 -0.128028
214.513 33.0295 0.21352
466.573 17.6123 -0.6481
554.093 22.7025 0.374043
26.0066 33.6562 0.308414
242.506 8.19918 0.202047
200.427 17.1447 0.251875
1.29855 37.6866 0.116359
203.695 17.3171 -0.381669
191.019 11.1971 0.154555
192.144 27.6218 -0.356999
119.289 32.7552 0.128766
419.151 16.6914 -0.475192
148.512 15.6218 -0.346857
532.569 81.3065 0.242595
155.323 3.86568 0.524375
43.7561 39.4419 -0.459868
504.163 70.2216 -0.481956
249.991 36.1546 -0.42059
497.886 68.0832 -0.433147
549.844 76.4691 0.461832
266.364 12.5272 0.156167
510.659 37.2331 -0.449669
283.948 2.4878 0.53536
344.337 34.3767 -0.361902
472.449 22.1246 0.504117
96.626 12.4585 -0.553964
381.579 5.16436 -0.569056
523.331 38.1053 0.230065
80.1983 8.20694 -0.291334
251.091 19.0977 -0.21026
354.185 21.1998 -0.479904
552.515 2.25562 0.621157
341.644 1.74523 -0.647946
160.289 40.6891 -0.311777
525.741 18.0403 0.333416
116.79 42.6278 0.224307
234.395 33.6972 0.504165
340.902 22.0403 0.338989
441.251 15.7422 0.434974
330.843 10.3709 -0.556488
364.419 60.4917 0.471979
521.767 78.5051 0.412755
43.5698 12.3057 -0.24665
262.975 48.0215 -0.276158
324.767 31.0872 -0.45545
340.741 27.4028 0.311775
415.948 75.1426 0.382455
515.408 62.2511 -0.208244
486.305 87.8753 0.348901
202.172 36.9235 -0.391636
12.2842 34.3769 0.196818
478.285 87.2614 -0.119446
413.631 78.3121 0.433916
205.218 42.5203 0.110764
503.29 78.9852 -0.109681
136.265 11.6587 0.300864
314.475 24.7522 0.303146
365.357 76.6358 0.0991622
344.329 28.3666 0.363624
523.064 86.7897 -0.342829
357.708 12.2746 0.496703
45.4515 26.3885 0.224072
375.912 67.02 0.336963
353.579 60.8162 0.345594
537.943 76.0857 -0.238839
509.63 34.4684 -0.298363
415.636 22.3198 -0.188404
530.886 72.6598 -0.410078
260.829 4.02892 -0.584416
323.971 35.4526 -0.549058
25.6637 41.0247 -0.329212
507.294 42.4518 0.155339
451.632 44.1021 0.587608
371.078 3.09393 -0.537731
115.419 5.96239 -0.32776
347.085 54.3069 0.106753
10.7716 0.867494 -0.307616
550.577 7.30196 -0.333507
313.099 52.1586 -0.437454
462.418 29.2509 0.462003
[...]
POINT_DATA 13483
TENSORS Strain_matrix float
-1.20663 -2.3276 39.485 
0.645143 0.990974 -7.25191 
-4.12825e-18 1.26214e-18 1 

-5.20192 3.60556 168.847 
0.135693 0.453347 18.6992 
9.68113e-18 -7.14465e-18 1 

-0.253043 0.00741097 1.1628 
0.0820767 -0.0293967 -4.83235 
5.77409e-18 2.70717e-18 1 

-1.78968 -1.05663 -3.18322 
0.729766 0.868532 2.09849 
4.10965e-18 7.03764e-18 1 

-2.31535 -2.24705 9.29208 
0.0419128 0.696594 -1.88999 
-2.51946e-18 -4.67353e-18 1 

-0.270863 -0.065263 -17.093 
0.123919 0.0971964 -2.20926 
4.23377e-18 -5.91413e-18 1 

-0.434205 0.0842009 -0.168401 
-0.124009 0.108761 0.419371 
8.39445e-18 -1.48379e-18 1 

-0.285292 -0.176655 -0.497239 
0.461675 -0.0168344 0.031395 
1.20587e-17 6.06639e-18 1 

-0.934389 0.841358 -7.40947 
-0.258926 1.03299 -7.14815 
-1.85633e-18 -1.02841e-17 1 

-0.488519 -0.228127 0.236694 
0.0756157 0.0427965 0.290819 
5.30017e-18 1.47382e-17 1 

-0.146855 -0.0173395 0.0777366 
0.0680104 -0.0688517 0.0669754 
2.2294e-17 1.3467e-17 1 

-0.338961 -0.00735139 -0.797195 
-0.145242 0.00636132 -0.898298 
5.08201e-18 -1.00131e-17 1 

-0.195413 -0.674434 1.48673 
0.440344 0.312071 0.018017 
3.81155e-18 -1.12216e-17 1 

-0.244207 -0.698132 -0.278707 
0.647836 0.476179 0.267018 
-1.11302e-17 2.74192e-18 1 

-0.479793 -0.159477 -1.51543 
0.129958 0.160356 -0.653701 
6.3364e-18 -4.28663e-18 1 

-0.185512 -0.148575 1.39143 
0.116627 0.0292543 0.411007 
4.46089e-18 8.76526e-18 1 

-0.122935 -0.0668222 0.124521 
0.0240679 -0.125008 -0.0847082 
1.35656e-17 -7.76067e-18 1 

-0.481334 -0.048602 -6.59711 
0.233023 0.119389 -5.46666 
-3.60527e-18 2.19321e-18 1 

-0.912387 0.0931943 30.6872 
-0.187069 0.462177 10.5955 
5.17917e-18 2.15328e-18 1 

-0.709269 -0.0342053 -0.545402 
-0.179355 0.138836 0.150604 
-6.85107e-18 6.93922e-18 1 

0.00417443 -0.631823 0.315543 
0.668331 0.170647 -0.510855 
3.53016e-18 -4.12846e-18 1 

-10.1573 5.13058 -25.3577 
-0.239572 0.883173 0.24214 
5.10228e-19 -1.41648e-18 1 

-7.25791 -0.78709 -30.7584 
-2.27561 0.359018 -13.4903 
4.6602e-17 -1.38515e-17 1 

-0.00472439 0.465282 -0.370295 
-0.689104 0.167609 0.596697 
2.88802e-18 -1.53964e-18 1 

-1.28391 -0.0465469 0.746778 
0.520009 0.56518 -1.02833 
8.38823e-18 -6.2135e-18 1 

-0.287453 -0.253753 0.179225 
0.171113 0.12427 -0.193794 
-1.10359e-17 7.65754e-18 1 

-0.402508 -0.562476 -0.259425 
0.282578 0.29739 0.223979 
-6.80097e-18 -1.02015e-17 1 

-1.71536 -1.00272 0.92461 
0.585765 1.06054 -1.09661 
1.6724e-17 1.808e-19 1 

-0.139495 0.0976276 0.637777 
0.128622 -0.0959661 -0.498104 
-5.33351e-19 -1.18671e-17 1 

-1.79629 -0.657337 1.11378 
-0.00901312 0.155733 -0.751102 
-1.12726e-17 9.90306e-18 1 

-5.05273 -1.91922 -5.45072 
-0.379585 0.494926 0.0887055 
-9.57449e-18 5.06343e-18 1 

-0.639095 0.107825 0.555011 
-0.294789 0.107473 -0.212785 
-1.56783e-17 -2.73685e-18 1 

0.175553 -0.88533 -1.13505 
0.639331 0.430268 -0.666305 
-1.5096e-17 1.12717e-17 1 

-1.1086 2.72223 -399.874 
-0.0165326 0.0810927 -2.31135 
-2.29453e-18 1.88293e-17 1 

-0.103938 -0.135191 -0.0694286 
0.0827915 -0.107517 -0.412296 
-5.90277e-18 -4.33673e-18 1 

-2.55773 0.617122 0.821616 
-1.44954 0.732752 0.221344 
2.55091e-18 3.70915e-19 1 

-0.827814 0.254494 0.316551 
-0.153379 0.176124 0.489378 
-5.0492e-18 1.0423e-17 1 

-0.516725 -0.0399211 -0.0774806 
0.00786072 0.073324 -0.0627969 
1.17542e-17 1.00471e-17 1 

-0.706652 0.362637 -0.0400512 
0.0021258 0.228954 0.46091 
1.40338e-18 -2.15184e-17 1 

-2.66961 1.49698 33.9777 
-1.00381 1.37493 20.6009 
-1.9793e-18 5.11318e-18 1 

-0.385302 0.00888987 -0.257084 
-0.117614 0.113182 -0.850081 
-9.97544e-19 -1.45242e-18 1 

-0.493131 -0.366748 0.412415 
0.444607 0.214465 -0.406975 
-2.03028e-18 2.02232e-17 1 

-0.254437 0.104982 -0.0144651 
-0.2675 -0.193447 -0.0628159 
1.23372e-18 -1.03892e-18 1 

-0.225491 0.0863282 0.227236 
-0.0540681 -0.0375836 -0.346888 
-2.74576e-18 4.9923e-19 1 

-0.172707 0.0215459 0.032639 
-0.0159307 -0.0188595 0.0548687 
-4.51716e-18 -1.45291e-18 1 

-0.269054 -0.140965 0.320275 
-0.0920504 0.0734952 -0.000437107 
-4.74842e-18 7.50236e-18 1 

-0.737284 -0.319131 -1.85683 
-0.251461 -0.055813 -1.20958 
2.64793e-18 -1.19157e-17 1 

-0.0758555 0.0368305 -0.174455 
0.0216413 -0.160438 0.120008 
-2.52951e-18 1.2226e-17 1 

0.29027 -0.916727 3.68351 
0.715246 0.685455 2.47262 
8.14796e-18 4.21819e-18 1 

-0.37658 0.303812 0.367683 
-0.316503 0.322424 -1.64261 
-8.86767e-18 4.98806e-18 1 

-0.385563 0.0244715 -1.00643 
-0.105317 0.15718 -0.698231 
4.39433e-18 6.15087e-18 1 

0.0635856 -0.551906 0.379258 
0.41357 0.0627381 0.0516862 
-7.6773e-18 -1.02143e-17 1 

-0.156403 -0.0366018 -0.214335 
0.0056459 0.0179838 0.227105 
3.25519e-18 1.24329e-17 1 

-0.789517 0.229617 1.30798 
-0.0108947 0.267137 -0.467804 
-1.05867e-17 2.12925e-17 1 

-0.612413 0.00545899 -0.288467 
0.249215 0.0864053 -1.15235 
-9.59656e-18 1.2614e-18 1 

-2.13413 -3.09272 2.69122 
0.963985 1.15837 -2.20791 
-6.25717e-18 6.36847e-18 1 

-0.439964 -0.032114 -0.683643 
-0.157906 0.219861 0.902383 
2.19978e-17 -8.33124e-18 1 

-0.173493 -1.13221 -1.13747 
-0.0082279 -0.0275784 0.523439 
-5.70259e-18 -3.77682e-17 1 

-0.113012 0.0845699 -0.281634 
-0.120737 -0.0747897 -0.212428 
2.74972e-18 -7.21375e-18 1 

-0.382917 -0.116709 0.395003 
-0.240598 0.144157 -0.0607433 
-2.10489e-18 -4.91779e-18 1 

-3.82367 3.78321 -4.18852 
0.179799 0.401726 0.992399 
-4.58448e-18 -7.38327e-18 1 

-0.0847846 -0.496811 2.83409 
0.407875 0.19468 2.39897 
-1.69115e-17 5.49085e-18 1 

-0.15562 0.0472077 -0.613403 
-0.0134515 -0.102579 -0.0525575 
1.22149e-18 -3.42016e-17 1 

-0.334009 -0.243878 2.54235 
-0.00791277 0.0416204 0.56079 
-9.55174e-18 -2.36332e-18 1 

-0.413142 0.256108 -0.460877 
-0.4358 0.260208 0.643401 
-6.36919e-19 5.30766e-20 1 

-0.634171 0.226994 1.18917 
-0.293574 0.332816 -0.143902 
-1.1699e-18 6.87053e-18 1 

-0.739225 -0.242959 -0.0179665 
0.0199981 0.0487658 0.828163 
-1.8472e-17 1.24857e-17 1 

-0.0945746 -0.553287 0.500792 
0.399397 0.212125 -0.479555 
-6.60355e-18 -8.7468e-18 1 

-1.0688 -0.562998 0.795713 
0.771172 0.581341 -1.36212 
2.72938e-19 -2.00155e-18 1 

-0.371132 0.0952544 0.378587 
-0.196201 -0.279079 -0.716427 
-2.83916e-17 5.65142e-18 1 

-0.527671 -0.936493 -1.11708 
0.450482 0.459407 0.552678 
-7.85794e-18 -1.08128e-17 1 

-0.239859 -0.072428 -0.295749 
0.00203586 -0.00847085 0.180556 
5.63086e-18 -1.9668e-17 1 

-0.451141 -0.211608 1.02479 
0.120522 0.120834 -0.468726 
-7.57143e-18 8.71121e-18 1 

-0.639422 -0.0979811 -0.987427 
0.317691 0.39841 -0.374667 
2.1177e-18 1.18351e-18 1 

-0.273312 0.121302 -0.135359 
-0.0970417 0.0099111 -0.979701 
-1.93042e-17 -2.49921e-18 1 

-0.258542 -0.0174537 0.0185891 
0.0295394 -0.031898 -0.22419 
-6.09149e-18 4.19531e-18 1 

-0.0698126 -0.704264 -0.540739 
0.358864 0.126438 -0.0194289 
1.91614e-18 8.62263e-18 1 

-0.0840248 -0.32528 -0.451205 
0.378803 0.0409318 0.24364 
-3.76891e-18 -9.3045e-18 1 

-10.9105 -0.622061 23.0076 
-4.54866 0.438893 6.07873 
-8.76607e-18 5.96454e-18 1 

-0.442438 -0.14311 0.87328 
-0.020161 0.0528068 0.621164 
-1.78758e-17 2.62249e-18 1 

-1.59258 0.0307993 -0.840555 
0.299151 0.201552 0.162496 
-9.15636e-18 -7.54411e-18 1 

0.053832 -0.415105 0.575245 
0.420047 0.0765687 0.78893 
3.65502e-19 1.41235e-17 1 

-0.279559 -0.127812 -1.3893 
0.143666 0.0878929 0.234585 
-6.09754e-18 -9.70775e-18 1 

-0.475225 -0.0829561 -0.744445 
0.0323077 0.201451 -0.0137298 
-9.67369e-18 -1.97057e-18 1 

-0.0090676 -0.648259 -0.14332 
0.385095 0.139506 -0.069142 
3.86061e-18 1.0883e-18 1 

-1.47862 -0.391577 -2.31375 
0.117922 0.490277 0.181685 
4.7552e-18 -1.95717e-17 1 

-2.96233 -0.0596282 187.298 
-0.0692267 0.632395 12.1919 
-5.22736e-18 -1.58953e-17 1 

-0.344164 -0.361331 0.102329 
0.107806 0.110078 -0.531408 
5.24972e-18 4.98343e-18 1 

-0.735014 -0.708941 -0.115108 
0.509735 0.364028 -0.0798147 
-2.32946e-17 -3.1836e-18 1 

-0.265975 -0.0286533 -5.18989 
0.0447932 -0.0234675 -0.916956 
8.73001e-19 1.96622e-18 1 

-0.252214 0.00352026 0.00143699 
-0.126255 0.0118972 -0.117554 
-2.99786e-18 -2.99786e-18 1 

-0.381491 0.19002 -0.969561 
-0.0611966 0.0603452 0.214981 
-7.2469e-18 1.1997e-17 1 

-0.215704 -0.420796 7.0262 
0.427146 0.313309 1.85321 
2.95023e-18 -9.5189e-18 1 

-0.262242 0.073896 0.434879 
-0.0220171 0.127799 0.279712 
-2.06185e-17 -5.70126e-18 1 

-0.156749 0.137399 0.169096 
-0.0308645 0.0511306 0.453352 
1.82643e-17 -1.59e-17 1 

-1.06335 -0.887159 -1.14726 
-0.233072 0.464916 -0.225188 
-9.86608e-18 3.57966e-17 1 

-0.289855 0.0133633 0.129621 
-0.0385011 -0.000875094 -1.75982 
1.50429e-17 1.06955e-17 1 

-0.426717 -0.786381 1.27667 
0.516098 0.325774 0.94586 
1.01651e-17 2.13531e-18 1 

-0.00346954 -0.760357 0.101707 
0.596128 0.16014 0.0200026 
5.1604e-18 -1.09658e-17 1 

-0.371816 -0.347043 1.57526 
0.353052 0.278305 -0.186485 
-4.34454e-18 -1.93252e-18 1 

-0.21129 0.0466155 0.699425 
-0.0904458 -0.0170102 4.23946 
5.23762e-18 7.6826e-18 1 

-4.65287 -1.93305 -20.7661 
-0.123654 1.11443 1.06285 
8.69882e-19 1.39005e-17 1 

-0.331804 -0.0673362 2.12374 
-0.107165 0.0287299 1.12723 
2.63566e-18 7.52566e-19 1 

-1.31634 -0.803473 -0.237407 
0.485432 0.452008 0.191778 
8.88226e-18 1.13965e-17 1 

-0.672097 -0.208498 0.0375887 
-0.119637 0.00711005 0.0388463 
2.59847e-18 -3.18746e-18 1 

-0.319558 0.360864 0.514719 
-0.360386 -0.00465004 -0.445613 
-6.2845e-18 -2.38206e-17 1 

-1.07209 -0.550652 -0.105365 
0.326139 0.580009 -0.077546 
3.70957e-18 3.73335e-18 1 

-0.199658 0.00244346 0.292592 
-0.00505315 0.0498655 -0.389778 
5.99611e-18 -5.50903e-18 1 

-0.864947 0.287558 -0.190102 
-0.637428 0.284236 -0.361848 
-3.35167e-19 -4.12151e-18 1 

-0.31387 0.129829 0.348837 
-0.162166 -0.00977068 -0.136941 
-7.92047e-18 2.0994e-17 1 

-1.63162 1.03296 27.0097 
-0.62394 1.19254 19.4791 
5.04936e-18 2.04029e-18 1 

-0.198054 0.0217896 -3.37998 
0.018549 -0.0111272 1.14768 
6.00166e-18 -4.47502e-18 1 

-0.162455 0.245572 0.0670209 
-0.26013 -0.0449233 -0.0253187 
-1.21294e-18 -3.55217e-18 1 

-0.85819 -0.466505 3.85502 
-0.0744823 0.376867 -3.36786 
-1.27244e-17 1.80826e-17 1 

-2.1387 3.7792 -0.0727181 
-1.52559 2.60784 0.297437 
1.44483e-17 9.30112e-19 1 

-0.215659 0.142072 1.26749 
-0.28604 0.113832 1.82668 
6.06244e-18 -7.5149e-18 1 

-0.400315 0.0243335 0.0456992 
-0.282141 0.102506 0.109176 
2.8126e-18 -9.31675e-18 1 

-1.58922 1.21884 -0.919235 
-0.776142 0.797571 -0.971915 
-1.15278e-17 -5.92736e-18 1 

-0.393821 -0.90682 0.0858455 
0.424183 0.314239 -0.285576 
-2.11088e-18 2.92709e-18 1 

-0.0152734 -0.578348 0.105898 
0.389257 0.242187 0.567137 
-1.33662e-17 1.51273e-18 1 

-0.695319 -0.102533 -0.545122 
0.213865 0.0545334 -0.522169 
-9.43185e-18 -2.0504e-17 1 

-0.925056 -0.466501 0.546868 
-0.0473646 0.337675 -0.157798 
1.50748e-17 1.14244e-17 1 

-0.314428 0.0100318 -0.342732 
0.122488 0.162298 -0.00287177 
1.0836e-17 -1.14788e-18 1 

-0.114266 -0.699276 0.272542 
0.540095 0.301704 0.120224 
-2.3865e-18 5.11392e-18 1 

-0.505157 -0.0481104 -0.432661 
-0.056711 0.212146 -1.29346 
1.02529e-17 -5.97104e-18 1 

-1.06173 -0.177292 -0.766848 
-0.0864693 0.209036 -2.25236 
5.62603e-18 1.43561e-17 1 

-0.419941 0.00413269 1.39037 
0.00414977 0.149672 0.896698 
1.333e-17 2.0489e-18 1 

-0.433247 -0.087452 0.376849 
0.191987 0.171912 -0.521879 
-7.35418e-18 5.0298e-18 1 

-2.70464 -2.12177 -5.03006 
0.534129 1.45552 0.250951 
-1.67695e-17 3.63867e-18 1 

-0.74567 -0.178865 -1.58706 
0.769402 0.29363 0.800102 
-2.20726e-17 -1.65545e-18 1 

-1.1446 -0.636456 2.04357 
0.0943501 0.592083 1.3446 
-1.09801e-17 -4.68315e-18 1 

-0.296209 -0.143715 0.135354 
0.517375 0.158579 1.00681 
3.44432e-18 3.26105e-18 1 

-0.109505 0.145639 0.222177 
-0.0109633 0.0483191 -0.714509 
-1.4829e-17 -1.64701e-17 1 

-1.60358 -0.772734 -3.1406 
-0.306914 -0.0804709 -1.92453 
3.18259e-18 -1.85468e-17 1 

-0.747058 -0.631683 0.992594 
0.067934 0.44347 -0.431706 
8.91007e-18 -1.49388e-17 1 

-0.234927 -0.147754 1.17195 
0.0537619 0.0674014 -0.851829 
-1.17248e-17 -2.01564e-18 1 

-0.969367 0.161783 1.88364 
-0.748579 0.676158 0.418593 
-1.26363e-17 -1.18128e-17 1 

-0.312578 -0.254817 -0.146169 
0.287174 0.190783 -0.955999 
2.64971e-18 1.64798e-17 1 

-0.530461 -0.402432 -0.160146 
0.337036 0.0808062 0.258788 
-1.02732e-17 -1.78471e-19 1 

0.00577383 -0.410417 0.0811604 
0.42098 0.0761463 -0.087783 
-6.27676e-18 5.38008e-18 1 

-0.454186 -0.0606635 -0.237123 
-0.160865 0.073894 0.400946 
-2.2472e-17 3.03525e-17 1 

-0.202233 -0.0163081 0.0548461 
0.0916929 0.0539044 0.216744 
-2.37951e-19 -5.63151e-18 1 

-0.216128 -0.377321 0.293102 
0.147554 0.0101041 0.555293 
-2.02413e-17 1.0353e-17 1 

-0.377505 -0.233165 0.121119 
0.144218 0.256673 0.185957 
-4.13295e-18 -9.85727e-19 1 

-0.465927 0.185011 -0.14025 
0.0950519 0.273787 0.438366 
1.00804e-17 -1.3017e-17 1 

0.0473114 -0.931991 -1.80468 
0.525212 0.416718 -0.962702 
8.50901e-18 2.53958e-18 1 

-1.2747 0.242775 0.499847 
-0.542137 0.425006 -0.464327 
1.44032e-17 0 1 

-0.174035 0.0237389 0.429075 
-0.0683017 -0.0841572 0.950025 
-4.92553e-18 -2.02298e-18 1 

-0.582551 -0.25728 -0.680272 
0.194617 0.318912 -1.54303 
-1.16037e-18 1.07833e-18 1 

-0.230972 0.0278416 0.340627 
-0.170928 0.0171977 0.10499 
1.32342e-18 6.03018e-18 1 

-0.574768 -0.223111 9.15235 
0.141803 0.263405 -3.70182 
-1.36223e-18 -5.34485e-19 1 

-1.9539 -0.714604 1.06992 
0.136976 0.603577 -3.39656 
1.03994e-18 -7.54922e-18 1 

-0.280278 -0.0250485 -0.946461 
0.105357 0.0581328 2.34128 
8.75298e-18 -2.42875e-18 1 

-0.250136 0.0344974 1.23796 
0.0565988 0.102668 0.188134 
4.31069e-18 9.80383e-18 1 

-0.318884 -0.00167236 0.474223 
-0.0142732 0.0803126 -0.368263 
2.12829e-18 1.37452e-18 1 

-2.18848 0.564742 2.72512 
-0.21701 0.875007 1.29763 
-5.31695e-18 4.40714e-18 1 

-2.25193 -1.07699 -1.98501 
0.939899 1.08585 1.71445 
-8.19988e-18 9.91325e-18 1 

-0.258069 -0.0448099 0.843118 
-0.0352486 0.0838468 -0.613988 
5.48116e-18 -5.02674e-18 1 

-3.71225 -2.8547 -0.914453 
0.543854 1.15254 -2.08629 
6.46856e-18 3.57387e-18 1 

-1.4603 0.423017 -0.370039 
-0.228125 0.255688 -0.0910119 
-2.53078e-17 1.90051e-17 1 

-0.049945 -0.328938 1.01335 
0.25991 0.0543939 -1.53297 
7.24236e-19 -3.53841e-18 1 

-0.432073 -0.330625 0.218514 
0.188913 0.0223165 -0.297422 
-7.37439e-18 -5.06989e-18 1 

-0.915602 0.0153802 1.3778 
0.242799 0.334934 1.0648 
1.31152e-17 1.35371e-17 1 

-2.83049 -0.985082 -136.926 
-0.058551 0.559389 -11.3455 
2.82607e-18 7.8281e-18 1 

-0.42671 -0.343621 1.54134 
-0.103249 -0.0354471 0.325812 
3.1336e-18 1.70436e-17 1 

-1.55483 -0.460076 -0.591319 
0.824623 0.387745 -0.102183 
-8.02903e-18 1.39804e-17 1 

-0.11834 -0.0820016 -0.0659185 
0.151935 -0.0239981 0.173165 
-1.81231e-18 1.41317e-17 1 

-0.383009 0.0673485 -0.0325206 
0.22282 0.205782 0.263166 
-4.63234e-18 1.4231e-18 1 

-0.21244 -0.102435 0.740714 
0.0897924 -0.114782 0.988252 
-1.57749e-17 7.06635e-18 1 

-0.26486 -0.0483006 0.56053 
0.0522841 0.0437 -0.3343 
-5.90846e-18 6.1288e-18 1 

-0.267878 0.0199364 0.468935 
0.120189 0.0286229 -0.13661 
6.92949e-18 -1.02618e-17 1 

-0.269347 -0.0148389 -0.436779 
0.0555819 0.135604 -0.28248 
1.94567e-17 -3.87841e-20 1 

-0.576 0.100108 2.35479 
-0.126428 0.228223 1.73563 
-9.68327e-18 1.02098e-17 1 

-0.701505 -0.175347 0.136477 
-0.0599127 0.310685 1.26113 
-7.52358e-18 7.45054e-18 1 

-0.256572 -0.623588 0.381418 
0.724958 0.498217 -0.306241 
2.29084e-18 1.06906e-17 1 

-1.4631 -0.807115 2.20401 
0.966555 0.777974 0.549511 
2.41743e-18 1.48765e-18 1 

0.0515936 -0.749116 0.234381 
0.755955 0.452129 0.692181 
4.56798e-20 -1.7541e-18 1 

-0.186442 -0.147292 0.0812743 
0.0458132 -0.0627025 -0.114352 
-4.85982e-18 4.52763e-18 1 

-0.362061 -0.595137 9.96407 
0.296516 0.421847 -0.815941 
6.46425e-18 2.09407e-18 1 

-0.29342 0.231771 -0.0190072 
-0.306688 -0.154108 -0.184243 
-1.50364e-17 -8.23915e-19 1 

-0.176479 -0.157617 -0.0786394 
0.0777226 0.0432909 0.680347 
3.59111e-18 -2.24444e-19 1 

-0.42682 -0.102819 1.47006 
-0.113391 -0.0261934 0.1852 
6.62288e-18 6.74552e-18 1 

-0.505292 -0.109215 0.272152 
-0.138777 0.0760807 0.0386997 
-1.32854e-18 2.65707e-18 1 

-0.163256 0.0047147 1.13128 
0.052964 -0.0464888 0.39481 
1.30148e-17 5.41416e-18 1 

-0.589954 -0.417408 -0.146482 
0.125974 0.102259 0.0794483 
7.02367e-18 -5.14749e-18 1 

-0.205642 0.38688 -0.147135 
-0.51851 0.12268 0.616923 
-3.04335e-17 0 1 

-1.02949 0.0693927 -0.815812 
-0.0337009 0.24262 -0.32726 
1.91035e-17 7.31936e-18 1 

-0.0187074 -1.06471 0.885813 
0.625211 0.813856 0.702532 
-3.88182e-18 -2.10207e-18 1 

-0.320817 -0.167514 0.0470611 
0.0592812 0.0548979 1.34438 
-8.58176e-18 -1.44999e-17 1 

-0.700197 -0.571081 -0.370176 
-0.072 0.030016 0.12354 
2.27129e-18 7.91218e-18 1 

0.484737 -0.998866 -0.0459734 
1.00187 0.539302 -0.229827 
-7.49108e-18 4.2058e-18 1 

-0.453272 -0.109196 -0.461984 
-0.186972 0.165368 0.447253 
-1.40185e-18 1.12148e-18 1 

-0.679878 -0.720909 -1.13093 
0.146668 0.266503 0.403984 
1.38074e-18 9.71073e-18 1 

-1.00638 -1.06157 -0.0286916 
0.959526 0.885012 9.24503 
-2.40586e-18 -5.50316e-18 1 

-1.37723 -1.08654 -1.14175 
0.550281 0.710797 -0.898212 
5.7314e-18 -5.50352e-19 1 

2.05323 -6.03784 -23.6001 
0.25349 0.828533 -0.525608 
2.19284e-18 5.75622e-18 1 

-1.65031 1.80487 -7.48009 
-0.995176 0.870684 -2.13105 
-2.94097e-18 -1.73784e-17 1 

-0.290419 -0.230615 0.743287 
0.174883 0.391366 -1.52754 
2.73323e-18 -7.70274e-18 1 

-1.63526 1.76993 3.81085 
-0.744425 0.765203 1.60096 
4.82109e-18 -7.85329e-18 1 

-0.0429303 -0.344522 -0.138959 
0.331654 0.117713 -0.00318842 
-5.30469e-18 -9.62038e-18 1 

0.00144971 -0.239944 -0.141752 
0.267179 -0.0358501 0.0537117 
-2.45266e-18 7.54666e-18 1 

-0.472472 0.0326192 -0.10145 
-0.134518 0.209518 0.690559 
5.75599e-19 1.42666e-17 1 

-0.630812 -0.461165 1.28426 
-0.251614 -0.0385887 -0.418186 
9.5473e-18 2.1933e-17 1 

-8.87346 1.79092 -5.63514 
-0.387394 0.91764 -0.990264 
-1.02168e-18 -5.14831e-18 1 

-0.599336 0.261717 -0.0212519 
-0.44243 0.238234 -0.0255864 
-1.94188e-17 1.58881e-17 1 

-0.794647 -0.883504 5.48463 
0.376795 0.396934 -2.01535 
4.15123e-18 -1.21895e-17 1 

-0.109915 0.013742 0.672156 
-0.0215405 -0.0748597 0.348964 
-1.18224e-17 -4.54709e-18 1 

-0.260079 -0.127541 -0.265747 
0.0440842 0.173652 0.259343 
1.39805e-18 2.86527e-18 1 

-0.1579 -0.511168 4.1634 
0.501995 0.123647 3.22095 
-1.05022e-17 -1.23936e-17 1 

0.0477764 -0.32921 -0.0246415 
0.278203 -0.00290583 -0.299788 
-2.50723e-19 -9.16931e-18 1 

-0.30234 0.221274 -0.658159 
0.133154 0.105596 0.944348 
-5.6069e-18 -1.52694e-17 1 

-0.621066 0.135556 -1.45632 
-0.0428089 0.133722 2.03922 
2.9913e-18 2.52786e-18 1 

-0.260796 -0.217154 0.293368 
-0.0233014 0.233952 -0.75286 
3.30922e-18 8.65255e-19 1 

-0.390885 0.23006 -0.989489 
-0.274159 0.183995 -1.16819 
-2.6773e-18 -6.69324e-18 1 

-0.595436 0.218624 0.688287 
-0.0691296 0.199341 -1.66831 
2.87075e-19 -7.24067e-18 1 

-2.24586 2.03579 5.3093 
-0.776465 1.3779 -0.916808 
2.28866e-18 8.07762e-18 1 

-0.273921 0.00246859 0.337205 
0.0188288 -0.036305 -0.0235958 
2.0205e-17 -4.36065e-17 1 

-5.97465 3.84547 -13.9716 
-0.349654 0.810649 -2.40193 
9.33182e-19 -3.08047e-18 1 

-4.57756 0.722914 -3.19267 
0.974287 0.278787 1.20334 
-7.20905e-18 7.54139e-18 1 

-0.0656079 -0.397925 -0.166562 
0.122812 -0.010194 -0.232394 
5.66002e-18 -7.34273e-18 1 

-1.86794 -3.09925 -7.02749 
0.312725 1.19875 1.93001 
7.21107e-18 4.11632e-18 1 

-1.08444 -0.372204 1.06955 
0.498211 0.441974 0.165771 
-7.35342e-18 3.30904e-18 1 

-0.0402605 0.0426378 0.509161 
0.126297 -0.0878636 0.00609877 
8.96432e-18 -1.61787e-17 1 

-0.723584 0.0513933 -7.19654 
-0.191241 0.057721 -15.2667 
-4.65901e-18 5.17877e-18 1 

-0.270391 -0.0907312 -0.222772 
-0.0435157 0.0638985 0.30818 
-1.17254e-17 -5.1374e-18 1 

-0.209883 -0.193923 0.105434 
0.0170005 0.0189958 -0.128849 
-5.09963e-18 -1.5708e-17 1 

-0.150385 -0.0393241 -0.0841355 
-0.0127586 -0.0984443 -0.0900383 
4.49769e-18 1.28505e-18 1 

-1.48017 -0.77696 -0.0765763 
0.200638 0.435361 0.368816 