# vtk DataFile Version 3.0
Output file generated by Yade's KinematicLocalisationAnalyser
ASCII
DATASET UNSTRUCTURED_GRID

POINTS 13483 float
657.455 27.1978 0.399834
864.076 43.9039 0.482424
128.999 6.01124 -0.451881
914.404 4.45097 0.341964
535.031 7.54991 -0.305265
336.69 34.428 0.212711
167.999 6.78768 0.409624
613.715 9.99488 0.141338
531.845 22.4658 0.145906
798.481 11.9343 0.383738
225.676 8.81412 -0.0912262
275.138 6.27545 -0.267769
711.609 27.9986 -0.157894
687.901 13.7835 0.0752555
147.15 16.8756 0.424946
237.308 34.2113 0.392813
233.275 12.779 -0.274375
308.974 9.45364 0.389949
364.479 32.1434 0.1717
563.121 8.52102 0.345308
439.603 36.0361 0.110396
638.946 43.2568 0.253392
910.505 28.877 -0.490224
768.801 40.4212 -0.462186
491.234 16.0198 0.290284
257.768 43.6326 -0.122167
526.611 26.8626 -0.483057
632.794 18.8901 0.227067
48.4663 15.3281 -0.457889
793.245 30.0511 -0.312134
516.648 4.88986 0.315812
18.05 22.7979 -0.275714
879.565 40.1084 -0.273273
530.592 2.46521 0.486663
83.9789 43.4052 0.100298
559.833 29.602 0.344772
569.946 16.4367 -0.408559
368.076 22.2676 -0.177271
573.315 25.0123 -0.33686
375.302 32.7395 0.415297
258.22 14.5245 -0.292392
464.693 34.9113 0.0659438
742.315 6.83737 0.110399
206.961 6.16794 0.377118
59.5732 6.85926 -0.127134
73.4834 8.82434 -0.291713
761.193 8.58653 -0.460406
25.2854 11.6074 -0.297415
661.783 43.0894 0.359086
744.193 22.4227 0.348616
185.361 31.796 0.28442
858.636 32.3432 0.148627
37.5778 27.6152 0.114579
574.078 2.94153 0.322476
152.736 7.46329 -0.465813
641.805 32.9002 0.406785
541.043 25.7395 -0.141831
187.701 0.924004 -0.26091
35.1647 2.4226 -0.278508
373.272 17.5273 0.272768
674 43.8272 -0.139679
495.254 32.9599 -0.181983
427.476 1.0285 0.188203
774.035 7.54864 -0.340015
28.5171 42.3675 -0.234898
274.711 30.0541 0.296853
798.621 7.30809 0.181281
735.556 42.7462 0.358318
447.143 8.55319 -0.477691
614.559 3.48824 -0.344043
834.039 28.0014 -0.395148
140.591 7.55005 0.280925
534.781 24.8491 0.136225
512.076 14.7528 -0.133021
315.636 16.5276 -0.311358
22.211 13.4658 0.246397
886.263 30.4791 0.35438
356.372 38.1685 -0.279979
741.563 19.293 -0.334915
761.042 12.3923 -0.222878
897.454 10.825 -0.200772
498.882 33.9374 -0.161087
99.32 37.6301 0.271095
754.799 32.5837 0.207182
708.085 36.4569 0.100997
918.462 35.307 0.128503
889.779 0.82535 -0.459672
312.156 28.4532 0.423844
676.115 6.17728 0.0838742
26.1211 5.21893 -0.450795
142.901 37.3087 -0.147651
551.471 14.2296 0.198052
876.36 23.0665 -0.531148
210.333 28.317 -0.220304
47.7297 33.7054 0.270691
529.447 1.15867 0.114747
253.358 8.85994 -0.354764
837.131 37.1252 0.273829
862.989 24.552 0.281323
387.799 20.5626 -0.252425
176.671 26.4251 -0.462094
593.433 37.3007 0.416874
407.954 15.1606 -0.441204
443.997 28.9821 -0.102132
406.107 4.4551 0.408358
591.32 10.8096 -0.0910799
919.377 11.1121 0.198069
86.4503 38.5099 -0.389739
360.251 4.78145 -0.174049
606.761 9.35732 -0.329879
386.801 43.1204 0.44764
27.9515 24.3738 -0.454531
32.7796 5.70668 -0.324593
615.57 31.4304 -0.403034
544.296 23.4843 0.149157
28.4044 36.4346 0.349935
100.298 30.1301 0.222214
349.472 15.6778 -0.299695
652.463 18.4441 -0.134604
511.821 37.1487 0.305973
818.945 7.58801 -0.384818
809.225 6.05947 -0.181602
416.246 36.5242 0.0967835
694.67 24.4381 0.119839
256.763 16.9421 0.495387
355.201 3.68711 0.462041
111.955 30.9183 0.343757
125.584 23.6567 -0.255574
588.409 37.8634 0.0787394
329.463 18.659 0.446952
787.654 33.1563 0.11991
740 41.9794 0.115564
518.333 20.1767 -0.397829
867.468 8.65437 0.281747
462.038 22.9061 -0.227658
298.141 23.9093 0.313659
742.608 29.4727 -0.19675
300.521 27.9279 -0.402828
626.108 11.4464 -0.188867
357.602 34.917 0.189744
545.399 11.2959 0.442314
395.397 30.9519 0.0951128
464.42 16.4268 -0.106062
343.08 41.1488 0.342459
206.256 29.2105 0.124698
869.742 41.9656 -0.181379
914.852 11.7686 -0.302303
6.44274 11.967 -0.469014
468.722 22.0429 -0.406849
41.3939 22.081 0.074347
405.816 30.7332 -0.455844
426.122 24.5143 0.255485
81.0325 11.8194 0.446361
56.0932 32.4998 0.429679
244.356 13.2291 0.371992
675.474 37.4019 0.412863
628.883 20.0139 -0.448926
81.1085 20.7672 0.362478
771.687 43.9808 -0.405463
852.73 2.41147 0.413291
727.28 38.8779 -0.456818
768.997 2.33079 -0.380435
597.958 26.039 0.418447
640.556 43.5921 -0.451598
555.577 17.7175 -0.389465
911.593 3.12377 0.235467
242.097 24.454 0.123584
138.315 34.3014 0.193841
267.635 6.35778 0.360498
102.599 4.06352 0.251554
69.6028 9.91885 0.198914
298.426 35.2366 0.307914
18.2589 24.5703 0.356193
604.317 18.9657 -0.38938
661.561 38.0786 0.217031
500.942 20.8055 -0.36522
900.051 35.568 -0.354717
439.947 8.46414 0.0833007
471.752 35.2483 0.283472
583.072 3.42412 -0.18261
24.9716 23.6461 -0.387
629.023 4.29433 -0.361569
593.566 4.34692 -0.283611
223.773 11.2838 0.471412
460.245 16.2665 -0.190965
337.046 6.29015 0.323228
419.91 18.8029 -0.319517
823.226 40.0662 0.11812
208.541 25.3825 -0.405535
880.906 6.85357 -0.301311
822.302 36.2267 0.336148
415.021 10.0414 -0.18504
795.34 2.38577 0.39291
661.946 24.4792 -0.404002
827.591 17.5546 -0.416053
466.673 41.7425 -0.26982
539.152 12.2448 0.336693
504.6 43.3654 -0.219275
482.882 8.54936 0.133436
730.987 38.0074 0.27771
728.567 34.4677 0.333966
208.722 38.2768 -0.331174
895.234 10.7511 -0.134473
643.039 44.0455 0.241688
12.2655 16.5352 0.195741
441.148 24.9713 0.35255
203.394 22.7279 0.393835
101.012 38.4969 -0.196744
874.276 20.4751 -0.450572
723.765 42.7928 -0.226284
345.866 25.0494 0.354804
579.716 10.0894 0.321653
89.4001 43.4135 0.161606
268.694 25.5737 -0.478487
607.19 22.9115 0.362764
528.362 18.1391 0.405416
285.105 0.889887 -0.342776
603.331 38.9402 -0.350063
581.4 40.0831 -0.442959
523.53 32.2313 0.376794
542.413 0.771611 -0.485279
780.75 18.0255 0.330177
195.287 11.7768 -0.176896
543.972 35.4255 0.425143
616.615 38.4748 0.11707
79.0758 0.947512 0.27281
273.256 4.69041 0.170287
914.079 13.6374 0.208878
897.847 12.7897 -0.384502
921.773 15.3831 -0.52714
329.144 8.46994 -0.226927
834.953 21.756 0.417029
441.694 40.6901 -0.321351
487.201 0.811509 -0.398775
715.181 33.8796 0.537956
29.7368 30.045 0.296512
358.532 40.446 0.46958
274.146 2.83185 0.31081
882.545 37.1285 -0.258517
792.245 45.2114 -0.229295
311.816 10.8042 0.197625
735.537 27.8437 -0.0977445
608.478 2.65691 0.266538
591.238 6.3953 0.412613
105.266 17.865 -0.468516
328.99 1.03607 -0.222308
372.646 2.26203 -0.364662
15.1868 7.56641 -0.341788
4.75481 30.2167 -0.241348
176.217 18.61 0.35425
74.0914 40.9749 0.21157
72.709 28.2347 0.331167
459.79 14.4499 -0.396229
398.479 34.4593 0.468581
856.47 34.1809 0.166369
21.2547 3.94337 0.286248
76.7196 6.81304 0.128086
686.793 36.728 -0.159199
320.062 0.932057 0.318672
396.165 15.8635 -0.0923641
256.189 4.63161 -0.385901
720.187 20.6847 -0.216853
490.583 8.25349 0.4053
838.017 19.6434 -0.3721
693.953 27.8812 0.345117
740.451 17.4589 -0.0736852
456.157 26.0957 0.464079
110.948 44.0215 -0.304829
592.378 41.134 0.0689865
824.692 13.1762 -0.166632
258.578 29.9533 -0.244513
35.0851 16.7555 -0.16333
365.351 13.6429 0.481552
117.398 39.6599 -0.46153
290.834 41.6055 -0.186413
462.056 1.08351 -0.198201
882.988 27.3688 -0.404991
760.985 0.800083 0.468172
360.869 3.11276 0.484346
325.911 26.1423 -0.146058
503.389 40.2247 0.204943
88.7399 8.03783 -0.446691
215.714 44.4493 0.37769
865.717 26.9061 0.375919
538.925 37.9088 -0.0772265
217.951 40.8641 -0.250223
175.429 41.5404 -0.352105
921.724 31.7737 -0.467216
917.635 11.1669 -0.484016
665.238 3.54997 -0.494893
207.128 24.1541 -0.0956265
599.973 26.942 0.110993
602.026 26.689 -0.261857
444.719 5.57246 -0.135411
524.153 0.932022 -0.277831
854.25 36.2513 -0.499915
92.6016 30.3108 0.226612
725.989 17.8822 -0.423546
298.431 15.3647 -0.336036
10.7541 2.31117 0.338568
136.852 36.0766 0.19127
73.1583 22.8261 0.449057
780.149 34.8855 -0.322412
888.996 41.5571 0.167696
202.354 27.8347 -0.172417
909.316 11.6015 -0.29042
49.0471 35.7251 -0.257259
99.2091 28.5114 -0.155606
698.309 12.6909 0.379062
449.399 18.047 -0.471902
566.543 16.3817 0.117624
259.173 27.9961 -0.00749075
683.698 4.43522 -0.413827
922.382 10.5916 0.341746
32.5775 31.1791 0.260142
293.864 7.68667 0.185084
241.887 14.8428 0.237199
1.10952 34.7912 -0.146335
245.345 14.3257 -0.36032
230.709 10.939 -0.108332
233.843 25.9723 -0.286875
145.228 27.3774 -0.130661
598.275 14.8378 -0.333587
182.468 13.9383 -0.343178
876.793 38.8122 0.225548
189.923 3.76184 0.483832
51.6423 36.6171 -0.363618
830.501 45.8176 -0.426396
305.789 30.7846 -0.379212
750.812 22.6179 -0.409209
893.978 26.6557 0.585486
327.148 9.08781 -0.111903
820.35 28.1992 -0.340082
357.593 2.6251 -0.359589
452.439 23.5589 0.352066
747.131 15.7166 0.421055
115.249 11.867 -0.403999
525.892 3.95768 -0.459295
841.885 17.2106 -0.196523
96.4639 7.60671 -0.185239
306.498 14.5166 0.20107
460.601 11.6347 -0.19498
909.798 2.77734 0.403169
432.714 1.87947 -0.485784
193.06 38.1795 -0.274188
827.562 10.2568 -0.313125
140.214 35.4673 0.179411
286.357 30.9299 -0.38062
435.602 21.3696 0.210713
628.697 13.2071 -0.320594
421.19 9.70044 -0.453975
496.982 27.147 -0.32408
865.304 43.9361 -0.378263
51.9429 10.8302 -0.105841
325.776 37.9744 -0.254155
413.011 26.5211 0.345087
445.373 20.6855 0.25703
569.216 43.4773 0.356483
846.793 34.3416 0.237802
734.586 33.6545 -0.363967
246.035 33.6213 -0.386017
15.2472 30.5938 0.159233
726.803 35.3256 -0.138584
555.299 40.3465 0.427636
250.207 38.5245 -0.0914447
758.83 29.6798 0.132762
165.153 9.09043 0.196718
399.04 20.874 0.305954
505.202 41.2864 0.0998905
450.568 19.3602 0.195974
860.752 45.9312 -0.291016
463.579 3.41288 0.420987
54.3843 24.5133 0.140929
512.151 30.9145 0.354033
473.418 40.9424 0.353574
879.802 32.9931 -0.257902
817.553 27.2447 0.217674
591.557 18.2203 -0.178857
870.278 34.4874 -0.443857
319.135 2.04477 -0.427458
411.736 28.8481 0.454827
31.7372 38.1835 -0.296081
823.556 29.0893 -0.145277
670.746 19.366 0.502278
504.448 0.777975 -0.482769
137.97 4.46233 0.281308
464.64 39.2903 -0.10063
13.2987 0.902708 -0.317571
908.627 5.45184 0.192378
403.044 38.542 -0.395213
[...]
POINT_DATA 13483
TENSORS Strain_matrix float
-0.0651637 -0.0484533 0.184409 
0.0121465 -0.0356419 -0.272537 
-3.76888e-18 -3.34366e-18 1 

-0.121864 -0.0416882 -0.554556 
0.0320806 0.0155938 -1.66708 
1.37438e-18 2.35449e-18 1 

-0.0511337 0.00371024 0.566818 
-0.0105458 -0.0745388 -0.294551 
-9.10661e-18 6.00944e-19 1 

-0.236899 0.0667303 -0.0759245 
-0.0840493 0.0282141 0.0121763 
1.42193e-17 -1.08087e-17 1 

-0.0829909 -0.0274086 0.0648472 
0.00706236 -0.0687732 0.034352 
6.61833e-18 3.09465e-18 1 

-0.0466608 -0.0485009 -0.0448088 
-0.0128797 -0.0433317 -0.0500802 
7.70158e-18 7.15794e-18 1 

-0.0312181 -0.0156849 0.00530183 
-0.000323811 -0.0984847 0.00221217 
-4.84588e-18 -7.26882e-18 1 

-0.0581198 0.0135729 -0.105067 
0.0163547 -0.0692552 -0.0267111 
1.05203e-17 3.58334e-18 1 

-0.0659681 0.0180721 -0.101223 
0.0228592 -0.027019 -0.0891687 
2.59002e-19 -7.12255e-18 1 

-0.160924 0.0457749 0.044391 
0.0662671 -0.0397715 -0.0509012 
-2.84945e-18 -9.01222e-19 1 

-0.0521265 0.0320158 -0.140821 
-0.0224228 -0.0738865 -0.0224939 
7.73929e-18 6.41562e-18 1 

-0.0563945 -0.0408179 0.183585 
-0.0617761 -0.0918624 0.0142692 
-1.53327e-17 -7.15229e-19 1 

-0.102507 0.0608006 0.176515 
0.0288214 -0.0344958 0.135964 
-5.35953e-18 1.00491e-18 1 

-0.122189 -0.0275687 -0.269053 
0.0127454 -0.0451171 0.180422 
-2.75441e-18 -1.27358e-17 1 

-0.0686997 -0.0133307 0.378658 
0.0267884 -0.0578574 0.43319 
7.61628e-18 2.58972e-18 1 

-0.045475 -0.0085037 0.213657 
-0.0509713 -0.0231535 -0.0343382 
-3.75518e-18 4.82199e-18 1 

-0.0359229 -0.0348682 0.135492 
0.00297329 -0.120048 -0.0183235 
3.87302e-18 8.16167e-18 1 

-0.0954745 0.00138904 0.0217757 
0.0142724 -0.0860622 0.0297005 
-1.34859e-17 -1.45648e-17 1 

-0.0557715 -0.07734 -0.119394 
-0.0247249 -0.0195697 0.23929 
-7.58187e-18 1.61316e-19 1 

-0.0653775 0.0340476 0.194938 
-0.0611109 -0.0925597 0.0568728 
4.85513e-18 -9.66279e-18 1 

-0.0500099 -0.00280629 0.0590741 
0.0583028 -0.0289893 0.0670963 
1.71894e-18 7.7218e-18 1 

-0.0712407 -0.0174398 0.275184 
-0.00146489 -0.0482292 0.0248249 
-9.3301e-20 2.42582e-18 1 

-0.186032 0.00463115 0.212688 
-0.0281521 0.00165458 -0.620319 
-1.3755e-17 -5.47653e-18 1 

-0.0996297 0.0067918 0.780013 
0.00887532 -0.0164814 -0.347301 
-9.79355e-18 2.99605e-18 1 

-0.0335616 -0.0269982 -0.15612 
0.0719946 -0.0560018 -0.0399254 
-2.86577e-18 -7.25126e-18 1 

-0.0382334 0.0500519 0.0602878 
-0.0487543 -0.0199685 0.190796 
-3.23111e-18 1.73756e-17 1 

-0.0677261 -0.00770891 0.593207 
1.50259e-06 -0.0465672 -2.61199 
1.82424e-18 -8.20007e-19 1 

-0.0830576 0.00662318 -0.0360912 
-0.0198928 -0.0201183 -0.0359237 
-3.53507e-18 -1.08168e-18 1 

-0.0469451 0.0033817 0.370979 
0.0549008 -0.082886 -0.152007 
-5.03389e-18 -4.89097e-18 1 

-0.136455 -0.0123167 -0.0632932 
-0.0151364 -0.00644459 -0.0410906 
0 -8.95641e-18 1 

-0.0556632 -0.0214877 -0.265867 
0.00276899 -0.151053 0.404669 
-1.66466e-18 -4.62406e-18 1 

-0.0373176 0.00996326 0.0658237 
0.0338154 -0.0938572 0.14171 
2.00871e-18 -1.18547e-18 1 

-0.121357 0.00587399 0.663626 
-0.00176292 -0.000499987 0.354645 
-1.02283e-17 -5.68822e-18 1 

-0.077631 0.0198353 -1.43209 
-0.00937157 0.016982 -1.42248 
-1.54968e-18 -1.11096e-17 1 

-0.015595 0.02715 0.0295332 
-0.0633954 -0.0762183 0.0305852 
1.06822e-19 1.20609e-17 1 

-0.0781106 -0.0282693 -0.155189 
0.0261441 -0.0112395 0.178611 
2.90062e-18 -3.03246e-18 1 

-0.0617218 -0.000739445 0.145924 
0.00393958 -0.0540474 -0.50356 
1.22169e-17 3.06389e-18 1 

0.0191647 -0.0133062 0.0567693 
-0.0232918 -0.159849 -0.0235451 
5.21733e-19 1.64008e-18 1 

-0.0561638 -0.0269674 -0.141149 
0.0835879 -0.0518673 0.0372301 
3.92263e-18 7.52768e-19 1 

-0.0446956 -0.0221451 0.279883 
0.0149268 -0.0273566 0.277447 
-1.5187e-17 -1.03209e-17 1 

-0.0562751 0.0177363 0.0430491 
-0.0711344 -0.0614811 -0.0358732 
8.19693e-18 4.84364e-18 1 

-0.0152798 0.017207 -0.0736913 
-0.0989211 -0.0356973 -0.00914526 
1.99083e-18 -1.55672e-17 1 

-0.178604 -0.00610976 0.0829307 
-0.0147249 -0.0152891 -0.00242742 
-4.68622e-19 -7.83477e-18 1 

-0.0406198 -0.0212048 0.0116259 
-0.00165564 -0.0889177 -0.181861 
4.89828e-18 9.25775e-18 1 

-0.0358966 0.0202394 -0.019154 
-0.0254323 -0.115637 0.150849 
-6.11925e-18 -6.69729e-18 1 

-0.0398828 0.00604283 -0.0524875 
0.00546701 -0.0726496 -0.0922927 
-2.53982e-18 -1.0816e-17 1 

-0.131189 0.00382559 -0.0353979 
-0.00279328 -0.0486543 0.174471 
-1.15721e-17 9.53843e-18 1 

-0.0313253 0.0117525 0.0936884 
-0.0259585 -0.119667 0.0132132 
6.11578e-18 6.46196e-19 1 

-0.123494 0.00902601 -0.298427 
0.0477761 0.0234508 -0.153016 
-2.89058e-18 -3.04272e-18 1 

-0.0666219 0.0240372 0.0878992 
-0.0391724 -0.0441499 -0.206454 
-2.90632e-18 7.51106e-18 1 

-0.0448735 -0.0185942 -0.0134096 
-0.0199921 -0.0434613 -0.22723 
-1.19904e-17 3.11752e-18 1 

-0.103482 -0.0260746 -0.144168 
0.0217055 -0.0389935 -0.0102667 
-1.25207e-17 -3.91058e-18 1 

-0.0792297 -0.0248629 -0.0780719 
0.0157464 -0.00979733 0.227286 
1.73497e-18 3.32948e-19 1 

-0.0833286 0.019749 0.0667799 
0.000837062 -0.0615437 -0.0794589 
1.30857e-18 1.85339e-18 1 

-0.0590317 -0.00538653 0.470515 
0.00245424 -0.0807754 -0.881745 
-4.91791e-18 -3.12249e-18 1 

-0.0924691 -0.00786095 -0.544546 
-0.0175183 -0.0181916 -0.176372 
-4.69796e-18 6.57485e-19 1 

-0.0951268 -0.0373844 -0.0150636 
0.0191511 -0.0290723 -0.0783837 
-1.05016e-17 9.83235e-18 1 

-0.0530969 -0.0476668 0.0129009 
-0.00612759 -0.131332 0.00381889 
-3.67637e-19 8.34712e-18 1 

-0.0315022 0.000873166 0.0657861 
0.0150241 -0.134507 -0.123759 
-2.88482e-18 1.07894e-17 1 

-0.0556183 0.00600894 -0.0892925 
-0.0665327 -0.074519 0.117013 
-6.48104e-18 8.26155e-18 1 

-0.0499366 0.189833 0.00366298 
0.0400928 0.00936997 0.0941449 
-1.72778e-18 4.67516e-18 1 

-0.0654305 -0.0333536 -0.142224 
0.0449661 0.00363654 0.126155 
2.26928e-18 -5.13289e-18 1 

-0.0657892 -0.0429634 -0.181828 
-4.11722e-05 -0.0443938 -0.0448139 
2.29286e-19 -1.85148e-17 1 

-0.0823485 -0.0132577 0.185903 
0.0168139 -0.0641842 0.0501067 
-3.11875e-18 -3.89844e-18 1 

-0.0399946 -0.0214055 0.0234309 
0.00800666 0.0169256 -0.1285 
-2.91641e-18 8.90932e-18 1 

-0.0778861 -0.00922557 -2.98731e-05 
0.0345399 -0.0343135 0.033013 
-3.32736e-18 1.05871e-17 1 

-0.130936 0.0287049 -0.0463653 
0.0736817 -0.0852469 -0.0833766 
6.13481e-19 -1.17119e-18 1 

-0.110757 0.00871749 0.0878337 
0.0401525 0.0262561 0.40702 
7.37466e-19 8.54407e-18 1 

-0.0750417 -0.00864982 -0.38636 
-0.0334441 -0.0877877 -1.20415 
-1.10814e-17 -3.65178e-18 1 

-0.113069 -0.0126291 0.0917705 
-0.0237563 -0.0952111 0.0919148 
2.02706e-18 -8.37852e-18 1 

-0.131461 0.043053 -0.322721 
-0.0335964 -0.0199751 0.345108 
-2.89005e-18 1.8551e-18 1 

-0.0268905 0.00170652 0.0666834 
-0.000948451 -0.0914874 0.101786 
5.98133e-18 7.19911e-18 1 

-0.0638483 -0.004736 0.107587 
0.00419698 -0.0533513 0.157986 
8.77657e-18 -9.10101e-18 1 

-0.0509218 -0.0309295 0.00246219 
-0.0184955 -0.0587835 -0.136609 
-9.89284e-18 3.74557e-18 1 

-0.0747603 -0.00588904 -0.382146 
-0.0178852 -0.0502202 -0.063188 
-4.49766e-18 -5.36069e-18 1 

-0.0277746 0.0126964 -0.00651023 
-0.0297438 -0.0994418 -0.0662219 
7.42865e-18 -7.84026e-18 1 

-0.147745 -0.0330949 -0.260614 
0.0603956 -0.0190967 -0.185189 
-3.2051e-19 -4.33922e-18 1 

-0.0602987 0.0455444 -0.384598 
-0.0416658 -0.0520189 0.317272 
8.51484e-19 3.72524e-19 1 

-0.162662 -0.0161233 -0.0621201 
0.0678011 -0.0211186 0.38277 
-1.08008e-17 4.25823e-18 1 

-0.0889762 0.0322078 0.0623705 
0.00252617 -0.0442959 0.0273711 
-5.65459e-18 1.48e-17 1 

-0.169688 0.0500184 -0.0128945 
-0.038134 -0.0577577 0.17192 
-1.91652e-17 4.46415e-18 1 

-0.033729 -0.0315756 0.0183973 
0.02836 -0.0245597 0.0243455 
4.17049e-18 -9.59214e-18 1 

-0.0415618 0.0114938 -0.00917632 
-0.00862765 -0.0264276 0.0435916 
-1.08951e-18 4.79082e-18 1 

-0.068472 -0.00753971 -0.0576384 
-0.0089716 -0.0291376 -0.0625196 
1.17017e-19 1.33839e-18 1 

-0.0886859 -0.00478312 -0.334077 
-0.0643676 -0.0126125 -0.301309 
2.97574e-19 -7.78901e-18 1 

-0.184589 -0.0865766 -0.463368 
0.0759404 0.022548 -0.000619558 
1.55755e-18 3.16701e-18 1 

-0.19813 0.728237 0.29494 
0.00622351 -0.00495336 -0.222119 
4.55891e-18 3.62306e-17 1 

-0.0588552 0.00484286 0.140629 
0.0508581 -0.072861 -0.0442222 
1.66455e-18 -2.95669e-18 1 

-0.080294 0.00967429 0.00435408 
0.0236009 -0.0756145 -0.0475334 
1.01854e-17 -4.79016e-18 1 

-0.0703256 0.00902199 0.240429 
0.0134849 -0.0761719 0.603653 
3.49915e-18 -2.73512e-18 1 

-0.0588663 -0.0285961 0.121831 
0.00639386 -0.0547293 -0.0152103 
-1.2667e-17 2.17608e-18 1 

-0.055057 0.0100151 -0.0125381 
0.0182369 -0.0589954 0.231059 
9.6368e-18 5.68263e-19 1 

-0.193412 -0.0568026 -0.749652 
-0.000339585 -0.0167208 -0.454121 
2.22642e-18 1.46226e-18 1 

-0.0646907 -0.0245261 0.141111 
0.00924395 -0.0554903 -0.0532923 
1.74381e-18 -2.64384e-18 1 

-0.0573676 0.0198003 0.360058 
0.00250928 -0.0127025 -0.138745 
-1.13626e-18 -2.41757e-20 1 

-0.0756687 0.0119567 0.0339425 
-0.00997472 0.109642 -0.378939 
6.96277e-18 -2.34868e-17 1 

-0.0709457 0.0202322 0.0397808 
-0.0247772 -0.0533791 -0.0883012 
2.86351e-18 -6.07985e-18 1 

-0.124638 0.0567422 0.0547697 
-0.0396121 0.0158967 0.00115176 
1.90228e-18 3.13876e-18 1 

-0.137232 -0.0234309 0.0701893 
-0.00582879 -0.00777483 -0.147975 
-8.64918e-18 -1.08709e-17 1 

-0.0298509 0.0150066 -0.0417764 
-0.0348772 -0.0641093 0.00918109 
4.0509e-18 -8.36315e-18 1 

-0.0552446 -0.0098532 -1.10082 
-0.00521453 -0.0425978 0.375133 
5.47005e-18 4.10049e-19 1 

-0.0786855 -0.00991135 -0.107558 
0.00879369 -0.0358753 0.20745 
-3.70434e-18 -7.92858e-18 1 

-0.0662549 0.0166093 -1.47525 
-0.00611433 -0.0630384 0.938656 
-4.02083e-18 -9.63026e-18 1 

-0.0638693 0.00680142 0.0471323 
-0.0366854 -0.0690082 0.0251921 
-2.40392e-18 -6.97776e-18 1 

-0.0592377 -0.0256424 -0.0543079 
0.024328 -0.0898567 0.132642 
1.84441e-18 -9.08485e-18 1 

-0.0826849 -0.00456094 0.214395 
0.0384105 -0.0564718 0.0484054 
7.29354e-19 -4.21983e-18 1 

-0.216523 0.0657721 0.0744556 
-0.0613958 -0.033532 0.0784449 
1.03052e-18 -1.02594e-17 1 

-0.0259762 0.0159344 0.191864 
-0.0359722 -0.0531762 0.212927 
-1.4081e-17 -6.4989e-18 1 

-0.0809786 0.00769874 0.0406082 
0.0103661 -0.0919396 0.0166052 
7.85278e-19 -8.45458e-19 1 

-0.0887064 0.0252892 -0.291046 
0.0137688 -0.074194 -0.130105 
9.76847e-19 1.98422e-18 1 

-0.0669957 0.0255514 0.344086 
0.0263211 -0.0510063 0.210615 
4.47496e-18 -7.85196e-18 1 

-0.0558601 0.022342 1.22757 
-0.0113952 -0.066699 -1.44064 
-2.82557e-18 -1.53945e-18 1 

-0.0461962 0.0221344 -0.0315865 
0.00277655 -0.125063 -0.0384519 
0 -2.86365e-18 1 

-0.0921528 -0.0162882 0.399733 
0.0110158 -0.0205358 0.399221 
-7.97365e-19 1.51806e-18 1 

-0.0796877 -0.00517446 -0.000263649 
-0.0041244 -0.0449087 0.149485 
-6.18009e-18 -6.91658e-18 1 

-0.0430386 -0.01005 0.0581672 
0.00585754 -0.0266624 -0.130027 
2.28075e-18 -1.14351e-18 1 

-0.0171361 0.00669816 0.0591269 
0.0383452 -0.0865321 -0.135226 
-7.56736e-18 1.73278e-18 1 

-0.0527007 0.0163281 -0.0472585 
0.0469525 -0.0616749 -0.0618489 
-1.39387e-18 2.53431e-19 1 

-0.0796826 0.0283147 -0.00493511 
0.000800356 -0.0589017 0.000496924 
-4.43526e-20 8.87052e-19 1 

-0.0809491 0.0354221 -0.0166718 
-0.0116573 -0.00256235 0.0379543 
-7.3519e-18 6.43989e-18 1 

-0.131003 0.0404941 -0.165233 
0.0257266 -0.124314 -0.139415 
-3.80618e-18 5.22737e-19 1 

-0.102146 0.0391051 0.0313234 
-0.0642569 -0.0493235 -0.0264081 
5.74807e-18 3.27033e-18 1 

-0.0464673 -0.00637988 0.0406162 
-0.04472 -0.0186603 -0.114946 
-1.27987e-17 1.26233e-17 1 

-0.0722709 0.0253785 0.00563863 
-0.0359189 -0.0375745 0.113822 
-3.43504e-18 -1.68072e-18 1 

-0.0462682 -0.00135439 0.160752 
-0.00469608 -0.0739237 -0.0923578 
2.62887e-18 -3.91194e-18 1 

-0.0604744 0.0193785 -0.291027 
-0.0195688 -0.124874 0.0456774 
-8.40617e-18 -1.76662e-19 1 

-0.0807845 -0.00637536 -0.000193761 
0.0332817 -0.0486627 -0.0303864 
-4.62312e-18 1.99098e-18 1 

-0.0833651 0.0351021 0.0459481 
-0.00605831 -0.0327574 -0.114957 
5.87637e-18 -4.42572e-19 1 

-0.0535322 -0.0145256 0.00442112 
-0.0404955 -0.033691 -0.166301 
-2.23934e-19 -2.79918e-19 1 

-0.055046 0.0253203 0.0519961 
-0.00547759 -0.04513 -0.296794 
-2.35429e-18 -9.12288e-18 1 

-0.0798023 -0.0243333 -0.20134 
0.0153229 -0.0145629 -0.0104443 
2.08314e-18 9.2356e-19 1 

-0.158387 0.0335678 0.227703 
-0.0108649 0.0771344 0.0290779 
4.59778e-18 5.01144e-18 1 

-0.0584639 0.0132769 -0.139983 
-0.00647385 -0.0508489 -0.468818 
-7.24516e-19 -5.44906e-18 1 

-0.137506 0.0302526 0.0736535 
0.0601629 -0.0657683 -0.0018162 
-7.70673e-18 4.30828e-18 1 

-0.0750121 0.00618598 0.0178035 
-0.0198941 -0.0303345 0.291601 
-4.98542e-18 -5.08484e-18 1 

-0.0363348 0.0105258 -0.314004 
-0.0195354 -0.0361486 0.204159 
-4.93402e-19 -1.45554e-18 1 

-0.139208 0.00323756 0.0279522 
0.0478714 0.00808921 0.0420523 
-8.88514e-18 4.1464e-18 1 

-0.0683439 -0.00749509 0.0295061 
0.0221848 -0.0620462 0.0171028 
2.29041e-18 -1.12731e-18 1 

-0.0740904 -0.023709 -0.0401352 
0.0222741 -0.0524701 0.121178 
1.8307e-17 -1.94626e-18 1 

-0.036914 -0.038099 0.00335376 
-0.054497 -0.0487117 -0.0982236 
4.63137e-18 3.68681e-18 1 

-0.0800809 -0.0137686 0.0509429 
0.0197377 -0.0477636 -0.12396 
-5.87218e-19 -2.30129e-18 1 

-0.0459725 -0.038931 0.0382187 
0.0692657 -0.0315342 0.0252606 
1.5575e-17 -5.63978e-18 1 

-0.0559226 -0.0133147 0.0397861 
0.00521443 -0.0415762 -0.128743 
-2.02357e-17 5.31128e-18 1 

-0.0387226 -0.0250849 -0.198997 
0.0334326 -0.02874 0.177417 
3.65918e-18 1.21629e-17 1 

-0.0388564 0.0291046 -0.133606 
-0.0209031 -0.0344259 -0.0227225 
3.14554e-18 6.3314e-18 1 

-0.110268 -0.0317949 0.167027 
-0.0461771 0.0360137 0.183933 
-2.2396e-18 2.2396e-18 1 

-0.162158 0.0203819 0.199719 
-0.0103249 -0.067669 0.0463468 
1.67184e-18 1.66084e-18 1 

-0.0406235 0.00131914 0.326345 
-0.0182019 -0.12919 -0.158791 
-4.84068e-18 8.28585e-18 1 

-0.0644933 0.00212759 0.119796 
-0.0125352 -0.0649939 -0.294178 
-1.12858e-18 -7.77151e-18 1 

-0.0386325 -0.0149668 0.0194402 
-0.00599475 -0.0411638 0.00488807 
-4.88344e-19 6.97635e-19 1 

-0.0598822 -0.0190484 0.199225 
0.00748481 -0.0404307 1.91898 
-8.12659e-18 1.06654e-18 1 

-0.0974219 0.0250401 0.0444518 
0.0116033 -0.0478307 0.13812 
-6.73639e-18 -3.78252e-18 1 

-0.0554836 -0.0280975 -0.751044 
0.0138316 -0.0669565 -0.0212073 
-1.65205e-19 -2.97368e-18 1 

-0.0413487 -0.00865167 -0.0304932 
0.0115561 -0.0521934 0.0428922 
5.75708e-18 4.14178e-19 1 

-0.0505678 -0.0288839 0.0874847 
-0.00374639 -0.0677323 0.00338591 
-5.7859e-18 6.45867e-18 1 

-0.106565 -0.0314725 -0.294732 
-0.00337324 0.000691287 0.213615 
-7.70173e-18 -2.81054e-18 1 

-0.0988056 -0.00154107 0.250993 
0.0419655 -0.0288981 -0.536472 
-9.7281e-18 -1.70295e-19 1 

-0.0568045 -0.0202042 0.127179 
-0.0100457 -0.0447697 0.0184414 
1.2002e-18 -5.93288e-18 1 

-0.0973314 -0.0349986 0.0519161 
0.0355142 0.00411624 -0.0408014 
-8.86373e-19 -7.97736e-19 1 

-0.134301 0.0467567 -0.785352 
0.0315965 -0.120101 0.761341 
-1.52981e-17 -1.33442e-17 1 

-0.0939008 -0.00582348 0.918346 
-0.00066865 0.00229813 0.83437 
-2.06705e-18 3.51026e-18 1 

-0.0727399 -0.0380039 0.0656496 
-0.0226961 -0.0878888 -0.0751767 
-4.01812e-18 -4.6644e-18 1 

-0.0626996 -0.0204596 0.116104 
0.000855691 -0.0480695 -0.177429 
1.36009e-19 2.20788e-17 1 

-0.0803249 -0.147056 8.4352 
0.00738603 0.0190568 -3.24148 
-2.40896e-18 2.00184e-18 1 

-0.0918197 -0.0432207 0.0486225 
0.0452374 -0.0581116 0.242358 
-3.11098e-18 5.01337e-18 1 

-0.327994 0.106895 -0.0991354 
-0.0336509 0.0558619 0.154001 
3.98023e-18 3.18418e-20 1 

-0.0616176 0.0119091 -0.0217073 
0.0192434 -0.0494971 0.0425708 
4.00088e-18 3.05152e-19 1 

-0.062205 -0.00938277 -0.07785 
-0.0117173 -0.0297324 0.0823842 
-1.14782e-17 -1.92731e-18 1 

-0.0195491 -0.0718061 -0.128642 
0.011461 -0.113134 0.102797 
-7.61133e-18 -4.62494e-18 1 

-0.0424146 0.0105999 -0.0653117 
-0.0239853 -0.110711 -0.125933 
-4.83598e-18 7.09374e-18 1 

-0.0446035 0.00733182 -0.00941303 
-0.00778784 -0.0682075 0.0552913 
-8.08667e-18 7.68745e-18 1 

-0.0270868 0.0128673 -0.104232 
0.00285254 -0.043207 0.0480435 
-4.59871e-18 -5.68787e-18 1 

-0.0399964 0.00203337 0.0510433 
0.0307784 -0.077802 0.0600105 
6.01024e-18 6.60004e-18 1 

-0.0951809 -0.0247753 -0.365973 
-0.00530063 -0.0382288 0.250221 
4.27905e-19 -4.27905e-18 1 

-0.087712 0.0288378 -0.0802935 
-0.0491801 -0.025288 0.0230359 
-5.4772e-18 -1.70044e-19 1 

-0.097329 0.0030546 0.0392056 
-0.0326398 -0.0760595 0.134411 
-5.28595e-18 1.02912e-17 1 

-0.140578 0.0489644 0.0494727 
-0.0293264 -0.00562611 -0.217797 
-5.40072e-18 -5.20963e-18 1 

-0.0721705 -0.0139224 0.053567 
-0.00842393 -0.0610061 -0.137646 
-3.49947e-18 3.2995e-18 1 

-0.0528119 0.00156551 0.179928 
0.0197609 -0.0193128 0.153708 
7.93419e-18 -5.15722e-18 1 

-0.0857504 0.0579965 -0.018126 
-0.0347441 -0.0867546 -0.0466184 
-9.04773e-18 1.36398e-19 1 

-0.0514925 -0.00278475 -0.0792262 
-0.05704 -0.0665854 -0.0731166 
8.17031e-18 7.46265e-18 1 

-0.0775913 -0.0152748 0.0864401 
-0.00298908 -0.124538 -0.0181028 
-8.10085e-18 -8.53677e-18 1 

-0.0467443 -0.00761733 -0.0242891 
-0.0347131 -0.0632087 0.0177856 
-1.88592e-18 -8.59628e-18 1 

-0.055654 0.003082 -0.919849 
0.0197976 -0.0760911 0.270912 
6.15151e-18 4.298e-19 1 

-0.118445 -0.0121778 0.0493541 
0.0801161 0.0126752 -0.277079 
-5.26992e-18 3.30796e-18 1 

-0.0759941 0.0106756 0.0667841 
-0.0741137 -0.0591678 0.146237 
7.12285e-18 6.62821e-18 1 

-0.0696658 -0.00471795 0.32633 
-0.0261641 -0.0525088 0.340146 
-4.97543e-18 -2.52076e-18 1 

-0.125033 -0.0669464 -0.107662 
0.069239 -0.0102352 -0.0392565 
-4.10596e-18 1.16972e-17 1 

-0.049716 0.0178784 -0.25525 
0.00205186 -0.0857095 0.0034285 
1.63203e-18 -6.22213e-18 1 

-0.122421 0.0570776 0.124973 
-0.0211521 -0.0322681 -0.0258276 
-7.65373e-18 5.0857e-18 1 

-0.0763805 -0.0294224 -0.0689763 
0.0604387 -0.0341945 0.0520374 
-2.76356e-18 -6.85364e-18 1 

-0.0669532 -0.0710168 -0.122121 
0.0193113 -0.0724849 -0.0504407 
2.11188e-18 1.37976e-18 1 

-0.108578 -0.0208976 -0.0152231 
-0.00214077 -0.0670186 -0.178229 
-4.82915e-18 -7.84589e-18 1 

-0.0869132 -0.0336526 -0.197167 
0.00182936 -0.0291441 -0.191442 
8.05866e-18 2.04266e-18 1 

-0.142281 0.0642245 -0.154967 
-0.054664 -0.0763405 -0.309411 
-5.16397e-18 -2.2299e-17 1 

-0.0800351 0.0314375 0.0214207 
-0.0389201 -0.0100736 -0.110684 
-5.91518e-18 3.35726e-18 1 

-0.0568085 0.0218584 -0.112979 
0.00702738 -0.0780761 -0.133431 
9.40415e-19 -3.98293e-18 1 

-0.0367251 0.00483824 -0.191113 
-0.0234497 0.0387594 -0.16555 
3.95972e-18 -6.47955e-18 1 

-0.0610522 -0.0270565 -0.0304003 
-0.0369161 -0.0774261 0.259641 
-3.90479e-18 2.65455e-18 1 

-0.0909832 0.0215116 0.0231778 
0.00896881 -0.0143506 0.137616 
3.54974e-18 3.00971e-18 1 

-0.100323 -0.0122473 0.165851 
-0.0298017 -0.0238354 0.288769 
1.87937e-18 -2.41881e-18 1 

-0.0487509 -0.00943287 0.128966 
0.0232449 -0.0442057 -0.0505092 
-3.16811e-18 3.6806e-18 1 

-0.166295 0.00521828 -0.0407376 
-0.00374452 -0.0271111 0.173187 
4.2042e-18 6.98512e-18 1 

-0.0925324 0.00606609 0.400093 
0.00258898 -0.00157086 -0.0667341 
1.97943e-18 -2.38946e-17 1 

-0.0630229 0.00495921 0.110694 
0.02852 -0.0746602 -0.0520432 
1.08424e-17 1.22168e-18 1 

-0.0620733 0.00207405 -0.0642744 
-0.0452609 -0.0522527 -0.169515 
-7.66192e-18 2.58646e-18 1 

-0.0430006 -0.0203069 0.0230928 
0.0187159 -0.0514138 0.675654 
-8.86648e-18 1.04786e-17 1 

-0.0589046 0.0230218 -0.345503 
0.00785819 -0.00834605 0.0203264 
-6.22983e-18 6.1026e-18 1 

-0.20037 0.00366496 0.722082 
0.004283 -0.00795793 -0.482722 
6.14069e-18 -1.37612e-18 1 

-0.080425 0.00541054 0.11614 
0.0111889 0.0191428 0.077506 
1.632e-18 1.34817e-18 1 

-0.0428031 0.00981548 -0.219142 
-0.0362366 -0.0518393 -0.0807533 
-2.04298e-18 -3.68274e-18 1 

-0.0996184 -0.0136389 -0.0390624 
0.027448 -0.0510795 -0.531518 
-1.45995e-18 8.20644e-18 1 

-0.034385 0.0610792 0.202525 
0.0460291 -0.0726904 -0.266925 
8.4016e-19 1.59857e-17 1 
