# vtk DataFile Version 3.0
Output file generated by Yade's KinematicLocalisationAnalyser
ASCII
DATASET UNSTRUCTURED_GRID

POINTS 13483 float
588.709 38.3294 -0.451864
722.206 71.8871 -0.446017
121.947 6.16426 -0.459541
752.654 19.6166 -0.253037
499.21 8.28053 0.30138
319.557 36.0434 -0.473466
159.015 6.90638 -0.437219
563.378 10.9668 0.117717
496.873 27.7811 0.144134
684.828 19.9502 0.400365
213.6 9.02063 -0.0955491
260.621 6.25898 0.304564
630.479 41.9714 0.138758
614.17 25.3578 0.0928733
139.378 17.2679 -0.480655
224.32 35.016 0.395431
220.948 13.1333 -0.272278
293.288 9.61791 0.399285
346.124 33.7487 0.427311
520.996 8.71652 0.500586
414.369 38.44 -0.104536
571.449 57.4919 0.261053
750.543 52.3302 -0.487292
665.502 64.1168 0.426128
460.154 18.8209 0.282269
244.476 45.1335 -0.130277
491.286 31.8191 -0.48023
577.253 21.0457 0.274363
45.4367 15.5456 -0.455283
682.155 49.5449 0.345444
482.51 5.95771 0.459908
16.3367 23.5898 0.298144
731.063 67.8124 -0.2422
495.365 2.57822 0.497044
80.2664 45.4992 0.100344
518.034 34.0702 0.342562
528.411 16.7551 -0.452291
348.305 22.6042 -0.18104
531.042 27.8756 0.325587
355.504 35.215 -0.395568
244.891 14.6024 -0.316901
436.675 38.4507 -0.0643711
650.815 9.60567 0.139155
195.692 6.15772 0.383653
56.0098 7.09005 0.0743389
69.3211 8.94279 -0.263626
662.957 10.3184 -0.607391
23.58 11.7361 -0.289925
593.745 59.917 -0.353243
647.932 30.2528 -0.334249
174.468 32.8585 0.280256
717.793 46.2856 0.122042
35.114 28.2333 -0.115946
530.118 3.05842 0.36371
144.32 7.19319 0.4774
578.071 46.8149 0.374657
504.31 29.6122 0.124771
177.915 0.949929 -0.266597
32.8903 2.34313 -0.341484
354.158 18.6648 0.276871
601.849 57.4189 -0.153028
463.156 36.4326 -0.172095
403.379 1.03863 0.201093
669.784 8.39425 -0.562721
27.01 43.4379 0.235277
261.294 30.8227 0.294099
684.709 15.4517 0.255232
644.593 62.7122 -0.345049
421.568 9.19089 -0.594096
564.098 4.10398 -0.670009
705.784 38.7421 -0.407848
132.946 7.68894 -0.285181
499.631 30.064 -0.146557
479.691 17.1908 -0.119055
300.01 16.7846 -0.349105
20.6554 13.307 -0.243738
734.384 51.5054 0.334048
337.845 41.2643 -0.279874
647.762 27.3292 0.327518
663.485 19.7206 -0.238649
751.305 12.8103 0.20401
466.338 37.4393 0.165354
94.8682 38.2637 -0.266354
657.131 49.3066 -0.215109
628.66 53.5388 -0.0925402
756.348 58.3346 -0.110989
746.46 0.786584 0.533105
297.142 28.3853 -0.438443
611.628 7.91527 0.162086
24.1993 5.33682 0.487262
134.813 39.5156 -0.139951
512.443 15.8192 0.191441
733.504 38.3075 0.48043
198.586 29.9504 -0.238498
44.815 35.4648 -0.259986
494.11 1.3802 0.133347
239.912 8.89391 -0.40938
705.874 62.3443 0.257075
725.338 34.004 -0.230125
367.186 22.3141 0.2509
167.597 27.1475 -0.452608
542.714 46.8368 0.390752
384.589 16.7172 -0.531037
417.681 31.9102 -0.100197
383.629 5.18132 0.450399
545.275 11.0575 0.116302
757.963 26.2007 -0.154077
82.2935 40.3161 0.385912
341.478 5.02149 -0.200963
557.335 9.2774 -0.44667
367.658 46.5886 -0.450276
25.8752 24.9126 0.531861
30.6625 5.77291 -0.344878
561.357 36.3343 0.420806
505.622 26.171 0.169861
26.2895 37.2851 -0.408857
94.8358 30.4931 -0.224319
331.49 16.2663 -0.299794
590.585 22.9553 0.117927
479.398 41.4945 0.29512
695.844 7.6133 0.566127
687.947 8.3705 0.270842
394.815 39.5914 -0.0961406
618.039 39.6812 -0.108579
242.973 17.4361 -0.519022
336.871 3.90757 0.455337
105.337 31.5115 -0.315181
119.042 24.1622 0.301029
539.392 44.4862 0.0703841
313.215 19.6642 0.46853
679.548 56.2868 0.102709
649.227 59.828 0.111688
485.291 22.2846 -0.407286
732.684 13.9076 -0.319396
433.686 25.4001 0.218644
284.215 24.257 -0.307268
648.373 41.464 0.279466
285.818 29.4492 0.431123
573.189 12.4643 0.200354
340.298 38.7874 0.19114
507.299 12.1275 0.44347
374.56 33.544 0.0869051
436.006 18.4302 -0.106083
326.686 43.0156 0.430234
194.574 31.8009 0.11285
726.705 75.8737 -0.151502
753.857 28.9876 0.288367
6.13122 12.5994 -0.435536
440.324 24.0511 -0.404813
38.5889 22.396 0.0895985
384.618 33.8717 -0.496611
402.748 26.1161 -0.265418
76.3888 11.74 -0.498171
53.0063 33.9392 -0.442813
231.449 13.6185 0.433614
606.905 52.2578 0.380357
574.089 23.2133 -0.455508
76.5103 20.7618 -0.52964
666.915 63.2253 0.411939
720.024 2.33018 0.571255
635.853 64.3959 0.443654
667.638 2.19842 0.533599
548.472 31.6942 -0.421121
572.511 59.0202 0.442986
515.858 19.8083 -0.394788
760.722 8.9647 -0.319559
229.112 25.5314 -0.139671
130.479 35.6161 -0.198991
253.458 6.68282 0.402445
96.6332 4.40115 0.275649
65.5776 10.2082 -0.181532
283.956 36.4365 -0.300874
17.3768 25.6096 -0.366383
553.264 23.994 0.457208
589.816 55.3955 -0.19049
469.615 24.386 -0.367895
744.251 63.3719 -0.363368
414.872 8.85838 -0.112663
443.419 39.9941 -0.3669
537.947 3.47849 -0.264834
23.045 23.7472 -0.389982
575.655 5.15947 0.546181
547.114 4.37159 -0.310178
211.627 11.3588 -0.515613
433.118 16.6267 -0.21555
319.971 6.15601 0.371047
396.919 20.266 -0.329225
701.873 66.382 0.0999467
197.903 26.9316 -0.447727
738.085 6.63949 -0.444182
699.577 58.9044 0.313589
392.29 11.093 0.191888
682.73 4.80938 0.693586
591.66 34.7507 -0.414577
703 23.538 0.45053
438.251 47.6691 0.267402
500.764 13.8832 0.393391
471.795 47.8761 -0.234477
454.008 8.80809 -0.138292
641.154 57.7564 0.267751
640.393 52.4162 -0.302298
195.881 40.869 0.332089
749.145 12.8239 0.126612
573.125 60.6664 -0.2415
11.0853 17.8258 -0.164692
415.294 27.1081 0.336556
192.661 25.0053 -0.391012
96.6823 38.7836 0.201909
731.917 34.419 -0.434929
634.148 67.6403 0.220811
328.406 26.4494 0.354397
535.002 10.298 0.376172
85.3057 44.1469 0.168149
254.782 26.3691 0.463137
556.227 28.7155 0.380629
494.036 23.0245 0.392787
270.227 0.900189 -0.350324
552.846 49.2651 -0.350976
533.164 47.4763 -0.447054
489.927 39.1753 0.390774
505.177 2.36758 -0.628993
674.208 29.8672 0.372452
185.029 12.6552 -0.163246
508.268 39.551 -0.419163
557.158 51.0908 -0.117766
74.6826 0.918495 -0.27839
258.833 4.64599 0.188346
752.982 30.7979 -0.184725
750.536 16.0195 -0.43143
759.298 34.3058 0.454758
312.625 8.54036 -0.241771
705.115 27.9232 0.418071
417.385 44.029 0.315048
458.561 0.86095 0.507942
634.085 50.0397 0.451212
27.1658 30.8136 0.300753
341.374 44.0616 -0.480771
259.773 2.8198 0.309077
733.333 63.2598 -0.180051
680.179 69.3078 -0.248375
295.987 10.9942 0.207567
644.163 42.7634 -0.0958631
559.471 2.62689 0.271072
545.016 6.59172 0.453035
99.7005 18.4519 -0.599869
312.382 1.02575 -0.232653
352.731 2.29571 -0.342766
13.7836 7.71401 0.490694
4.6458 32.5684 0.249231
167.021 19.2242 -0.356152
70.5519 44.0018 -0.206442
68.2291 29.3132 -0.318096
433.255 14.8057 -0.436238
378.029 37.0593 -0.477565
715.769 47.2838 -0.125203
19.6799 4.04433 0.267969
72.4666 6.96069 0.147079
611.043 52.1356 -0.138203
303.636 0.944895 0.312751
374.681 16.7135 -0.109485
242.772 4.76278 -0.402847
634.475 28.618 0.160422
460.826 8.97432 0.498204
707.66 23.5494 0.357171
616.34 43.5372 -0.298056
648.645 25.5053 -0.1024
429.352 28.0763 0.479053
105.634 45.4766 -0.30391
539.454 50.4199 0.0684763
700.633 17.9497 0.185572
245.133 31.2848 0.241147
32.5917 17.0256 0.180805
346.4 14.1821 0.494382
111.92 41.2941 -0.466833
277.039 42.4596 -0.190028
435.063 1.4024 -0.263149
733.197 47.2277 -0.448316
660.571 2.12097 0.722791
341.998 3.47091 0.563968
309.294 27.6957 -0.14905
470.783 44.5819 -0.205376
84.0275 7.95031 -0.34518
203.393 46.7667 0.377549
726.693 40.9525 0.412229
503.856 45.2531 0.0653423
204.922 42.7122 0.250359
165.543 43.3184 -0.395528
759.996 51.8444 0.385298
756.458 25.1674 0.471762
605.694 3.98548 -0.646759
196.105 26.7846 0.0934225
549.318 33.9066 -0.104546
551.36 33.4964 0.278267
419.431 5.92256 -0.132574
489.33 0.93116 -0.329472
714.924 48.828 0.556924
87.4226 31.2513 -0.214428
638.172 22.7457 0.462706
283.091 15.9426 -0.360076
9.57845 2.32076 -0.389851
129.536 37.5288 -0.188311
69.1766 24.1128 -0.463885
674.301 53.2349 0.322112
738.831 75.1792 0.163875
190.927 29.8625 0.176071
748.79 25.3967 0.344992
45.9611 37.1149 -0.250945
93.5675 28.9871 0.168046
621.362 23.5936 0.436885
424.342 18.0235 -0.54451
525.115 17.3776 0.131572
245.581 29.3386 -0.19069
614.5 10.0094 0.398069
759.609 25.0308 -0.347266
30.3432 31.8602 -0.264611
278.7 7.6637 0.199604
229.007 15.5965 -0.241097
1.08913 37.2208 0.146191
232.433 14.6039 -0.382981
218.407 11.286 -0.130307
220.773 26.5732 0.286558
136.467 28.7599 0.115799
550.48 16.1982 0.361647
172.646 14.203 0.352394
727.831 66.4844 0.214328
179.953 3.8293 0.504825
48.7547 38.0845 -0.349809
708.261 75.468 -0.426744
291.264 31.5914 0.37593
653.619 33.8103 0.474505
739.969 48.6076 -0.468096
310.742 9.14283 0.125413
697.985 45.8341 0.344331
338.936 2.5238 -0.42001
425.779 25.5657 0.372699
653.405 22.1619 0.449936
108.739 11.9886 0.421353
490.973 3.97334 -0.48652
711.572 22.7097 -0.173838
91.0891 7.64865 -0.22351
290.9 14.7871 0.204339
434.385 12.4709 -0.235457
761.387 7.3145 -0.524824
408.299 2.0088 -0.533753
181.15 40.3021 0.271059
702.822 10.4867 0.400228
132.345 37.733 -0.197197
271.803 31.8754 -0.380884
410.706 22.0683 0.215843
575.418 14.5652 -0.330676
396.534 9.34668 0.393026
465.052 30.3318 -0.449685
722.888 73.3 -0.355951
48.9439 11.3633 -0.109286
309.079 39.3266 -0.265966
389.926 27.7361 -0.386554
420.259 20.9568 0.276274
526.31 51.2145 -0.372406
710.823 50.8346 -0.184385
645.511 52.7586 -0.351388
233.152 34.8679 0.378798
13.491 32.2707 -0.152934
638.69 55.3437 -0.11493
516.532 50.2401 -0.38658
236.922 40.2828 0.0953564
659.35 43.7273 -0.101906
156.269 9.40002 0.219811
376.473 22.5562 0.262301
472.891 45.9482 -0.103359
424.351 19.7202 0.194215
719.891 68.9869 0.307344
436.584 3.39859 0.508838
51.3631 25.9554 -0.302467
479.174 34.9107 0.340009
443.605 45.5895 0.364441
728.673 56.843 -0.237855
694.052 48.0539 -0.226622
546.365 20.0434 -0.138261
723.298 57.0793 -0.44555
302.952 2.15737 -0.469591
390.363 30.8474 -0.453876
29.7074 39.0025 -0.295462
699.93 45.5355 -0.154372
600.136 28.1841 -0.491026
472.211 0.734622 -0.449217
130.276 4.56518 -0.293018
436.508 42.8207 0.0954795
11.9961 0.932709 0.321692
759.333 7.29715 -0.138015
382.766 40.992 0.391972
609.262 9.9717 0.503373
[...]
POINT_DATA 13483
TENSORS Strain_matrix float
-0.3207 0.202194 2.28365 
-0.0374133 0.165715 2.62526 
-7.25386e-18 -3.93925e-18 1 

-1.88944 0.775161 -22.8244 
0.232922 0.799864 1.00491 
-2.83687e-18 1.58705e-17 1 

-0.0969749 -0.0222608 -0.0864072 
0.0145068 -0.0472739 2.14261 
9.87881e-19 6.40965e-18 1 

-2.57276 -2.39572 -6.32101 
1.14403 1.79537 2.42284 
-2.17365e-17 2.16823e-18 1 

-0.412299 -0.452233 0.334592 
0.171432 0.254269 -0.438769 
8.00221e-18 4.95927e-18 1 

-0.123832 -0.0401862 -2.10803 
-0.00388116 -0.0127297 0.0673745 
7.53561e-18 6.68173e-19 1 

-0.0909806 -0.00421123 -0.434926 
-0.0192613 -0.0738665 0.64686 
5.76757e-18 3.0913e-18 1 

-0.108326 -0.238676 -0.44479 
0.110927 -0.0311253 -0.264285 
5.80774e-18 2.40913e-18 1 

-0.223805 0.0415579 0.974651 
-0.198071 0.0928633 0.315005 
0 2.11284e-18 1 

-0.333156 0.0464015 0.22488 
-0.110758 -0.086049 0.599008 
5.32448e-18 -5.99005e-18 1 

-0.0460697 -0.0650505 -0.00606701 
0.0300037 -0.0595711 0.0593437 
-9.62615e-18 4.8725e-18 1 

-0.0909108 0.000546345 -0.0779391 
-0.0801576 -0.0955767 -0.223722 
4.17365e-18 -7.96169e-18 1 

-0.0344471 0.160699 -0.289929 
-0.388785 -0.00232953 -0.0837287 
1.16983e-17 8.88668e-18 1 

-1.23506 0.39036 0.349131 
0.250532 0.494385 0.0401311 
6.95408e-18 5.43845e-18 1 

-0.112716 -0.00551664 1.49688 
0.0200121 -0.0241567 0.0841836 
-6.4255e-18 2.36671e-18 1 

-0.0634054 -0.0570519 0.419122 
-0.0378604 -0.0209365 0.805006 
1.22274e-17 2.16174e-18 1 

-0.0685101 -0.0716796 0.337911 
0.0488428 -0.090613 0.0042155 
-1.0693e-18 -8.11731e-18 1 

-0.132562 -0.0012451 -0.00315376 
0.0135065 -0.0774287 0.00948999 
-1.45926e-18 1.75597e-17 1 

-0.193009 -0.256294 0.758111 
-0.0613217 0.0965719 -0.840464 
-4.71116e-18 2.53103e-18 1 

-0.293128 0.122927 -1.20254 
0.021072 0.0118415 0.130191 
-5.09242e-18 -2.14972e-17 1 

-0.235575 0.361125 -0.995013 
-0.119623 0.213498 -0.536777 
-7.23701e-18 1.64762e-18 1 

0.527448 -0.972823 0.32016 
0.837892 0.332692 -0.441501 
7.25679e-18 -1.34769e-17 1 

-0.481743 0.0901517 3.6831 
-0.251942 0.302329 1.8823 
-5.39674e-20 2.24864e-20 1 

-0.645349 0.736175 21.6453 
-0.382623 0.781537 -0.895084 
-2.13536e-18 2.10611e-18 1 

-0.236803 -0.456162 -0.0148692 
0.338495 0.310438 0.41996 
1.00801e-18 5.40611e-18 1 

-0.153173 0.113849 -0.0505041 
-0.128857 0.0438879 0.0238259 
-9.81524e-18 1.1902e-17 1 

-0.187301 0.0729051 4.76662 
0.0460603 0.16182 2.21993 
6.55406e-18 -5.8711e-18 1 

-0.242002 -0.073065 -0.764687 
-0.46107 -0.0389698 0.951828 
6.24874e-18 7.17842e-18 1 

-0.113037 0.0566769 1.04586 
0.0480935 -0.0395231 -1.79424 
1.71833e-18 -7.93297e-18 1 

-0.69152 -0.2694 -1.27849 
0.105586 0.31079 -0.810422 
1.86977e-18 8.08329e-19 1 

-0.258078 0.0301904 0.143343 
-0.0548788 -0.187897 -1.03499 
-9.56658e-19 8.19993e-18 1 

-0.0792581 0.268869 0.11558 
-0.151312 -0.0180521 -0.391321 
5.18827e-18 3.97399e-18 1 

-0.00953451 0.835542 -1.81672 
-0.230513 -0.0104938 0.710164 
-3.91679e-18 -1.01625e-17 1 

-0.173351 0.0519277 -0.0931107 
-0.0254535 -0.0431341 0.00924589 
6.58558e-18 -1.80163e-17 1 

-0.0854669 0.105788 -0.198862 
-0.143019 -0.0135833 -0.350523 
-4.55238e-18 5.67398e-18 1 

-0.20191 -0.170972 -0.512806 
-0.0101334 0.0438756 -0.375123 
-8.84314e-18 -1.00846e-17 1 

-0.276643 0.172443 -0.823593 
0.00272199 0.125007 -0.651593 
1.16829e-17 -1.12116e-17 1 

0.188788 -0.209537 -0.112206 
0.249194 -0.273371 -0.666077 
-9.66953e-18 9.57379e-18 1 

-0.149166 -0.101437 0.50749 
0.19737 0.110145 1.09423 
1.24393e-17 -2.09913e-17 1 

-0.0993894 -0.0525841 -0.821149 
0.321877 0.0329222 1.09407 
2.03108e-18 -9.19176e-18 1 

-0.0923571 -0.053075 -0.257015 
-0.188555 -0.0673096 0.122696 
-2.17499e-18 4.04265e-18 1 

-0.0313223 -0.255958 0.0865704 
-0.154195 -0.0724642 -0.689988 
9.02505e-19 -1.46229e-18 1 

-0.377605 -0.529059 -0.825106 
0.412913 0.235749 -0.149958 
3.04373e-18 -3.65248e-19 1 

-0.116945 0.0308586 0.639857 
-0.0150644 -0.118472 -0.387572 
2.39192e-18 8.51524e-18 1 

-0.0944716 0.0888289 -0.012243 
-0.057429 -0.0615698 -0.0500685 
-2.42008e-18 7.75051e-18 1 

-0.0582091 0.0309066 0.0289864 
-0.0267109 -0.0709461 0.0322296 
2.33554e-18 -4.65683e-18 1 

-0.941162 -0.0569641 -2.29447 
-0.0274345 0.294016 0.861154 
7.70338e-18 -3.63771e-18 1 

-0.0875231 -0.0690766 -0.117173 
0.105771 -0.0771074 -0.106729 
-1.19124e-17 -2.51139e-18 1 

-0.533533 -1.2153 2.63753 
-0.232269 0.957611 -2.47634 
-1.37856e-17 -7.2227e-18 1 

-0.910945 -0.595855 -4.70062 
0.169489 0.382953 0.264778 
-1.44507e-18 -4.97745e-18 1 

-0.26414 -0.154577 -0.104548 
0.266385 0.1834 -0.246507 
-3.10389e-18 -7.97379e-18 1 

-0.567112 -0.162998 2.78462 
-0.0169533 0.332333 -1.26932 
3.80031e-19 -4.37036e-18 1 

-0.124241 0.055221 0.131867 
-0.0525345 0.0188233 -0.135988 
-1.41956e-17 1.14788e-17 1 

-0.225606 0.0722618 0.0329961 
-0.0592066 -0.0811376 -0.134025 
-1.63724e-17 -2.66292e-17 1 

-0.133333 -0.00651805 -0.263369 
-0.0403395 -0.151893 -0.040205 
1.44829e-18 9.76019e-19 1 

-1.26959 0.0224121 1.09264 
-0.0994465 0.555924 -0.950338 
1.42092e-18 -7.72013e-18 1 

-0.409134 0.680133 0.0724962 
-0.115275 0.15768 0.0443797 
1.25997e-17 -2.25744e-17 1 

-0.0933828 0.176782 0.373844 
-0.00595806 -0.0572542 0.0760304 
-1.16434e-18 5.21723e-17 1 

-0.0660665 0.0105573 -0.0532888 
-0.0407797 -0.132074 0.0575243 
-7.08184e-18 8.51672e-18 1 

-0.0997624 -0.0373903 -0.500604 
-0.0443675 -0.0378229 -0.114037 
6.02258e-18 5.59133e-18 1 

-0.426795 -1.87413 1.04244 
0.416441 1.16394 -1.48477 
2.15803e-18 -2.98542e-18 1 

-0.304911 -0.00662795 -0.385136 
0.0413142 0.191588 -1.19988 
7.01001e-18 -1.56694e-18 1 

-0.118908 -0.131704 -0.340303 
-0.0226119 -0.0546291 -0.0919048 
7.40008e-18 1.3688e-18 1 

-0.450124 -0.10708 0.853805 
0.100596 0.0875718 0.190178 
1.19238e-17 -7.88204e-18 1 

-0.218547 0.101883 0.295434 
-0.0376825 0.081775 0.498628 
1.94108e-18 -4.27038e-18 1 

-0.0873706 0.128386 0.359921 
-0.055862 0.0167294 0.274476 
1.92703e-18 0 1 

-0.275862 0.223328 -0.226735 
-0.134658 -0.12844 0.115941 
-5.69568e-18 -1.67213e-17 1 

-0.113418 0.370758 -2.67998 
-0.473912 0.189269 -0.185601 
-1.85702e-17 -6.17813e-18 1 

-0.168281 0.0132905 -1.16133 
-0.0290583 0.0433938 -8.51636 
3.2007e-19 -1.06552e-17 1 

-0.323197 0.0952915 7.40556 
-0.0566942 -0.0804152 -3.21129 
5.92387e-18 1.79827e-17 1 

-0.9403 0.231486 1.48674 
-0.525822 0.350835 0.571486 
9.81422e-18 6.65592e-18 1 

-0.0757653 0.0545723 0.103054 
-0.0209345 -0.0565459 -0.106201 
1.29611e-17 7.17874e-18 1 

-0.259448 0.332608 0.84918 
-0.166347 0.155359 0.67731 
-4.58498e-18 7.77613e-18 1 

-0.00937739 -0.0752889 -0.579186 
-0.0601611 -0.064238 0.608801 
-6.90198e-18 3.83879e-19 1 

-0.0764968 0.0652458 -0.257084 
-0.0314304 -0.0194509 0.347061 
5.7443e-18 4.28543e-18 1 

-0.0525512 -0.0544909 -0.155009 
-0.0487817 -0.0922346 0.0221245 
-2.52708e-18 -3.79061e-18 1 

-0.375588 -0.293973 -1.80284 
0.256053 0.365078 0.960422 
3.23268e-18 8.61736e-18 1 

-0.125021 0.0648247 -1.04908 
0.321381 0.0979969 1.31032 
1.15466e-18 4.04808e-18 1 

-0.30971 -0.566456 0.913018 
0.25003 0.252728 -0.130703 
5.18625e-19 6.48579e-18 1 

-0.751457 0.0566588 -0.0230276 
-0.264726 0.401687 0.703309 
1.21595e-17 7.70543e-19 1 

-1.55229 -1.29064 0.786233 
0.357539 0.570657 0.276569 
2.51814e-18 4.7712e-18 1 

-0.220828 -0.109268 0.401483 
0.0575172 0.17629 -0.245462 
-6.68862e-18 8.28679e-19 1 

-0.0162908 0.110143 -0.140702 
-0.14707 -0.0294222 0.170283 
1.0901e-17 -8.74997e-19 1 

-1.12147 -0.278025 0.299265 
0.178981 0.517766 1.81968 
1.59558e-18 -1.01106e-17 1 

-0.335443 -0.120958 -0.93302 
-0.428762 0.108081 1.06221 
-8.55782e-19 3.2862e-18 1 

-0.716565 -0.210942 0.475834 
0.126928 0.390298 -1.31561 
7.35328e-18 -4.32215e-18 1 

-0.458131 2.35676 -2.2663 
0.0468367 0.154575 -0.638437 
-7.39616e-18 2.36386e-17 1 

-0.171819 -0.0843398 0.111879 
0.106381 0.00548494 0.367039 
-4.60538e-18 8.65764e-19 1 

-1.32211 -0.134715 0.749972 
0.426693 0.597309 -0.151536 
4.74302e-18 4.34777e-19 1 

-0.123697 0.0218475 -1.6201 
-0.00669566 -0.050748 -1.69693 
-3.74352e-18 -1.58297e-18 1 

-0.0906777 -0.012726 -0.0159111 
-0.116062 0.00159228 -0.0330611 
4.68739e-18 1.99903e-18 1 

-0.257643 0.174825 0.029209 
-0.041735 0.0710487 -0.429642 
-4.38447e-18 1.42199e-18 1 

-1.49156 -0.940357 -4.74984 
0.134176 0.555714 -0.507121 
-1.34606e-18 2.44285e-18 1 

-0.144561 -0.0705111 -0.632568 
-0.197893 -0.071846 0.207164 
-7.09031e-18 1.22019e-18 1 

-0.111535 0.0127916 -1.6744 
0.110799 0.0608749 2.06451 
9.27193e-19 6.11165e-18 1 

-0.163978 0.103945 0.0794284 
-0.0252478 0.0425716 0.149008 
-1.65956e-17 -3.44727e-17 1 

-0.137163 0.0462395 -0.25919 
0.0193687 -0.0177492 0.310443 
-2.51816e-18 6.07433e-18 1 

-2.28934 -0.130537 3.18954 
0.220847 0.734634 -0.252485 
3.89222e-18 -1.53806e-18 1 

-0.430573 -0.254302 0.078019 
0.195026 0.261647 0.563807 
-3.51598e-19 -6.32876e-18 1 

-0.118533 -0.024859 -0.113542 
-0.00941448 -0.0233826 -0.0277053 
-9.46649e-18 1.04808e-17 1 

-0.0544785 -0.0655904 0.00763999 
-0.000858924 0.00383289 -0.289487 
-1.07675e-18 5.35538e-18 1 

0.093855 -0.590659 0.566812 
0.223091 0.104982 0.185009 
5.18144e-18 -2.63206e-18 1 

-0.223147 -0.00995442 -1.48785 
0.0425214 0.00625576 1.56209 
1.20573e-18 -3.92581e-18 1 

-0.269573 0.0111734 -0.201319 
-0.341321 0.166368 0.430423 
1.54297e-18 -8.9685e-18 1 

-0.230334 0.0698645 1.35219 
0.00746128 -0.000476465 -1.34516 
-3.34236e-18 2.33965e-18 1 

-0.671982 -0.220087 -1.14246 
-0.0539876 0.196836 -0.342892 
5.66229e-18 -4.08608e-18 1 

-0.683805 -0.58894 -0.0212929 
0.181981 0.38435 0.304202 
-7.12734e-18 -1.70205e-18 1 

0.0141432 0.133115 0.558118 
-0.221702 -0.0300775 -0.854004 
3.82518e-18 1.34254e-17 1 

-0.138859 0.0557861 0.109557 
0.060283 -0.112788 -0.0917642 
-2.41557e-18 -1.4612e-17 1 

-0.271862 -0.050261 -1.6173 
0.0105955 0.150097 -2.26131 
2.22719e-18 7.75419e-18 1 

-0.154039 0.0279077 1.69092 
0.0844651 0.225476 -12.4447 
9.27219e-18 -2.07454e-17 1 

-0.0847794 -0.00290451 2.14596 
-0.0310055 -0.0303755 8.30528 
-7.60175e-19 5.99547e-18 1 

-0.0666653 0.0405054 -0.00751831 
-0.0370544 -0.108743 0.0471798 
-4.61679e-18 -1.9104e-19 1 

-0.807591 -0.132497 1.59725 
-0.273513 0.191744 -1.23628 
-1.07348e-17 -3.29823e-18 1 

-0.263781 0.168325 -0.184554 
-0.0389997 0.18621 0.065326 
1.59467e-17 -9.21152e-18 1 

-0.0814292 -0.0108043 -0.843266 
-0.0147449 0.0126059 -0.85758 
1.67463e-18 2.83836e-19 1 

-0.0411535 0.176763 -0.162684 
-0.130445 -0.00470492 0.258621 
-2.93391e-18 6.37805e-20 1 

-0.128102 -0.0648046 0.118093 
0.123174 0.0152833 0.59642 
-5.48397e-18 2.98921e-18 1 

-1.00752 -0.856225 -0.56889 
-0.688272 0.199038 -1.94925 
-8.61163e-18 4.21994e-18 1 

-0.246946 -0.114775 -0.14551 
0.122903 0.207832 0.0357875 
4.29815e-18 4.54547e-18 1 

-0.632861 0.185921 2.90949 
-0.186798 -0.0198988 1.15804 
1.00669e-17 1.4735e-17 1 

-1.04226 0.725997 -1.03588 
-0.885128 0.843267 -0.855666 
1.08194e-17 -7.62768e-18 1 

-0.268033 0.435078 -0.790503 
-0.230928 0.0980249 0.288825 
-1.45005e-19 7.10526e-18 1 

-0.284601 -0.564469 -0.91513 
0.161396 0.18387 0.022356 
5.26778e-18 -1.01557e-17 1 

-0.0935168 -0.0200727 -0.603646 
-0.0392703 -0.0406845 -2.45284 
1.62681e-18 -5.43238e-18 1 

-0.111828 -0.028214 0.0203136 
-0.0324169 -0.102867 -0.0291546 
1.78844e-17 6.74488e-18 1 

-0.106283 0.126133 0.165905 
0.094085 0.13631 0.324002 
5.66903e-19 -2.77782e-18 1 

-0.132004 0.0621867 -0.586586 
-0.133673 -0.00814133 0.402154 
-3.17686e-18 -5.20696e-18 1 

-0.729592 -0.565133 -0.281404 
0.176215 0.465924 -0.8857 
3.28432e-18 7.9004e-18 1 

-0.200486 0.22027 -1.41054 
0.0477614 0.0815778 0.473374 
1.31227e-17 6.27785e-18 1 

-0.488365 0.315876 -3.1284 
0.21048 0.525896 -1.22753 
3.58681e-18 2.25418e-18 1 

-0.125169 0.367145 0.57667 
-0.0300787 0.0642715 -0.40515 
4.05777e-18 1.89938e-18 1 

-0.348919 -0.31018 -1.37721 
0.334269 0.239817 1.95905 
4.48217e-18 3.05603e-19 1 

-0.362308 0.0546378 1.2036 
0.135816 0.19904 -1.18478 
-5.08256e-18 6.76077e-18 1 

-0.281095 -0.00723299 -0.144605 
-0.109748 0.209328 0.374269 
-1.64977e-17 -1.86888e-18 1 

-0.0753658 -0.00288598 0.142076 
-0.0505528 0.0171544 -0.116624 
1.4884e-17 5.01772e-18 1 

-0.425685 0.401407 -0.378209 
-0.174815 0.284673 0.264467 
-1.296e-18 -3.38827e-18 1 

-0.0876137 0.0414577 0.209503 
0.0678787 -0.012079 -1.40116 
-8.71805e-19 8.07631e-18 1 

-0.184999 -0.115864 0.337991 
0.0730795 -0.0562227 -0.176729 
-1.30697e-17 3.75805e-18 1 

-0.0759008 -0.253716 -0.524752 
-0.132657 -0.000134088 -0.813982 
3.67216e-18 7.38535e-18 1 

-0.226431 0.159903 -0.933216 
-0.00631811 0.0724732 -0.355722 
-1.20918e-18 -7.52377e-18 1 

-0.0344137 0.0575779 -0.096291 
0.0269396 -0.0343781 0.103736 
2.39611e-18 -5.9119e-18 1 

-0.049252 -0.267164 -0.400616 
0.438679 0.102942 0.051569 
-3.29459e-18 3.33911e-18 1 

-0.0107195 -0.0450122 -0.0685818 
0.1085 0.0138969 2.04524 
-1.4563e-19 4.41743e-18 1 

-0.0531075 0.0163997 -0.157021 
-0.0354764 -0.0105097 -0.341906 
1.13793e-17 -4.67699e-18 1 

-0.625004 -0.700033 4.86627 
-0.138465 0.509073 2.06916 
2.21048e-18 1.55122e-19 1 

-0.849553 -0.0204696 -1.72714 
0.110125 0.295525 -1.15437 
-1.74645e-17 -1.42891e-17 1 

-0.124057 -0.027555 0.121317 
0.0163705 -0.0739988 -0.0885258 
-1.8395e-17 1.05447e-17 1 

-0.0795659 0.0949206 0.498216 
-0.0536524 -0.0321997 0.867709 
6.67064e-18 -3.12596e-18 1 

-0.0318112 -0.00709828 -0.102738 
-0.0267091 -0.0646077 0.12031 
-8.07662e-18 9.61503e-19 1 

-0.184428 0.124923 -6.48574 
0.0449107 0.193592 -20.2272 
1.10664e-17 -4.98346e-18 1 

-0.162521 0.0528598 -0.19082 
0.013766 -0.0143603 -0.458606 
6.39445e-18 -7.44795e-19 1 

-0.139895 -0.0785604 0.0162514 
0.0427352 -0.0539653 0.10702 
-1.41497e-17 -1.42159e-18 1 

-0.119998 0.0307762 -1.61171 
0.0841104 -0.00822746 -1.14725 
8.55883e-19 -4.72652e-19 1 

-0.0900447 0.0320304 -0.35811 
-0.0376053 -0.0403175 0.86181 
1.5547e-18 -3.80568e-18 1 

-0.576643 0.904468 2.58575 
0.485912 0.184631 0.51859 
4.63759e-19 -1.74937e-18 1 

-0.514567 -0.129137 0.559462 
0.0168681 0.158818 1.48667 
1.16067e-17 8.01779e-18 1 

-0.12084 0.0222547 -2.88495 
-0.0563838 0.0474198 -4.72899 
-2.31916e-18 -1.79101e-18 1 

-0.789128 0.401021 5.00449 
-0.905365 0.806379 12.3903 
6.61939e-19 3.08905e-18 1 

-1.6516 0.424549 3.13622 
0.235347 0.549084 -0.573429 
1.29383e-17 2.09104e-17 1 

-0.537021 -0.2368 5.78211 
0.0133072 0.468097 -11.9562 
2.28452e-19 -7.11366e-18 1 

-0.511288 0.0744141 -0.631505 
0.386172 0.134072 1.03913 
-2.00307e-19 1.18016e-18 1 

-0.306308 0.192912 1.45793 
-0.0734519 0.2082 0.128415 
4.45724e-18 -2.1049e-18 1 

-0.666912 -0.470002 -16.5464 
0.165975 0.617212 5.00144 
3.54291e-18 -5.64496e-19 1 

-0.183014 -0.246089 -0.108499 
0.102014 0.016551 -0.797432 
-6.38461e-18 -6.18682e-18 1 

-0.124427 -1.09427 -0.664357 
1.20009 0.72886 -1.15358 
-1.64804e-18 6.71893e-18 1 

-0.0947922 -0.0304899 0.204423 
0.0315738 -0.0364162 0.0748305 
-4.09951e-18 3.0155e-18 1 

-0.14478 0.0897679 0.406372 
0.183454 0.0516026 -0.216131 
-8.94351e-18 1.50854e-18 1 

-0.0805198 -0.0330252 0.182637 
-0.00225729 -0.0820717 -0.755924 
8.39933e-18 2.45491e-18 1 

-0.155747 -0.0108451 -0.00190504 
0.0416472 -0.0297568 -0.349244 
2.40848e-18 -4.98344e-18 1 

-0.0648962 0.0254629 0.0520631 
0.0013106 -0.0604091 0.060819 
4.64513e-18 -6.47503e-18 1 

0.0352915 0.0317677 0.0660669 
0.129485 -0.0904651 0.220409 
9.03902e-18 3.57913e-18 1 

-0.212316 0.276634 0.197541 
-0.12697 0.0583387 -0.751994 
-2.38566e-18 -1.46957e-17 1 

-0.414011 -0.268595 1.81516 
-0.0239905 0.203945 -3.25988 
3.58445e-18 -6.27278e-18 1 

-0.256086 0.259908 -1.49517 
0.19051 0.292144 1.34523 
-8.19019e-18 4.9077e-18 1 

-0.17644 -0.0526625 1.11468 
-0.0764282 0.0950478 0.512097 
-5.54367e-18 1.61131e-18 1 

-0.704408 0.495892 2.17457 
-0.173773 0.479327 0.765492 
1.47474e-18 -9.89119e-18 1 

-0.114872 -0.019044 -0.00424127 
0.00478126 -0.0393236 -0.134373 
-4.94929e-19 -6.43408e-18 1 

-0.203306 -0.41823 0.511909 
0.188706 0.165862 0.393258 
3.10499e-18 1.08835e-18 1 

-0.24757 -0.0606823 -0.713211 
0.0805241 -0.0436889 -0.181856 
6.33074e-19 2.02818e-18 1 

-0.115034 0.0191377 0.718528 
-0.0388074 0.0533501 -0.283085 
1.28797e-18 2.72313e-18 1 

-0.44508 0.239642 -0.265083 
-0.310579 -0.0320444 0.429964 
3.97999e-19 1.5323e-17 1 

-0.153497 0.010533 -0.124066 
-0.0674164 -0.0301503 0.1756 
7.62665e-18 -1.19235e-17 1 

-0.103781 -0.0515863 -0.388546 
0.0506569 -0.0578578 1.58865 
1.04542e-18 -2.1466e-18 1 

-0.186524 -0.514403 0.0605735 
0.270374 0.0793212 -0.425238 
-3.81417e-18 1.22469e-17 1 

-0.150943 -0.0305949 0.170024 
-0.0357808 -0.063654 0.451125 
2.14679e-18 3.22019e-18 1 

-0.114726 -0.0991045 0.363421 
-0.0358291 -0.0413889 0.0366034 
4.41143e-18 -3.21736e-18 1 

-1.0942 0.321653 -1.3235 
0.206418 0.269078 1.79771 
-2.96799e-18 1.37314e-17 1 

-0.14334 0.00880838 -0.532768 
-0.294096 0.0428045 -1.62981 
-4.57486e-18 -3.74915e-18 1 

-0.423085 0.46712 0.514374 
-0.17611 0.169021 -1.9008 
-4.37251e-20 1.70965e-17 1 

-1.16979 -0.536505 2.89819 
-0.0827609 0.404159 -0.268496 
2.52563e-18 -9.39219e-18 1 

-0.320625 -0.141417 -1.10819 
-0.0469456 0.163678 -1.1197 
6.90022e-18 -3.86026e-18 1 

-1.90296 0.999106 16.8515 
-0.310414 0.68933 -1.27704 
8.12794e-18 -1.16471e-17 1 

-0.639744 -0.168191 -5.58289 
-0.209595 0.366066 4.3012 
5.44009e-18 1.27745e-17 1 

-1.3185 -0.13695 -0.916359 
-0.503145 0.400758 -0.103257 
-7.06581e-18 -1.33949e-18 1 

-0.188156 -0.204866 -1.61818 
-0.324505 -0.263256 -0.743625 
1.49079e-18 -7.50918e-18 1 

-0.311566 0.0757321 -0.771589 
-0.164737 -0.0484189 -0.598021 
-3.86287e-18 -5.95986e-18 1 

-0.256631 -0.260369 -0.309167 
0.304898 0.0977715 -0.193391 
-5.4428e-18 2.17712e-18 1 

-0.148198 -0.174241 -0.0832739 
-0.0110338 -0.0635239 0.156329 
-1.51094e-17 3.07718e-18 1 

-0.352057 -0.24744 0.719305 
-0.305422 0.241007 1.01977 
6.23074e-18 2.69015e-18 1 

-0.527448 -0.187017 0.346502 
-0.185593 0.284208 -0.00159606 
5.5602e-18 3.22725e-18 1 

-0.0813517 -0.0608701 -0.0099926 
-0.0455952 -0.0204944 0.285999 
7.28512e-18 7.95348e-18 1 

-0.602452 -0.244314 -0.875002 
0.209511 0.195731 -0.122089 
3.90456e-18 9.95279e-19 1 

-1.29721 0.0855259 4.30212 
0.125594 0.533269 -2.13116 
-6.18965e-19 1.35755e-17 1 

-0.0435935 -0.0676507 0.04268 
-0.0479647 -0.102207 -0.112026 
2.91996e-18 1.40158e-17 1 

-0.40307 -0.098533 0.240813 
0.00103412 0.22078 0.716136 
2.01712e-18 -6.12178e-19 1 

-0.148984 -0.107515 0.143317 
0.146205 0.0477756 0.523933 
-1.22187e-17 4.56361e-18 1 

-0.0953321 0.104143 0.252631 
-0.124099 0.0464509 0.164118 
9.02954e-18 -3.52112e-18 1 

-1.14932 -0.747991 5.28795 
0.152402 0.632797 -6.17692 
8.25991e-19 2.71145e-18 1 

-0.422148 0.0646872 -0.660006 
-0.288609 0.111806 0.945007 
-5.33543e-18 5.23282e-18 1 

-0.0360019 0.0281903 -0.107598 
-0.00347937 0.0242098 -0.23731 
4.16084e-18 -8.36835e-18 1 

-0.214351 0.0484003 -0.0441333 
0.140228 0.0881543 -0.0998533 
8.87625e-18 1.74199e-17 1 

-0.0598047 -0.0253474 -0.158985 
-0.0827686 0.209938 0.825455 
-1.17425e-17 -3.95243e-17 1 

-0.0679276 0.0531016 0.393873 
-0.0181778 0.00522196 -0.250959 
1.37373e-17 -2.45655e-18 1 

-0.417385 0.18322 -0.905309 
-0.18368 0.152887 -0.349124 
-5.59262e-19 2.81593e-18 1 

-0.182331 -0.0151855 0.261277 
-0.150186 0.14563 -0.907292 
-5.00498e-18 4.2453e-19 1 

-0.122296 -0.0942035 0.0764202 
-0.00835011 -0.0861734 0.105923 
-4.46134e-18 -2.12154e-17 1 

-0.913328 -0.234746 1.75497 
0.0895102 0.534014 0.645699 
3.00657e-18 5.04264e-18 1 

-1.08329 -0.81336 -4.61655 
0.310299 0.549304 -1.6783 
1.04914e-17 -3.50054e-20 1 

-0.13201 0.22106 -0.508283 
0.0231481 0.191321 -0.339017 
6.65759e-18 5.25371e-18 1 

-0.36139 -0.0168129 4.98294 
0.0105747 0.0504207 -2.68835 
1.8663e-18 -1.17911e-18 1 

-1.024 -0.0257442 -0.714636 
0.911058 0.513297 1.50523 
1.12175e-17 -1.37496e-18 1 

-0.0729124 0.0690211 0.318035 
0.00630165 -0.0236242 0.10545 
1.36811e-18 -3.00829e-18 1 

-0.143544 0.111293 0.590255 
0.169609 0.242548 -1.27945 
5.13679e-18 -9.08702e-19 1 

-1.27229 -0.781632 -4.63003 