# vtk DataFile Version 3.0
Output file generated by Yade's KinematicLocalisationAnalyser
ASCII
DATASET UNSTRUCTURED_GRID

POINTS 13483 float
653.768 28.0244 -0.396834
840.067 58.3975 -0.443807
128.813 6.20575 -0.442217
876.072 7.95517 -0.349926
534.303 7.62574 -0.299785
336.66 34.4109 -0.460481
167.561 6.77562 -0.416878
611.604 10.2152 0.12717
531.553 22.7999 0.139564
781.742 13.1133 0.3515
225.589 8.84874 -0.0988353
274.903 6.23433 0.292397
704.819 30.4212 -0.133622
681.406 14.3291 0.0856848
146.996 17.0126 -0.457572
236.887 34.3123 0.400125
233.136 12.852 -0.273239
308.849 9.44375 0.371774
364.196 31.7522 0.432296
562.14 8.51975 0.350235
440.737 35.4612 -0.0986984
636.365 46.3094 0.258355
873.344 39.7526 -0.468412
758.386 47.008 0.47654
491.099 16.4004 0.2931
257.674 43.4797 0.12277
526.505 27.6243 -0.476806
630.063 20.3165 0.216356
47.9037 15.2737 -0.459022
778.344 32.3287 0.333805
516.241 4.8464 0.330411
17.5963 22.6676 0.31913
851.698 51.9555 -0.253774
530.015 2.46769 0.487383
84.4462 43.355 0.102607
559.202 30.3026 0.318709
568.483 16.5162 -0.43091
367.687 21.6417 -0.200009
572.359 25.3961 -0.309361
375.632 33.0127 -0.387491
258.282 14.5079 -0.291547
465.446 35.8057 -0.0645676
731.167 6.45127 0.212575
206.781 6.33441 0.349535
59.3405 6.94539 0.0926275
73.118 8.74555 -0.266818
748.982 8.58453 -0.390303
25.3207 11.6789 -0.282853
659.229 46.7179 0.355335
732.137 24.4777 -0.321838
184.847 31.8269 0.28261
834.648 39.6616 0.118157
37.6058 27.7472 -0.11406
573.006 2.95154 0.32934
152.309 7.18031 0.475202
638.865 35.2068 0.366926
541.225 26.049 -0.112492
187.182 0.929569 -0.261719
34.961 2.37965 -0.309199
373.481 17.5619 0.255224
668.722 47.1887 0.133111
495.043 33.5212 -0.170477
427.463 1.04184 0.192293
760.289 7.76869 -0.353438
28.4849 42.2153 0.234888
274.864 30.0738 0.291905
781.702 8.44098 0.238675
726.628 47.5604 -0.352795
447.227 8.48565 -0.478099
612.391 3.57956 -0.334376
813.436 32.862 -0.396267
140.274 7.56439 -0.276998
534.734 25.1153 -0.12369
511.804 15.2435 -0.0941654
315.519 16.5557 -0.335055
22.306 13.2981 -0.231256
855.823 39.3149 0.332855
356.617 38.7583 -0.278541
730.305 21.7537 0.353731
747.629 13.2684 -0.236743
862.651 11.4329 0.271445
498.577 34.1845 0.166958
99.6241 36.7938 -0.265743
744.568 36.7147 -0.221566
702.032 38.8386 0.0930525
879.274 46.1672 -0.113549
856.65 0.75358 0.527724
312.099 28.2842 -0.447738
670.745 6.35964 0.0780322
25.9841 5.3168 0.452778
142.81 38.0886 0.1364
551.105 13.8876 0.187804
848.822 29.7073 0.503774
209.849 27.8124 -0.228641
47.6098 34.5359 -0.266199
528.892 1.1585 0.11988
253.149 8.76384 -0.377567
814.685 44.3097 -0.237561
836.631 29.2575 -0.272993
388.091 20.4217 -0.254733
176.429 26.4546 -0.445525
590.75 37.9608 0.396882
407.648 15.1347 -0.475965
444.629 28.9061 -0.0966605
406.088 4.45423 0.408189
589.624 10.4758 -0.112835
881.089 14.1465 -0.189501
86.8669 38.4237 0.383643
360.403 4.74948 -0.178448
604.875 9.57923 -0.343365
387.503 43.6931 -0.439746
27.8836 24.273 0.472246
32.6926 5.72258 -0.338819
613.804 33.2701 0.421125
543.693 23.129 0.146762
28.4286 36.3249 -0.409867
100.493 29.1168 -0.232429
349.472 15.7401 -0.317607
647.829 18.9893 -0.114448
511.164 37.533 0.291921
799.376 7.72824 0.509473
791.281 6.40757 0.313497
416.912 36.9354 -0.0930278
687.355 26.0771 0.0984983
256.294 16.4426 -0.505976
355.288 3.65652 0.470135
111.294 30.8711 -0.323501
125.276 23.7322 0.26889
585.634 38.6153 0.0728099
329.474 18.717 0.476144
774.141 37.7226 -0.104129
731.308 45.6644 -0.109863
518.737 20.0235 -0.363341
841.86 13.7396 -0.310696
461.743 23.6958 0.246132
299.129 23.7688 -0.306339
732.71 33.6115 0.28606
300.703 28.8423 0.41938
623.227 12.0765 0.184919
358.138 35.5373 0.186977
544.753 11.1364 0.456914
396.002 30.8482 0.0862249
464.097 16.5648 -0.103748
343.882 40.7944 0.430585
205.993 28.9335 0.117527
844.636 60.407 -0.146668
876.558 16.6864 0.241111
6.55373 11.9671 -0.423724
468.48 21.9153 -0.425098
41.0824 21.9456 0.0980593
406.822 31.5639 -0.455236
426.499 24.3269 -0.254576
80.2883 11.6317 -0.472339
55.6663 32.9574 -0.438095
244.25 13.3603 0.414252
672.208 40.0072 0.390232
625.852 21.159 -0.451915
80.8245 20.673 -0.468203
760.761 48.2969 0.425439
829.589 2.28011 0.495583
718.245 46.6861 0.461146
755.317 2.3763 0.370215
596.21 26.4002 -0.420233
638.201 46.1793 0.442062
554.546 18.024 -0.356552
874.746 3.1166 0.237217
241.876 24.4016 -0.123589
138.554 34.3839 -0.194447
267.43 6.6006 0.372695
102.173 4.04373 0.25816
69.3223 9.90703 -0.201558
298.575 35.779 -0.306405
18.1968 24.2423 -0.385646
603.339 20.3212 0.399808
657.993 41.6867 -0.184761
500.676 21.0971 -0.343146
867.98 49.7809 -0.354104
440.027 8.4473 0.086978
472.833 37.1756 -0.371379
581.818 3.48723 -0.176628
24.6035 23.5648 -0.374894
625.908 4.46813 0.463481
592.07 4.28601 -0.290756
223.461 11.1121 -0.477646
460.22 15.9756 0.207132
337.176 6.22419 0.322476
419.958 18.7721 -0.331289
805.793 46.0469 0.0985397
208.113 24.8389 -0.411393
848.595 6.7734 -0.435897
802.61 42.4273 0.321183
414.861 10.1992 -0.161035
779.654 2.47066 0.431078
656.602 25.3368 -0.399157
808.213 21.1165 0.347513
467.682 44.4199 0.0801045
538.542 12.2667 0.380432
504.149 44.0572 -0.219518
482.956 8.69941 -0.131595
721.14 43.3936 0.253236
719.069 40.6474 -0.306178
208.237 37.9917 0.331063
860.514 11.991 0.110339
640.464 45.9454 -0.247289
12.3469 16.7021 0.167697
441.796 24.8244 0.328096
203.032 22.5277 -0.382061
101.409 37.4009 0.200884
846.585 26.9924 -0.444573
715.426 48.7635 -0.234573
346.014 25.1717 0.351974
578.441 10.1452 0.311313
89.6886 42.5172 0.162752
268.703 25.6096 0.474085
605.77 24.662 0.357222
527.832 18.6833 0.392817
284.864 0.895291 -0.343038
600.821 40.4267 -0.34667
578.89 41.8121 -0.441688
523.509 33.1249 0.373168
541.7 0.787421 -0.48904
766.344 18.5949 0.39357
194.742 11.7608 -0.166241
544 35.2213 -0.416775
613.861 41.6492 0.0550719
78.6723 0.906155 -0.281545
272.998 4.60218 0.17481
875.764 18.5479 -0.192026
863.643 13.1704 0.407967
881.919 21.973 0.475133
329.146 8.49377 -0.23303
813.237 23.9888 0.40797
442.664 40.5446 0.313273
487.228 0.812105 -0.399589
708.366 37.5789 0.404466
29.4717 29.9157 0.305042
358.824 40.9728 -0.451034
273.951 2.78144 0.302055
854.315 48.5399 -0.181929
777.775 50.6854 -0.229184
311.632 10.7247 0.18502
725.631 32.9601 -0.087948
606.522 2.70413 0.29657
589.734 6.27251 0.434511
105.641 17.0879 -0.529917
329.031 1.04024 -0.221748
372.721 2.28033 -0.356697
15.0213 7.74719 0.459678
4.55506 30.2276 0.247977
175.921 18.7427 -0.355833
74.4982 40.9989 0.207531
72.4631 28.336 -0.318239
459.741 14.3188 -0.420083
398.828 34.7489 -0.475381
832.496 40.2569 0.123213
21.2758 3.96728 0.280211
76.3256 6.77097 0.151542
681.138 39.4378 0.137208
320.044 0.931457 0.317469
396.893 16.2539 -0.101268
256.219 4.58369 -0.362403
713.277 23.0501 0.172361
490.514 8.27945 0.40088
815.451 20.9908 0.3653
686.446 29.5294 -0.304648
729.335 20.0373 -0.0953337
457.059 26.336 0.463914
111.086 43.8675 -0.30231
589.517 41.7162 0.0666559
805.523 16.3924 0.183863
258.463 29.7396 0.244693
34.8344 16.6086 0.162854
365.454 13.6558 0.481723
117.416 39.7808 -0.463442
291.077 41.5742 -0.182466
462.267 1.05762 0.183456
853.676 35.4581 -0.405888
747.974 0.762153 0.561451
361 3.09503 0.492055
325.899 26.3207 -0.145666
502.647 41.0543 -0.195789
88.3818 7.72198 -0.482425
215.31 44.4966 0.377386
839.621 34.6401 0.371913
538.242 38.526 -0.0663942
217.512 40.5001 0.245608
174.739 41.5813 0.386944
882.96 39.4599 0.383538
879.845 13.0415 0.515751
660.537 3.25765 -0.548648
206.783 23.5727 0.0947978
598.019 28.3072 0.0946931
600.104 28.062 0.268218
444.775 5.53578 -0.138673
523.663 0.919927 -0.285829
830.994 42.6563 0.480604
92.9839 29.8959 -0.21276
717.549 19.0616 0.434329
298.246 15.4139 -0.331607
10.8328 2.29872 -0.351351
137.044 35.9127 -0.19056
72.7459 22.9729 -0.440973
767.74 37.3817 0.311773
859.351 56.5284 0.162744
202.129 27.5561 0.177982
872.131 13.7335 -0.377146
48.7773 36.1656 -0.246138
99.2669 27.6027 0.163751
691.811 13.8982 0.435253
449.656 17.802 -0.48222
565.067 16.4948 -0.099497
258.96 27.7775 0.164203
678.17 4.51537 0.399438
882.637 12.8794 -0.399147
32.6793 31.1081 -0.264135
293.667 7.61632 0.189842
241.692 15.0344 -0.267872
1.10939 35.2088 0.147893
245.242 14.4225 -0.351545
230.638 10.9887 -0.140424
233.429 26.0018 0.279791
144.822 27.3317 0.13074
596.063 15.0826 0.307752
182.08 14.0049 0.339548
848.145 51.7742 -0.224446
189.447 3.72852 0.481003
51.5669 37.0036 -0.356668
813.256 53.6108 -0.426926
306.07 31.195 0.377035
738.606 25.6682 0.415881
860.655 35.6863 -0.47481
327.178 9.11398 0.106077
800.372 33.897 0.352302
357.698 2.63018 -0.35514
453.216 23.6452 0.353315
734.601 17.4517 0.467219
115.028 11.7452 0.428971
525.353 3.94098 -0.468602
819.227 19.9455 -0.171081
96.0403 7.45982 0.180101
306.324 14.5129 0.189392
460.672 11.4721 -0.235355
873.569 2.17695 -0.516147
432.711 1.88832 -0.481041
192.646 38.0826 0.268585
806.73 10.6192 0.398998
140.409 35.4833 -0.183486
286.478 31.2483 -0.378765
435.864 21.3024 0.207584
625.922 13.9475 -0.305915
421.117 9.59254 0.418924
496.757 27.5216 -0.410671
840.678 59.5948 0.333023
51.7569 10.9737 -0.100069
325.926 37.3823 -0.261283
413.216 26.1771 -0.38692
446.009 20.5617 0.25067
569.274 43.8645 -0.356462
823.028 43.2948 -0.1925
726.027 38.6919 -0.339995
245.998 33.69 0.385801
15.1641 30.597 -0.151906
717.26 41.5902 -0.12381
555.93 41.9126 -0.440279
249.704 38.7705 0.0955885
746.911 33.0396 0.125526
164.665 9.13646 0.209494
399.466 21.4734 0.310071
504.597 41.9172 -0.0994992
450.742 19.1305 0.206561
837.052 56.2562 0.292923
463.704 3.26945 0.440761
54.3282 24.9262 -0.294252
511.952 31.3147 0.325671
473.62 42.3815 0.346396
849.758 43.1032 -0.223986
797.647 35.2385 0.237946
590.545 18.6084 -0.156613
843.253 45.1665 -0.412241
319.097 2.04343 -0.429475
412.81 28.9448 -0.460838
32.003 38.2511 -0.292443
803.483 33.9068 0.145179
665.464 19.9938 -0.48427
504.098 0.779553 -0.470987
137.601 4.47765 -0.283855
465.093 40.2885 -0.0958281
13.3539 0.925441 0.308782
873.754 5.13465 0.0905698
403.431 39.0749 0.393731
[...]
POINT_DATA 13483
TENSORS Strain_matrix float
-0.155816 0.151342 0.382997 
0.104594 0.0723512 0.338389 
-4.40283e-19 -1.1695e-17 1 

-0.262565 -0.952212 29.6942 
0.319403 1.25937 -20.451 
-3.05313e-19 3.18622e-17 1 

-0.0642698 -0.0154028 -1.49304 
0.0112157 -0.0623353 1.86348 
-5.22331e-19 5.02743e-18 1 

-1.12509 -0.530368 -0.198296 
0.229818 0.515365 0.48455 
-1.43475e-17 -1.13508e-18 1 

-0.0901884 -0.0470185 0.0804813 
0.0043205 -0.0627976 0.037194 
9.91721e-18 4.25426e-18 1 

-0.0733766 -0.0163577 -0.864393 
-0.00715116 -0.0422875 0.00476277 
1.13256e-17 -3.01301e-18 1 

-0.0425686 -0.0375918 0.0259042 
-0.0106398 -0.0892148 0.278038 
1.18845e-17 9.81057e-18 1 

-0.0669212 0.0121255 -0.138873 
0.0205427 -0.0533456 -0.0442649 
2.96937e-18 -6.35307e-18 1 

-0.0556634 0.0401521 -0.143335 
-0.0237363 -0.0127171 -0.0288313 
1.7532e-18 3.57134e-18 1 

-0.187263 0.107013 0.415304 
-0.058759 -0.073179 0.163934 
0 -2.41846e-19 1 

-0.000598432 -0.0661574 0.0481455 
0.0185295 -0.0885808 0.0043974 
-4.70939e-18 2.3547e-18 1 

-0.054792 0.000910134 -0.0533866 
-0.0586675 -0.0999091 -0.200502 
-9.74042e-20 1.94808e-19 1 

-0.0680414 0.234981 -0.547039 
-0.00346803 0.0544894 -0.152328 
-3.04252e-18 -3.90554e-18 1 

-0.108288 -0.144965 -0.428932 
0.122473 0.0241465 -0.0857548 
3.30027e-18 -2.92843e-18 1 

-0.070555 0.00676461 0.818082 
0.00530292 -0.0470531 0.137182 
-3.17352e-18 3.44513e-18 1 

-0.0557293 -0.0600447 0.810567 
-0.0749617 -0.0476868 0.565132 
1.41028e-18 -6.6898e-19 1 

-0.0323379 -0.0566212 0.36328 
0.0337764 -0.118076 0.231071 
-5.57251e-18 -3.41233e-18 1 

-0.0926281 -0.0196291 -0.00522619 
0.00723844 -0.0716288 0.00820068 
-8.6812e-18 -1.21671e-17 1 

-0.0796008 -0.100041 1.2087 
-0.112718 -0.03043 -0.179333 
-8.42706e-18 4.76453e-18 1 

-0.0659932 0.0747005 0.404552 
-0.0426219 -0.104166 -0.450291 
-1.3721e-17 -3.76685e-18 1 

-0.138301 0.181108 -0.674668 
0.0306251 0.0342783 -0.389852 
8.59707e-18 -2.42659e-18 1 

-0.0335586 -0.0195549 0.20811 
-0.19805 -0.127071 -0.305776 
4.92704e-18 -1.16333e-17 1 

-0.478311 0.0357779 4.47996 
-0.232454 0.340308 2.49755 
3.73798e-18 3.89725e-18 1 

-0.220276 -0.0785868 -26.8642 
-0.0174412 0.39665 38.9303 
1.8135e-18 1.38208e-17 1 

-0.0740299 -0.0683369 0.27016 
-0.00300254 0.00929767 -0.0386292 
-4.3514e-18 -3.89677e-18 1 

-0.0340752 0.0581646 -0.325572 
-0.110033 -0.00509971 -0.201168 
5.26887e-18 -1.703e-17 1 

-0.0584261 -0.0134487 4.62787 
-0.0174342 -0.0529894 5.11181 
-2.76649e-19 3.23918e-18 1 

-0.171312 -0.0193855 -0.097638 
-0.116798 0.0411651 -0.309944 
-7.74477e-18 -9.27191e-18 1 

-0.0744299 0.00315934 0.393401 
0.043153 -0.0835313 -3.05815 
-2.6009e-18 -6.62236e-19 1 

-0.369542 -0.395499 0.0694911 
0.117777 0.128206 0.696735 
-5.45718e-18 -1.08647e-17 1 

-0.0748674 -0.0235243 -0.382822 
-0.0908372 -0.186786 0.447584 
-3.19725e-18 -8.49191e-18 1 

-0.0219932 0.0923367 0.440055 
0.0338414 -0.091186 0.0405413 
-1.94713e-17 8.76207e-18 1 

-0.0616679 -0.00761869 0.58902 
-0.0640501 -0.0244155 0.139024 
4.67777e-18 -1.10262e-18 1 

-0.0879416 0.00736349 -1.09024 
-0.00331581 0.00574742 -2.10854 
6.69443e-18 1.43606e-18 1 

-0.0717538 0.0284021 -0.235375 
-0.128604 -0.10063 -0.285706 
-1.22209e-17 1.75862e-17 1 

-0.0356658 0.0893989 -0.0847471 
-0.10504 -0.0677454 0.0914251 
4.11522e-19 -1.06096e-18 1 

-0.0488524 0.0102265 -1.11741 
-0.0150356 -0.0364048 -0.279375 
-2.40333e-18 -2.84254e-18 1 

0.0855607 -0.0774793 -0.30379 
0.00891079 -0.251366 -0.346395 
-4.50857e-18 1.78788e-18 1 

-0.115788 -0.0111508 0.273989 
0.115263 -0.06828 0.0327384 
-7.74097e-18 -1.17287e-18 1 

-0.0172699 -0.00812126 0.297224 
0.106343 -0.0307037 1.1781 
-7.78381e-18 -3.85864e-18 1 

-0.0238178 0.00437036 0.0300593 
-0.0287229 -0.131839 0.183342 
-2.1117e-18 6.78716e-18 1 

-0.116478 -0.110975 0.398226 
-0.142253 0.0230103 -0.356877 
1.10652e-18 1.41258e-19 1 

-0.198554 0.0380634 0.0823606 
-0.0828618 -0.175714 -0.0726233 
1.87621e-18 -9.24033e-18 1 

-0.0541098 0.0180258 0.30608 
0.0118741 -0.0846417 -0.516285 
5.41632e-18 6.29648e-18 1 

-0.0239094 0.0455501 0.000487071 
-0.0209746 -0.101605 0.0628439 
-3.55427e-18 -7.81939e-18 1 

-0.0385638 0.0189589 0.133818 
-0.0196999 -0.0712491 -0.148119 
-1.30309e-18 8.83834e-18 1 

-0.288991 0.033209 -0.0589099 
0.0309536 0.0910961 -0.567401 
-1.18082e-17 4.66262e-19 1 

-0.0512557 -0.0340835 -0.081026 
0.0736145 -0.103024 -0.0605016 
-1.81333e-18 5.75732e-18 1 

-0.0426117 0.148043 -1.06195 
-0.146647 -0.0147516 -0.13949 
-5.89082e-18 -1.4017e-17 1 

-0.148023 -0.140811 -2.02987 
0.119944 0.172079 -0.549437 
-7.4612e-18 -3.15699e-18 1 

-0.0480674 -0.0769835 -0.601335 
0.0179726 0.00443944 0.00188023 
6.17026e-18 -7.02306e-19 1 

-0.278071 0.293587 0.0167253 
-0.0785074 0.202095 -0.226705 
-8.53213e-19 -3.43951e-18 1 

-0.104535 0.0431598 0.159575 
-0.0189205 0.000475211 -0.112269 
3.33229e-18 8.36472e-18 1 

-0.10166 0.0490385 0.0946606 
-0.012488 -0.0607298 0.0169117 
1.52667e-18 -1.58292e-17 1 

-0.0732338 0.00945444 -0.0340468 
-0.0312709 -0.122683 0.105754 
4.86449e-18 -2.75477e-18 1 

-0.0701235 0.0514799 -1.05927 
-0.0353378 0.0234631 0.895004 
1.43108e-18 1.3607e-18 1 

-0.0623055 -0.0168925 -0.0523056 
0.113174 0.0392705 0.184199 
-7.01346e-19 -1.96377e-18 1 

-0.0457983 -0.123083 -0.181441 
-0.0138562 -0.125109 0.0480521 
1.74819e-18 3.91405e-18 1 

-0.0395271 0.0143573 -0.0218706 
-0.0288044 -0.136638 -0.0136584 
1.96353e-18 -2.13859e-17 1 

-0.0532123 0.0138765 -0.105672 
-0.0394318 -0.0748258 0.317396 
-4.13341e-19 -4.13341e-19 1 

-0.366644 -0.367365 0.77406 
0.464407 0.777901 -0.265248 
3.7698e-18 1.45556e-17 1 

-0.0612264 -0.0738989 0.276851 
-0.0485781 -0.0355388 0.0547325 
3.38453e-18 -6.56998e-18 1 

-0.0636312 -0.0722298 -0.247532 
-0.00443668 -0.0385562 -0.0860873 
-8.8552e-18 -2.30809e-17 1 

-0.102493 0.0282664 0.209681 
0.0435446 -0.0625836 0.0306295 
-4.74605e-18 6.75029e-18 1 

-0.0305538 0.067474 0.170886 
0.0210052 -0.00410025 0.242791 
2.25675e-18 5.44922e-18 1 

-0.0739002 0.0410871 0.110157 
-0.0476951 -0.0634554 0.330838 
-1.17094e-17 1.88567e-17 1 

-0.181697 0.115576 -0.122401 
-0.111465 -0.0669906 -0.126446 
-5.48107e-18 5.51282e-18 1 

-0.103202 0.211632 -0.88955 
-0.215935 0.0603112 -0.963503 
-3.60125e-18 -1.93594e-19 1 

-0.0805857 0.00264834 -0.292324 
-0.0533873 -0.094121 1.26998 
1.01176e-18 -1.65561e-19 1 

-0.132689 -0.012775 0.0510942 
-0.0207541 -0.0699806 0.0717298 
-8.97577e-20 3.59031e-19 1 

-0.1356 0.272339 -0.151226 
-0.121083 0.0876788 0.726772 
-1.34474e-17 7.0942e-20 1 

-0.0402567 0.0365612 0.0709464 
-0.0239253 -0.0717079 -0.075108 
-4.88434e-19 -5.3219e-18 1 

-0.0325771 0.0155022 -0.225668 
-0.0173784 -0.0487156 0.0514251 
5.05273e-18 -4.89344e-18 1 

-0.0307421 0.0881881 -0.0989965 
-0.102864 -0.0643967 0.439587 
4.79369e-18 -7.14531e-18 1 

-0.0571507 0.0203486 -0.238146 
-0.024572 -0.0453523 -0.202762 
-6.18282e-18 1.82856e-19 1 

-0.0158747 -0.0296845 -0.0771153 
-0.0447936 -0.120126 -0.0447095 
2.74518e-18 1.90969e-18 1 

-0.234632 -0.0442922 -0.848814 
0.265889 0.176246 0.158688 
-3.16126e-18 1.91146e-18 1 

-0.0753705 0.00962136 -0.190496 
0.0372531 -0.0229856 0.634555 
-4.06123e-18 3.39737e-18 1 

-0.148427 -0.0923743 -0.956299 
-0.331017 -0.0481378 -0.229775 
-1.35791e-18 2.71582e-18 1 

-0.203314 -0.180285 0.0271538 
-0.0290053 0.0164861 -0.38847 
2.75552e-18 1.02567e-18 1 

-0.209616 0.193933 1.05485 
-0.143131 -0.0206553 -0.993181 
-9.16865e-18 1.93302e-17 1 

-0.0300026 -0.102971 0.119754 
0.0913489 -0.00484054 -0.0476279 
-3.92375e-18 -1.98671e-18 1 

-0.0278108 0.105409 -0.0956859 
-0.140904 -0.00932275 0.0740953 
-3.93208e-18 -2.12068e-18 1 

-0.284837 0.0475667 -1.41206 
0.188658 0.225382 1.64664 
3.87754e-18 1.26379e-17 1 

-0.137103 0.199904 -0.847088 
0.0133734 -0.0334635 0.538797 
1.8483e-17 1.536e-17 1 

-0.649696 -0.72523 0.178431 
0.0982432 0.363549 -0.839405 
4.96174e-18 -6.88768e-18 1 

-0.374952 2.0986 -2.24726 
0.0255646 0.0501012 -0.259823 
-1.06585e-17 2.29764e-17 1 

-0.113135 -0.0313038 -0.687829 
0.0198359 -0.0441107 -0.0610175 
-1.04836e-17 -1.52e-18 1 

-0.144351 0.0181858 -0.163883 
-0.00863788 -0.0373106 -0.0611465 
6.76841e-18 -9.72587e-19 1 

-0.0987383 0.0266158 -0.066514 
-0.0157899 -0.0532524 -0.308997 
-1.64085e-17 9.33067e-18 1 

-0.0599043 -0.0908577 -0.163196 
0.0892406 -0.000654239 0.268348 
-1.28825e-17 5.44627e-18 1 

-0.021031 0.041373 -0.290434 
0.0940813 -0.0754297 0.0202271 
-1.2254e-17 -1.94721e-17 1 

-0.311042 -0.15998 -1.24491 
0.086517 0.161465 -1.50826 
-2.63422e-18 -2.00915e-18 1 

-0.108105 -0.0200147 0.329283 
0.018079 -0.0399178 -0.0604588 
-1.50306e-17 1.32346e-17 1 

-0.0407808 0.0611865 -1.76557 
0.0349883 -0.0200006 3.00851 
-3.70703e-18 -5.12004e-18 1 

-0.0865953 0.00829918 0.0163444 
-0.0023849 0.237341 -0.492247 
4.19069e-18 3.93163e-17 1 

-0.0851237 0.0403932 -0.207176 
0.0132485 -0.052843 0.641313 
5.21973e-18 2.91812e-18 1 

-0.694842 0.311986 -0.441081 
0.109658 0.318134 -0.681622 
-1.39848e-18 2.42549e-18 1 

-0.229469 -0.0192148 -0.0646316 
0.237073 0.0915844 0.691538 
-4.47731e-18 -7.38932e-18 1 

-0.0143986 0.0618795 0.00421091 
-0.0891518 -0.0876055 0.0713116 
4.69302e-18 5.75677e-18 1 

-0.0420315 -0.0129221 0.945378 
0.00487433 -0.0320258 0.786445 
2.92651e-18 -2.43367e-18 1 

-0.0481958 -0.00234754 1.95302 
0.0239811 -0.0497738 4.58295 
-2.66839e-18 9.17726e-18 1 

-0.0961791 0.0195876 -1.6926 
0.0188148 -0.0333227 1.09305 
-1.0569e-17 2.28646e-18 1 

-0.057932 0.0170175 -0.0127929 
-0.000782265 -0.0585772 -0.184698 
-2.6729e-18 -1.36615e-18 1 

-0.059402 -0.0384331 0.136726 
0.00544274 -0.105327 -1.74751 
-5.80708e-18 -2.01561e-18 1 

-0.231465 0.0842005 0.201883 
-0.0625667 0.0595892 0.0684174 
-1.15721e-17 6.39509e-18 1 

-0.755014 -0.616325 -0.00364545 
0.121419 0.310835 0.414621 
-5.53867e-18 -4.37263e-19 1 

0.0381866 0.0207127 0.669644 
-0.14549 -0.142408 -1.00385 
2.06387e-18 -1.37844e-17 1 

-0.0771762 0.0134718 0.049715 
0.0221381 -0.099586 0.0154455 
7.24274e-18 -4.82849e-18 1 

-0.114168 -0.00287859 -0.260291 
-0.0058632 -0.0462067 -0.387227 
1.09045e-17 6.95256e-18 1 

-0.121679 -0.0505383 0.795147 
0.0740545 0.00133196 3.45729 
5.8279e-18 8.07799e-18 1 

-0.0284099 0.0426149 -1.4544 
0.0118428 -0.0702074 0.301689 
-1.55583e-18 -3.83748e-18 1 

-0.0406267 0.0291447 0.0341832 
-0.0299876 -0.119626 0.0261688 
1.73309e-19 5.77696e-19 1 

-0.103449 -0.100591 -0.887964 
0.0719243 0.0193575 -0.67643 
-3.16574e-18 1.59138e-18 1 

-0.188391 0.0640669 -0.162283 
-0.0204371 0.164138 0.0626539 
-7.20002e-18 -1.07494e-17 1 

-0.0412568 -0.0170463 -0.27736 
0.0180368 -0.0106636 -0.0927026 
-7.54273e-18 -2.06817e-18 1 

-0.0991131 -0.0617782 -0.0954653 
-0.190383 -0.0116219 0.276973 
-4.31301e-18 1.53112e-17 1 

-0.0541231 0.00883154 -0.13139 
-0.0254766 -0.056524 -0.129097 
4.16903e-18 -6.36724e-18 1 

-0.337791 -0.154014 0.106861 
0.0988195 0.233016 -0.193398 
4.25764e-18 -2.57857e-18 1 

-0.0375528 -0.0335798 0.345496 
0.0509866 -0.0034781 0.144981 
-4.25893e-18 2.94444e-18 1 

-0.521272 0.07772 -0.0433375 
-0.0820049 -0.0185115 0.285656 
7.53477e-18 1.32429e-17 1 

-0.276369 0.12939 0.442695 
-0.0647796 0.00977493 -0.519543 
2.30548e-18 -1.52639e-17 1 

-0.011731 0.0858689 0.192054 
-0.109312 -0.0322021 0.104904 
1.17944e-17 3.84212e-18 1 

-0.0845901 -0.0678974 -0.0601138 
-0.0579963 0.0298014 0.224756 
8.51566e-18 7.69016e-18 1 

-0.034003 -0.00818701 -4.37485 
0.00187303 -0.0803663 6.27564 
-6.34578e-19 5.39087e-18 1 

-0.0601586 0.0247578 -0.203196 
-0.0246111 -0.130125 -0.145161 
1.04064e-17 -6.91316e-18 1 

-0.105697 -0.137678 -0.0343172 
0.112009 0.0604767 0.196041 
1.62706e-18 9.11887e-18 1 

-0.0900149 0.0637328 0.175413 
-0.0379256 -0.067477 0.57971 
-7.48604e-18 -2.90634e-18 1 

-0.197751 0.0143661 0.770812 
-0.390045 0.103124 0.423977 
-5.39143e-18 -5.00528e-18 1 

-0.0457932 -0.000755399 -1.77292 
-0.0306244 -0.073761 1.62095 
-8.5799e-18 -3.54492e-18 1 

-0.637888 0.0214516 0.696266 
0.188254 0.330677 0.434614 
-2.03926e-18 -2.12583e-18 1 

-0.0547977 0.167257 0.0525224 
-0.106931 -0.0213734 0.0124622 
2.60597e-18 -6.15584e-19 1 

-0.175684 -0.0297415 -0.64643 
0.115248 0.0951429 0.961442 
-5.09449e-18 3.64522e-19 1 

-0.406918 0.255706 0.248916 
0.11518 0.161065 -0.116846 
-7.97166e-18 1.99292e-19 1 

-0.221216 0.0391208 -0.0842437 
-0.253374 0.122796 -0.18815 
6.10539e-19 1.74004e-17 1 

-0.0632972 -0.0303905 -0.00147788 
-0.0324739 0.00959697 -0.231853 
7.77625e-18 -1.74392e-17 1 

-0.241234 0.18225 -0.853739 
0.0217035 0.122252 -0.0318408 
3.40975e-18 -3.45123e-18 1 

-0.0874089 0.00849941 -0.00759494 
0.0976929 -0.0141626 -0.965842 
9.78783e-18 8.66987e-19 1 

-0.0225765 -0.0559743 -0.139124 
0.0119753 -0.113845 -0.0202168 
1.0941e-17 3.0911e-18 1 

-0.0270957 -0.0342141 -0.108349 
-0.0579508 -0.0322054 -0.100147 
-2.0635e-17 6.11637e-18 1 

-0.109492 0.0332158 -0.249512 
0.0144149 -0.0132604 -0.398154 
-5.77545e-19 4.56498e-18 1 

-0.0452008 -0.129286 -0.158541 
0.146834 -5.11413e-06 -0.0667322 
-8.21277e-18 3.81989e-19 1 

-0.0347937 -0.0250346 -0.16884 
0.0904376 0.0460279 -0.0598328 
-6.69777e-18 -9.52747e-18 1 

0.0191503 -0.0337737 1.94588 
0.042939 -0.094948 0.831204 
-1.41557e-18 5.77251e-18 1 

-0.0398901 0.00301142 -0.186245 
-0.0212816 -0.016157 -0.13502 
5.5111e-18 -6.40545e-19 1 

-0.783817 0.168225 2.5099 
-0.384287 0.800937 1.09293 
-1.47132e-17 -1.52959e-17 1 

-0.59196 -0.167491 -1.7641 
0.117917 0.300357 -1.1298 
-7.4906e-18 1.00723e-17 1 

-0.0572265 -0.0216024 -0.128427 
0.0351129 -0.0771467 -0.0199601 
5.16799e-18 4.72776e-18 1 

-0.0624834 -0.00573012 -1.58209 
0.0308963 -0.0471206 -0.819564 
-3.66764e-18 3.06394e-18 1 

0.0120996 0.0188613 -0.154174 
0.000449729 -0.0840351 0.1459 
-4.87773e-18 7.18257e-18 1 

-0.0351038 -0.0588424 4.31304 
-0.000320752 -0.0225843 4.83003 
-1.27282e-17 -2.74121e-18 1 

-0.112269 0.0828699 -0.0479958 
-0.00471785 -0.019976 -0.470512 
-2.41527e-18 6.41771e-18 1 

-0.0712627 -0.036351 -0.0417001 
-0.00152229 -0.0502016 0.278036 
1.31614e-18 -7.60304e-18 1 

-0.0632845 0.0485616 -2.50025 
0.026137 -0.0326858 -1.43877 
3.04397e-18 1.03003e-18 1 

-0.0481328 -0.0181908 0.133189 
-0.000605993 -0.0688011 -0.0343306 
-7.49264e-18 3.73614e-18 1 

-0.254383 -0.109754 -1.96522 
0.356045 0.223277 0.525955 
2.97374e-18 1.23343e-17 1 

-0.192241 0.0968026 -0.0994048 
0.0820436 0.0627962 -1.27273 
-1.9733e-17 -3.1303e-18 1 

-0.0509122 0.0153731 -4.66411 
-0.0319469 -0.06542 2.08373 
1.28869e-18 7.09466e-19 1 

-0.497162 -0.0936485 -0.737006 
-0.49662 0.299845 2.40622 
8.98229e-18 -4.18863e-18 1 

-1.00253 -0.125851 1.25652 
0.340371 0.388265 -1.25086 
2.75465e-18 7.9833e-18 1 

-0.124612 0.212465 2.07923 
0.0149836 0.0426734 -4.62909 
-8.92815e-19 -5.26907e-18 1 

-0.163788 -0.0301903 0.356281 
-0.0155177 -0.0440169 0.145852 
-3.38985e-19 -8.31643e-18 1 

-0.0974909 -0.129107 0.376083 
0.157091 0.0671436 0.694508 
2.82228e-18 -1.10217e-17 1 

-0.0980886 0.0211845 0.314691 
-0.0392767 0.0697246 -0.774343 
4.92268e-19 -8.56254e-19 1 

-0.123862 -0.0753444 -0.904035 
0.144943 0.00501924 -0.717241 
7.70321e-18 2.53596e-18 1 

-0.602078 0.275914 0.289705 
0.0995938 0.00751402 0.253468 
-9.33576e-19 2.12277e-18 1 

-0.055054 -0.0125407 0.221481 
-0.00707386 -0.030495 -0.133346 
3.63305e-18 3.71203e-18 1 

-0.05659 0.023395 0.232267 
0.0379947 -0.0206884 0.00861169 
9.81133e-18 4.24097e-18 1 

-0.0308657 -0.0361537 0.0489961 
-0.00218913 -0.0973939 -0.465073 
4.44672e-18 -3.46431e-18 1 

-0.049258 0.0113924 -0.107893 
0.0123178 -0.10045 -0.25293 
-7.40647e-18 -1.76963e-18 1 

-0.0440473 0.0254242 0.0922623 
-0.0299797 -0.0764671 -0.0689496 
1.3333e-18 9.52725e-18 1 

0.0174523 0.0167087 0.0327267 
0.125069 -0.0821668 0.113004 
-5.67563e-18 -6.2515e-18 1 

-0.124569 0.0841305 0.296446 
-0.00940894 -0.0413643 -0.358968 
-6.07338e-18 -8.09784e-18 1 

-0.141237 -0.0677216 -2.69091 
0.0362168 0.078783 -1.79803 
-2.13378e-18 -1.35172e-19 1 

-0.187075 0.235439 0.422753 
-0.0861879 0.128002 0.789173 
1.32048e-17 3.30418e-18 1 

-0.0983072 0.0298595 0.0933931 
-0.0282163 -0.0486762 0.0554711 
6.02121e-18 2.19721e-18 1 

-1.14894 0.501234 2.39764 
-0.0608544 0.605929 0.130933 
-1.31583e-17 -8.59612e-18 1 

-0.0693019 0.00790843 0.0452746 
-0.021002 -0.0661573 -0.127094 
-8.45213e-18 5.27633e-18 1 

-0.0719736 0.00194907 2.26789 
-0.0447265 0.0244003 0.210562 
3.5806e-18 1.69927e-18 1 

-0.146152 0.0605585 -0.20912 
-0.00826846 -0.060702 -0.0207598 
9.30742e-18 1.33645e-17 1 

-0.0195923 0.09976 0.336818 
-0.116895 -0.0589683 -0.419534 
-9.48149e-18 -6.83816e-18 1 

-0.24473 0.095134 0.2604 
-0.1852 -0.00348597 -0.257278 
2.67026e-18 2.90641e-19 1 

-0.0508783 -0.0153216 -0.00170919 
-0.0232043 -0.0812116 0.0216652 
-4.003e-18 1.07285e-17 1 

-0.0627693 -0.0361266 -0.0944805 
0.0304284 -0.0795516 0.128896 
1.07561e-18 -2.15122e-18 1 

-0.136976 -0.131887 -0.10448 
0.0561674 -0.0591851 -0.31135 
-1.99303e-18 1.54167e-17 1 

-0.0566054 0.0319852 0.0526302 
-0.100797 -0.0809789 0.147214 
-1.68553e-18 3.03395e-18 1 

-0.105467 0.0224023 0.445211 
-0.0463385 -0.0319115 0.415572 
2.90337e-18 -5.5834e-18 1 

-0.208172 0.63071 -0.695993 
0.0917592 -0.095403 0.333786 
-1.10134e-18 -9.17278e-18 1 

-0.0507847 0.049358 0.638997 
-0.0438873 -0.0382954 -0.402517 
-2.33389e-18 3.0275e-18 1 

-0.376185 0.28347 -6.08659 
-0.164163 0.128603 -1.1386 
-4.68315e-18 -7.83711e-18 1 

-0.0644167 0.297634 0.704061 
-0.183632 0.0725568 0.854356 
3.61764e-18 -2.37522e-19 1 

-0.0783505 -0.107177 -0.00183392 
0.0670302 -0.0534174 0.0386969 
-9.9598e-18 -2.46272e-18 1 

-0.580883 -0.51153 -0.922116 
0.234022 0.296064 0.346991 
-1.47315e-17 -7.03892e-18 1 

-0.291021 0.177497 0.305588 
-0.0676466 0.170377 2.01064 
-1.31897e-17 4.96008e-20 1 

-0.313035 0.466555 -1.47766 
-0.360824 0.155446 -0.563269 
3.14477e-18 1.1105e-17 1 

0.0129222 0.124269 -2.02672 
-0.622864 0.382849 0.587052 
7.47704e-18 7.87057e-18 1 

-0.0448921 0.0206476 -0.25917 
0.0570772 -0.113402 -0.0479729 
1.34978e-17 -1.3628e-17 1 

-0.00633724 0.0622843 0.228396 
-0.0997994 -0.0812424 -0.315104 
-9.15089e-18 -6.07783e-18 1 

-0.103724 -0.00494692 -0.0505813 
-0.102119 -0.0356026 0.0972994 
-1.05191e-17 -4.39334e-18 1 

-0.103755 0.119527 0.387418 
-0.327479 0.102982 1.22855 
-5.65471e-18 6.47418e-18 1 

-0.0843553 -0.228171 -0.0523251 
-0.186551 -0.0411032 1.82899 
2.31625e-18 8.04253e-18 1 

-0.0789211 -0.00844421 -0.0148753 
-0.0711798 -0.0149413 -0.0266864 
8.72399e-18 2.15903e-17 1 

-0.357628 0.114594 0.508254 
-0.0820336 0.112728 -1.07852 
2.87691e-19 -5.15447e-18 1 

-0.155178 -0.10964 0.326882 
-0.221728 0.0434803 -0.566444 
-1.24409e-18 -1.31108e-17 1 

-0.0858564 0.0338219 0.111713 
0.0501744 -0.0273904 0.228011 
-2.22556e-18 3.89473e-18 1 

-0.0320732 0.023083 -0.166864 
-0.0607671 -0.0500425 0.0156632 
8.95178e-18 1.08688e-17 1 

-0.0524646 0.0230194 -0.0561001 
0.00858454 -0.0501114 -0.0283497 
4.04915e-18 -8.19187e-18 1 

-0.100526 0.106889 -0.171454 
-0.128793 0.0259025 0.054918 
2.65647e-18 -5.50021e-18 1 

-0.181528 -0.0589169 2.12637 
0.133531 0.0347878 0.632744 
2.65245e-18 5.67602e-19 1 

-0.077935 0.155007 -0.229125 
-0.0287718 -0.107572 0.561254 
-1.04244e-19 1.85554e-17 1 

-0.044071 0.0198088 -0.102347 
-0.054822 -0.0507047 -0.280197 
-2.30867e-18 -5.79852e-18 1 

-0.0987301 -0.0262363 0.0922399 
0.032113 -0.048959 -0.46986 
8.94873e-18 -2.4039e-19 1 

-0.0295299 -0.0339541 -0.210768 
-0.000709205 0.142276 0.471128 
1.23467e-18 -1.14369e-17 1 

-0.0352287 -0.0154 -1.0251 
-0.0118089 -0.0507254 0.802498 
-8.44902e-18 4.97478e-18 1 

-0.167118 -0.0231426 0.106223 
-0.0141282 0.0373407 -0.34088 
6.38809e-18 1.10441e-17 1 

-0.0382106 0.0562599 -0.112957 
-0.0609198 -0.0436728 0.066283 
2.32524e-18 -5.51752e-19 1 

-0.0547769 0.00069102 -0.00850875 
-0.0086179 -0.193693 0.214874 
4.8337e-18 -8.00199e-17 1 

-0.0274725 -0.14349 0.414119 
0.108861 -0.00445293 -0.0664228 
-2.52188e-18 3.32084e-18 1 

-0.29217 -0.116336 -0.787096 
0.23446 0.275458 -0.12165 
9.868e-19 -1.02234e-17 1 