# vtk DataFile Version 3.0
Output file generated by Yade's KinematicLocalisationAnalyser
ASCII
DATASET UNSTRUCTURED_GRID

POINTS 13483 float
640.242 27.7967 -0.509687
835.585 48.6281 -0.519922
125.338 6.0795 -0.442125
876.145 5.87003 0.261968
521.227 7.72984 -0.272035
327.226 34.9412 -0.466519
163.147 6.84598 0.433282
597.909 10.089 0.141853
517.969 22.55 0.146696
775.886 12.1716 -0.427983
219.157 8.9643 -0.104792
267.352 6.29195 -0.264681
692.564 28.3018 -0.189399
669.621 13.9273 0.0756474
142.843 17.0948 0.434445
230.603 34.3499 0.405451
226.652 12.9338 -0.286805
300.454 9.5466 0.386335
354.451 32.5921 -0.297486
548.48 8.53278 0.354427
427.748 36.3523 -0.114661
622.429 43.6776 0.255615
873.435 35.4615 0.4731
747.273 41.1491 -0.468039
478.213 16.0191 0.302563
250.737 44.0918 0.132699
512.966 27.1815 -0.49136
615.868 19.3393 0.211812
47.1466 15.5011 -0.424551
770.373 31.3357 0.0887343
503.235 4.91869 0.316225
17.3498 23.1366 -0.286804
849.564 45.1932 0.293759
516.937 2.47773 0.484427
81.4665 44.172 0.100311
545.32 29.9857 0.32989
555.09 16.5934 -0.402662
357.755 22.4266 -0.174448
558.566 25.2564 -0.321341
365.077 32.8593 -0.444236
250.866 14.6476 0.315431
452.329 35.4969 0.0698854
721.746 7.06702 -0.12531
200.967 6.208 0.374332
57.9086 6.90717 -0.127015
71.4993 8.90402 -0.270759
739.882 8.38414 -0.462287
24.5749 11.668 -0.282363
644.17 44.0851 0.332704
723.959 22.9429 0.335366
180.117 32.1798 -0.299809
831.01 35.7629 -0.16032
36.6233 27.9415 -0.114286
559.173 2.96476 0.322218
148.283 7.30865 -0.465819
625.017 33.0378 0.418757
526.912 26.4526 -0.150288
182.367 0.932799 -0.269307
34.1906 2.37055 0.320464
362.904 17.6691 0.28235
656.404 44.8239 0.141364
482.114 33.2906 0.178688
416.235 1.02824 0.195525
752.3 7.62861 -0.318119
27.8137 42.7971 -0.234888
266.992 30.4129 -0.315269
775.908 7.56788 0.204545
715.245 43.2753 0.367682
435.397 8.57441 -0.490552
598.721 3.52212 -0.346732
808.689 29.8995 0.441361
136.494 7.59004 0.285964
520.753 25.4807 -0.137849
498.703 14.7473 -0.145057
306.821 16.645 -0.332053
21.745 13.6261 -0.263894
857.387 35.1551 0.385723
346.634 38.6187 -0.280623
720.698 19.7352 0.347348
739.822 12.4164 0.214622
862.229 11.8943 -0.250763
485.673 34.1569 -0.170124
96.4919 38.1358 -0.263973
733.734 33.5456 0.213726
688.807 38.0582 -0.111814
881.073 41.2167 -0.127836
855.855 0.71619 -0.553632
303.497 28.7227 0.456849
658.078 6.31077 -0.119574
25.422 5.19257 -0.46751
138.841 37.988 -0.160683
537.048 14.3113 0.205405
848.713 27.9619 -0.494777
204.155 28.5521 0.226214
46.4907 34.1772 0.284632
515.829 1.15579 0.122834
246.092 8.9285 -0.360048
811.416 39.1308 0.259937
835.47 28.5927 0.219285
377.268 20.6094 -0.256731
171.572 26.6479 -0.4689
578.148 37.9253 0.417831
396.985 15.3412 -0.433957
432.03 29.4692 0.125976
395.13 4.44521 0.411999
576.122 10.8471 -0.0942158
880.091 12.4581 0.196747
83.8049 39.1346 0.389509
350.322 4.81723 -0.183284
591.15 9.48025 -0.349574
376.463 43.3764 0.448321
27.0636 24.5234 -0.460057
31.8673 5.79759 -0.328725
599.767 31.9649 -0.449501
529.987 24.0181 0.139373
27.6092 36.7548 0.41018
97.5313 30.5048 -0.220571
339.929 15.8774 -0.30086
635.413 18.5376 0.115959
498.335 37.5122 0.312589
794.827 7.46249 -0.374295
786.345 6.29157 -0.224974
405.167 37.014 0.0964469
676.461 25.1445 -0.102097
249.508 16.9048 0.473085
345.364 3.70721 0.462197
108.537 31.3023 0.374384
122.06 24.0563 -0.266087
573.253 38.1755 0.0750429
320.379 18.8213 0.47369
765.859 34.396 0.0989856
719.312 42.4916 -0.11041
504.608 20.4195 -0.370019
839.523 12.1282 0.319621
449.668 23.196 0.22035
290.048 24.308 0.298393
722.143 29.8875 -0.243685
292.257 28.3639 0.375679
609.832 11.4413 -0.199028
347.692 35.2972 0.195158
531.117 11.4212 0.464243
384.633 31.229 0.0970697
451.965 16.6041 -0.106005
333.617 41.8133 -0.303387
200.29 29.6181 0.128922
841.265 46.4306 0.173227
876.457 13.4714 -0.320672
6.3419 12.134 -0.469604
456.003 22.2906 -0.420627
40.3439 22.3858 0.0753386
395.133 31.008 -0.462705
414.961 24.6714 -0.262163
78.7471 11.8763 0.488665
54.4565 33.1064 -0.430875
237.223 13.2973 0.446629
657.986 37.6717 0.477456
612.292 20.2067 -0.454165
78.8887 20.802 0.489453
750.223 44.8086 0.424817
825.521 3.40792 0.574369
707.184 39.8545 -0.459881
747.438 2.36853 0.372388
582.583 26.2717 -0.280047
624 44.2926 -0.434167
540.902 17.6573 -0.411331
873.756 3.18157 -0.451682
235.171 24.5435 0.11254
134.413 34.9248 0.193443
260.007 6.57447 -0.378404
99.5612 4.18391 0.262039
67.7328 10.1244 0.19073
290.133 35.745 0.308435
17.4713 25.0541 -0.379332
588.895 19.26 -0.387077
644.026 38.9967 0.207311
487.774 20.9306 -0.37462
865.949 46.079 0.390999
428.323 8.52245 -0.0991073
459.122 35.5762 -0.36055
567.957 3.43441 -0.189133
24.1312 23.876 0.389272
612.853 4.4317 -0.348975
578.279 4.34001 -0.287724
217.325 11.4571 0.486378
447.954 16.3357 -0.191185
327.706 6.2863 0.332711
408.795 18.8527 -0.329846
797.921 41.1504 0.106711
202.578 25.5237 0.423894
847.875 6.69485 -0.34444
797.145 37.1511 0.415557
403.923 10.1634 -0.174583
772.901 2.41038 -0.440528
644.216 25.3654 0.396335
802.437 17.7066 -0.3747
454.23 42.3541 -0.276311
525.129 12.4973 0.34171
491.181 43.6366 -0.222036
470.043 8.6296 0.119378
710.737 38.564 -0.282035
708.283 35.1827 0.382807
202.821 38.8182 -0.33231
860.129 11.3685 -0.115991
625.919 44.4423 -0.232351
11.9324 16.9218 0.1789
429.614 25.1229 0.379569
197.618 22.9975 0.405976
98.1592 39.0236 0.201071
845.025 25.0501 0.467774
704.193 43.9721 0.236025
336.299 25.398 0.347182
564.666 10.1506 0.318038
86.7626 44.27 0.165136
261.088 25.9419 -0.484837
591.808 23.4445 0.346297
514.504 18.3821 0.44255
277.067 0.886825 -0.343047
587.747 39.5018 -0.371052
566.387 40.2064 -0.467093
509.925 32.7715 0.395597
528.404 0.795825 -0.504821
758.744 18.221 -0.337912
189.617 11.9918 -0.182514
529.913 35.8863 0.452103
600.682 39.4855 0.132992
76.9605 0.943271 0.274983
265.499 4.71778 0.173936
875.583 15.393 0.191085
861.845 13.9821 -0.494133
881.143 17.9646 -0.469019
320.004 8.55682 -0.233288
809.596 21.8646 0.386297
429.687 41.2804 -0.371232
474.356 0.814457 -0.398623
695.419 35.2814 0.579772
28.673 30.4362 0.312738
348.826 41.1083 0.490038
266.366 2.85069 0.321301
854.554 42.7579 -0.0414285
769.902 46.6418 0.238284
303.12 10.8988 0.220678
714.995 28.3981 0.0896383
592.93 2.6656 0.295665
575.99 6.41395 0.417056
102.358 18.2693 -0.48227
319.84 1.03197 -0.223222
362.29 2.27666 -0.358308
14.7596 7.62481 -0.329474
4.64702 30.6518 0.251205
171.075 18.8135 -0.383215
72.1409 41.3818 -0.211446
70.6384 28.5618 -0.326915
447.631 14.4605 -0.428084
387.639 34.9779 -0.46568
828.724 37.6381 0.140693
20.657 4.03143 0.26798
74.633 6.8846 0.122372
668.128 36.8236 -0.173478
310.975 0.914029 0.354041
385.49 16.0133 -0.0910456
248.824 4.67339 -0.373218
700.008 21.1602 0.182773
477.652 8.30436 0.408754
812.741 19.6427 -0.370647
675.585 28.4518 0.317301
719.806 17.8438 0.0782169
444.097 26.6182 0.482782
108.042 44.5762 0.306719
576.947 41.7075 0.0734687
800.22 13.197 0.208989
251.228 30.2308 -0.262754
34.0162 17.002 -0.188486
355.24 13.6766 0.50029
113.976 40.0972 -0.471438
282.812 42.0073 -0.202771
449.885 1.09575 -0.230134
854.319 31.7209 0.420208
739.824 0.794869 -0.500307
350.903 3.19715 0.521011
316.938 26.4664 0.141544
489.956 40.5148 0.209516
86.2163 7.97622 0.41351
209.252 44.7678 0.377693
838.381 31.1525 0.433425
524.838 38.6597 -0.0882116
211.66 41.3148 -0.259634
170.402 41.9576 0.0610155
881.174 35.5845 -0.619186
878.548 13.1369 -0.574496
647.677 3.50309 -0.497842
201.177 24.414 -0.0972732
584.606 27.4048 0.113101
586.617 27.1172 -0.269199
433.02 5.59545 -0.139504
510.596 0.929377 -0.284418
826.541 39.2502 -0.483682
90.0058 30.8667 0.211509
706.131 18.2229 0.420116
289.981 15.4964 -0.350783
10.3758 2.30842 0.348139
132.966 36.7241 0.190143
71.0493 22.9504 0.479097
758.412 35.8746 0.331067
856.649 52.7021 -0.0131858
196.461 28.21 0.186749
871.679 13.0017 0.464712
47.7956 36.2621 -0.250079
96.3667 28.8538 -0.167676
679.897 12.9042 0.481529
437.57 18.1602 -0.474447
551.731 16.6113 0.113552
251.824 28.2677 -0.186048
665.474 4.48944 -0.396589
882.729 12.3104 0.389881
31.655 31.4707 -0.272363
285.623 7.7347 0.189693
235.042 15.0634 0.274976
1.10419 35.2354 0.148161
238.278 14.5154 0.39049
224.095 11.0498 0.10527
226.909 26.328 -0.289864
141.01 27.6851 -0.133351
582.909 14.9782 -0.342164
177.159 14.1292 0.326513
848.285 43.8204 -0.23866
184.463 3.79002 0.508687
50.203 37.921 0.37969
804.305 47.8148 -0.426517
297.309 31.5888 -0.38966
730.546 21.8383 0.476304
863.798 31.741 -0.518375
318.059 9.19033 0.103437
795.827 29.1323 -0.3245
347.702 2.60102 -0.374893
440.668 23.9166 -0.353289
726.294 15.941 -0.421227
111.906 11.8492 -0.44498
512.316 3.90265 -0.474955
815.892 18.5423 -0.160272
93.669 7.71193 -0.205309
297.933 14.6359 0.197874
448.465 11.6487 -0.199532
873.11 2.24231 0.643562
421.292 1.94051 -0.526578
187.547 38.57 -0.297553
803.212 10.2271 -0.372441
136.25 36.0185 0.194326
278.205 31.2705 -0.399189
424.184 21.4563 0.21079
612.309 13.2724 -0.33126
409.954 9.76839 -0.478012
483.887 27.3883 -0.311034
836.698 48.3036 0.39381
50.4704 10.9098 -0.110505
316.573 38.3114 -0.260873
401.893 26.8842 0.350141
433.932 20.8018 0.253528
554.349 43.9819 0.3565
819.973 36.5097 0.259613
714.22 34.1104 -0.375684
239.272 34.105 -0.391491
14.8207 31.2757 0.161788
706.713 36.2979 -0.136623
540.935 40.6116 0.411601
242.991 39.1959 -0.104347
737.261 30.1082 -0.166033
160.344 9.20351 0.214506
388.204 21.1384 0.323847
491.783 41.5544 0.100215
438.62 19.4927 0.205496
832.237 49.8679 -0.291126
451.413 3.43265 0.432383
52.8201 25.0793 -0.304263
498.755 31.2426 0.341169
460.956 41.5781 0.377264
851.597 38.2082 -0.223301
793.032 27.9379 -0.247143
576.413 18.317 -0.206947
842.167 39.939 0.484415
310.488 2.20208 -0.462386
400.625 29.3491 0.484809
30.8629 38.495 -0.293802
798.828 29.784 0.20791
652.478 19.333 -0.478996
491.136 0.768973 -0.479906
133.938 4.48079 0.282103
452.322 39.8383 -0.113038
12.8785 0.89895 -0.318589
871.582 6.39441 0.212501
392.135 38.9576 -0.397911
653.706 7.29804 -0.397791
[...]
POINT_DATA 13483
TENSORS Strain_matrix float
-0.135307 -0.0406264 1.88136 
0.0223398 -0.00423913 0.383288 
4.02692e-19 -3.66083e-19 1 

-0.201457 -0.327178 12.2522 
0.106338 0.272699 -5.76391 
2.88977e-18 -1.11881e-17 1 

-0.0952445 0.00651599 -0.085303 
-0.0165352 -0.0473246 0.142981 
-6.46913e-18 1.14142e-17 1 

-0.664068 0.0609523 -0.324775 
-0.104529 0.166626 -0.0715784 
-1.03497e-17 8.95066e-18 1 

-0.131545 -0.0119098 -0.0153001 
-0.00230131 -0.00530001 -0.268129 
-9.626e-18 3.08834e-18 1 

-0.0736409 -0.00739119 -0.697647 
0.00699636 -0.0195558 0.0322907 
2.78986e-18 -4.97629e-19 1 

-0.0965839 -0.0368738 0.0838587 
0.00568836 -0.0718067 -0.00483227 
-8.99376e-18 1.37405e-18 1 

-0.0757953 0.0372942 -0.0694367 
0.0135012 -0.0573174 -0.0306348 
-9.04564e-19 -8.31213e-18 1 

-0.0684514 -0.00494005 -0.337622 
0.103032 -0.0275697 -0.25732 
-1.90939e-19 8.14673e-18 1 

-0.180966 -0.0147162 0.150571 
0.0352663 -0.00380896 0.211837 
-4.18563e-19 -2.74528e-18 1 

-0.0629758 0.016718 -0.188052 
0.00672999 -0.0643257 0.118444 
-1.08576e-17 5.47997e-18 1 

-0.0856142 -0.0320039 0.191297 
-0.0793401 -0.0991591 0.0602571 
2.67528e-18 -7.74422e-19 1 

-0.130717 0.124732 -0.0197833 
-0.143094 0.0387705 -0.273834 
-1.4212e-18 -3.54123e-18 1 

-0.131317 0.000319746 -0.260683 
-0.001997 -0.0444557 0.201168 
-5.67172e-18 6.76816e-19 1 

-0.0982383 -0.00130924 -0.157565 
0.000708454 -0.0610376 0.111775 
5.61894e-18 5.87851e-18 1 

-0.0683257 -0.0319611 0.460498 
-0.042961 -0.0263444 0.118531 
-4.32071e-18 1.14372e-18 1 

-0.0572973 -0.0128115 0.135454 
-0.0103633 -0.110217 -0.0129936 
-5.27313e-18 7.41633e-18 1 

-0.135962 -0.0100749 -0.0495471 
0.0147016 -0.0709389 -0.00197846 
-4.5876e-18 5.45363e-18 1 

-0.107919 -0.06478 -0.0577755 
-0.0328798 0.00817756 0.159398 
-5.05641e-18 1.38338e-17 1 

-0.103714 0.0214813 0.215076 
-0.0684981 -0.0669152 0.163403 
3.62406e-18 -2.87729e-18 1 

-0.110865 -0.00656685 -0.144657 
-0.0113692 0.00951631 -0.343026 
8.05729e-18 -2.24705e-18 1 

-0.16592 -0.0368891 0.287006 
0.0180776 0.0262679 0.373041 
4.14335e-18 9.82356e-18 1 

-0.711867 0.486804 -0.119477 
-0.26127 0.410775 -1.38789 
1.24784e-19 -4.2041e-18 1 

-0.138663 -0.00331707 -0.212482 
-0.0458201 -0.0170789 0.648173 
1.26604e-17 -1.18884e-17 1 

-0.0622496 -0.0241644 -0.237304 
0.0709769 -0.0385707 0.0610522 
-2.94356e-18 -5.92433e-18 1 

-0.143992 0.067053 -0.0525351 
-0.0527727 0.0408959 0.000613494 
3.70945e-18 -9.11094e-18 1 

-0.0882613 -0.00714954 0.829464 
-0.0022114 -0.0112894 0.467054 
1.24525e-18 -6.13398e-18 1 

-0.126256 -0.0480865 -0.13208 
0.0104057 -0.0291883 -0.175919 
-7.67074e-18 -7.51525e-18 1 

-0.0827534 0.0290775 -0.445898 
0.0221357 -0.074706 -0.274523 
9.43015e-18 -5.14746e-19 1 

-0.267957 0.0159318 -0.767114 
0.0622913 0.0818165 -0.0305232 
-9.77171e-18 -2.59589e-18 1 

-0.0652948 -0.0154388 -0.247158 
0.0201537 -0.149482 0.404395 
-4.32063e-19 -1.02071e-18 1 

-0.114678 0.0229871 0.0684499 
0.100512 -0.0320443 -0.045032 
1.65326e-17 -3.30652e-18 1 

-0.134373 -0.300642 -0.437222 
-0.100595 0.0955149 1.45646 
2.78526e-18 -3.40061e-18 1 

-0.110491 0.0448715 -0.219047 
-0.00286626 -0.00840689 0.13614 
1.98412e-18 -3.21562e-17 1 

-0.0410901 -0.0334312 -0.0736762 
-0.024455 -0.112707 -0.266927 
-1.38569e-18 -1.35852e-17 1 

-0.0915216 -0.0362923 -0.19104 
0.0307226 -0.0216882 0.576268 
5.20833e-18 -3.02302e-18 1 

-0.0772961 0.00246571 -0.157322 
0.0101584 -0.0448906 -0.259908 
-8.10485e-18 -6.38564e-19 1 

-0.0469815 0.00187699 -0.272215 
-0.0151075 -0.0392866 0.52735 
-1.07896e-17 4.06975e-18 1 

-0.0831999 -0.0319528 0.0768565 
0.0884119 -0.0316689 0.0778788 
-3.25769e-18 -3.73676e-18 1 

-0.0892383 -0.0359646 0.049974 
0.00641107 -0.0227099 -1.03803 
-8.37379e-18 -4.92896e-19 1 

-0.0696589 0.0339628 -0.00026665 
-0.0261237 -0.0890379 -0.16693 
-5.18675e-18 1.80854e-18 1 

-0.0507014 -0.0269517 0.320017 
-0.0751604 -0.0366386 0.156312 
1.27493e-18 -8.43416e-18 1 

-0.222268 -0.00249863 -0.0305217 
-0.0788899 -0.0161953 0.059419 
9.14869e-18 2.68914e-18 1 

-0.0546958 -0.0334888 0.445077 
-0.000441375 -0.0824395 -0.0510504 
9.69004e-18 -4.72536e-18 1 

-0.0669709 0.0202462 -0.0201894 
-0.0243767 -0.101297 0.150982 
1.55678e-17 7.15891e-18 1 

-0.0615742 -0.000562109 -0.00903539 
-0.0213672 -0.0618602 -0.0154003 
-1.20093e-19 -1.22276e-18 1 

-0.14823 0.0425628 -0.0468239 
-0.0193146 -0.0638201 -0.852958 
5.43597e-18 -6.10711e-18 1 

-0.0632087 0.00620873 -0.00147208 
-0.0277606 -0.0642594 0.0159421 
8.42582e-18 6.66018e-19 1 

-0.122931 -0.0263064 -0.174684 
0.0335024 0.00618426 -0.0188171 
1.75229e-18 5.47591e-20 1 

-0.0798601 0.0768497 0.910934 
-0.0759492 -0.0350497 -1.70406 
-7.87434e-18 1.49395e-18 1 

-0.0882252 -0.0532615 0.22772 
0.000260397 -0.0152256 -0.0628203 
-1.40769e-18 1.53566e-18 1 

-0.158684 -0.142137 -0.340357 
0.0869885 -0.034451 -0.188404 
9.0441e-18 6.36977e-18 1 

-0.0958828 -0.0240467 -0.0426434 
0.0271842 -0.0175953 0.0942527 
2.82956e-18 2.38278e-19 1 

-0.105203 0.0388964 0.0734467 
-0.0199748 -0.0517107 0.000936665 
3.71411e-18 -9.87752e-18 1 

-0.0839744 -0.00436932 -0.115278 
0.019881 -0.0985324 -0.0300343 
-1.18713e-18 3.71785e-18 1 

-0.113438 -0.0108851 -0.823541 
-0.0157501 -0.0124297 -0.0766889 
5.59099e-19 5.21049e-18 1 

-0.128855 -0.0221466 -0.0252325 
0.015391 -0.0208439 0.110022 
8.79059e-18 3.10537e-19 1 

-0.0838076 -0.150878 -0.133141 
-0.0030258 -0.0848446 0.0766338 
-1.01253e-18 -2.44697e-17 1 

-0.0436469 0.00129432 -0.00771256 
-0.0303139 -0.133518 0.101525 
-8.45055e-18 1.04185e-18 1 

-0.064634 0.00999171 -0.00959864 
-0.0638565 -0.0800774 0.022708 
-2.28839e-17 -2.9604e-20 1 

-0.103248 0.212655 0.0474608 
0.0456049 0.125656 -0.286814 
2.80979e-18 1.95315e-18 1 

-0.0784089 -0.0588191 0.208126 
0.0194988 -0.00834843 0.476125 
1.18523e-17 7.80657e-18 1 

-0.0875759 -0.0860565 -0.298643 
-0.0101797 -0.0435458 -0.0885487 
-9.82648e-18 -2.62059e-17 1 

-0.0989568 -0.0305492 0.0726404 
0.0304196 -0.0563956 -0.132133 
8.47961e-18 8.4744e-18 1 

-0.0981986 0.00926052 0.166496 
-0.00862724 0.019114 -0.0103535 
6.67704e-18 2.36104e-17 1 

-0.174943 0.0322651 -0.140199 
-0.00919854 0.00115226 0.207762 
1.0353e-17 -1.15855e-18 1 

-0.158709 0.0849084 0.0593228 
0.0458386 -0.0812397 0.0850563 
9.38773e-18 2.36994e-18 1 

-0.147204 -0.000814688 -0.00355083 
0.0149789 0.0352536 0.443337 
3.78211e-18 1.70786e-17 1 

-0.0964527 -0.00176647 -0.596312 
-0.0372217 -0.084489 -0.712116 
-1.10309e-17 2.63424e-20 1 

-0.137206 -0.0131945 0.0540811 
-0.0273642 -0.0855286 0.069468 
1.08702e-17 -3.35308e-18 1 

-0.290075 -0.165843 0.400507 
-0.121267 -0.162939 0.335596 
2.25892e-17 8.11896e-18 1 

-0.0469184 -0.00839384 0.0335125 
-0.00106148 -0.0864455 0.100411 
2.69148e-18 6.10191e-18 1 

-0.0622998 -0.0589927 -0.238825 
0.0147132 -0.0467503 0.0945897 
1.18221e-17 3.67222e-18 1 

-0.0727746 -0.0463443 0.101145 
-0.00720249 -0.067454 -0.152619 
5.62271e-18 6.72803e-19 1 

-0.0907942 -0.00854167 -0.532231 
-0.00674552 -0.0516126 -0.194337 
7.48547e-18 1.29578e-18 1 

-0.0600425 -0.0254293 0.0125352 
-0.013816 -0.0915154 -0.0551912 
1.95005e-18 -4.23811e-18 1 

-0.171889 0.222263 0.0867739 
-0.120611 0.0374611 0.468799 
2.21977e-17 7.6514e-18 1 

-0.0850173 0.0415436 -0.450976 
-0.0624529 -0.0363436 0.342738 
7.63796e-19 -6.40134e-18 1 

-0.100301 0.0310228 0.697997 
0.0873121 -0.0686641 -0.0993926 
-3.80884e-18 -2.54747e-18 1 

-0.121789 0.0786112 0.0846237 
-0.0235037 -0.031111 0.0704505 
-7.11845e-18 -1.73621e-19 1 

-0.48625 -0.197081 -0.173768 
-0.0422939 0.153716 -0.410101 
3.21643e-17 -6.05445e-18 1 

-0.0424782 -0.0342337 0.028571 
0.0438169 -0.0170584 0.114367 
-7.38995e-18 9.86423e-20 1 

-0.0331339 0.0160089 -0.127537 
-0.0235105 -0.00845324 -0.31248 
1.72302e-18 8.16648e-18 1 

-0.0857296 -0.00070803 -0.00158173 
-0.026425 -0.0386169 0.0972078 
-7.20382e-19 9.01881e-18 1 

-0.121961 0.0215586 0.397574 
-0.0943744 -0.0195181 0.408738 
-2.68009e-18 -1.34713e-17 1 

-0.547328 0.0974645 1.2114 
-0.158841 0.310226 0.386563 
5.20858e-18 -1.30847e-17 1 

-0.379319 1.38759 1.06031 
0.017811 0.201089 -1.79429 
1.25484e-17 -4.10116e-17 1 

-0.103246 0.0264343 0.144741 
0.0590249 -0.0934733 -0.186616 
-4.01398e-18 8.0402e-18 1 

-0.145308 0.0167402 -0.0674669 
0.0866488 -0.0398141 -0.0232179 
1.4055e-18 7.48701e-18 1 

-0.0951492 0.0256921 0.315707 
0.013995 -0.0819248 0.696298 
2.51864e-18 7.46907e-18 1 

-0.0707925 -0.0300133 -0.127497 
-0.0157821 -0.0674137 0.128173 
-8.79326e-18 6.79479e-18 1 

-0.0836556 0.0183933 0.018994 
0.0373907 -0.0678973 0.210591 
3.86469e-18 -8.30409e-18 1 

-0.412546 0.227895 8.14587 
-0.0742546 0.105195 2.06992 
3.07255e-18 6.66457e-18 1 

-0.113478 -0.0252319 -0.0111741 
-0.022072 -0.0115286 0.0794244 
-1.08183e-17 -1.38474e-18 1 

-0.0705822 0.023125 0.230801 
0.0287796 -0.00485978 0.374015 
-2.63857e-19 6.62419e-18 1 

-0.0962007 0.113244 -0.219954 
-0.000450036 0.130242 -0.304454 
-3.18455e-18 -6.76705e-17 1 

-0.0948173 0.0241139 0.0751349 
-0.031103 -0.0487041 -0.0803239 
-6.06236e-18 -1.4824e-17 1 

-0.269228 0.277154 -0.0778829 
0.0222285 0.121729 -0.291386 
4.81246e-19 3.31525e-18 1 

-0.343997 0.192502 1.08688 
0.167563 0.247402 -0.495209 
-9.91049e-18 -7.13072e-18 1 

-0.0429028 0.0108406 -0.0554163 
-0.0333176 -0.0492924 -0.0579479 
5.4537e-18 3.23342e-18 1 

-0.0779183 -0.00588355 -1.07164 
0.0100782 -0.0407891 -0.300263 
-4.10146e-18 8.06326e-18 1 

-0.1202 -0.0369213 -0.811117 
0.0111668 -0.00934941 -0.44576 
1.04985e-18 1.24149e-18 1 

-0.0862644 0.00771196 -2.57984 
-0.00408695 -0.0419471 1.11739 
7.00022e-18 -2.7058e-18 1 

-0.132914 -0.0657936 -0.0841973 
0.00708536 -0.0212284 -0.108689 
1.34464e-17 1.48057e-18 1 

-0.0782671 -0.0254734 -0.0790335 
0.0132071 -0.0793873 0.508024 
-1.07147e-17 -1.95113e-18 1 

-0.0945878 0.00779954 0.191842 
0.0402768 -0.0530799 0.0452306 
5.88314e-18 -5.59806e-18 1 

-0.465626 -0.0402221 0.197948 
-0.0551017 0.0357263 0.0620602 
-6.9849e-18 -1.98465e-17 1 

-0.0796713 -0.00280135 -0.424643 
-0.0274874 -0.0251969 -0.741349 
-2.36158e-18 -8.59273e-18 1 

-0.106807 0.0339582 0.0915873 
0.0201583 -0.101041 -0.0236928 
7.33786e-18 4.64422e-19 1 

-0.125355 0.0120865 -0.387592 
0.0227485 -0.0690747 0.079189 
5.40371e-18 5.36566e-18 1 

-0.105527 0.0531522 0.606015 
0.0320292 -0.0319881 0.544833 
-3.69515e-18 -7.78486e-18 1 

-0.0806601 0.0129755 -0.13901 
0.0161928 -0.055532 -0.0249587 
-3.88951e-18 -7.35177e-18 1 

-0.0659089 0.00463057 -0.0791898 
-0.00806646 -0.0830129 0.0661031 
1.11411e-18 -7.27654e-18 1 

-0.146785 -0.0173155 0.984883 
0.0397614 -0.00362597 -0.112104 
2.43273e-18 -3.12853e-18 1 

-0.114288 0.0347518 -0.0542239 
-0.0446003 -0.00258414 0.0898883 
-1.0564e-17 -4.63849e-18 1 

-0.0656801 -0.00338827 0.414057 
0.00404536 -0.0199941 0.820574 
1.90425e-18 1.58688e-18 1 

-0.0603193 -0.00160303 -0.0156113 
0.00451609 -0.0299121 -0.0360613 
2.719e-18 3.78718e-18 1 

-0.0667804 0.026286 -0.0501252 
0.0533352 -0.0568608 -0.0884236 
8.00512e-18 -6.32816e-18 1 

-0.0966621 0.0156783 0.0134717 
-0.0841465 -0.0665329 0.0153655 
1.12781e-17 1.33495e-17 1 

-0.0996046 0.00655095 0.0333049 
0.0117804 -0.000538578 0.107709 
-4.52985e-20 -7.64928e-18 1 

-0.162281 -0.0282374 -0.132179 
0.0576312 -0.0930676 -0.0905153 
2.11896e-18 -5.02273e-18 1 

-0.239992 0.0665258 0.0236301 
-0.0333967 0.00886217 0.527614 
-1.50338e-17 -1.31064e-17 1 

-0.060253 0.0140954 0.0290843 
-0.0425139 -0.00181267 -0.108127 
-1.78866e-18 9.25167e-18 1 

-0.143535 0.101387 0.228044 
-0.0158922 0.0364025 0.0939113 
-7.16666e-18 -9.89871e-18 1 

-0.0733292 0.01257 0.860055 
-0.00846283 -0.0691404 0.0927047 
-5.25944e-18 3.02507e-18 1 

-0.0810167 0.03589 -0.157822 
-0.0219226 -0.127318 -0.0726929 
3.25293e-18 -9.81528e-18 1 

-0.0920447 -0.0171766 0.119658 
-0.0160846 -0.0366365 0.0798803 
3.79497e-18 9.44871e-18 1 

-0.10722 0.0098048 -0.170246 
-0.0629232 -0.029452 -0.862925 
-3.15004e-18 2.80879e-18 1 

-0.0556506 -0.0555621 0.034729 
0.0324014 -0.035928 -0.0733 
1.18518e-19 -1.08444e-18 1 

-0.0798091 0.00360035 0.0514744 
-0.0141149 -0.0653264 -2.14338 
-7.87162e-18 -3.63764e-19 1 

-0.163357 -0.0637714 0.463279 
0.0473142 0.0668995 -0.196738 
2.61797e-18 -5.12212e-18 1 

-0.241881 0.125709 -0.0346865 
-0.0422063 0.0801537 0.38428 
3.63917e-18 -1.191e-17 1 

-0.0759005 0.0251361 -0.0894697 
0.0192453 -0.00798244 0.61814 
-1.83159e-19 1.11465e-17 1 

-0.514582 0.373132 0.398385 
0.0471648 0.0909136 0.110053 
1.93329e-18 1.0821e-17 1 

-0.0936381 -0.00903068 0.10827 
-0.0538009 0.0479349 -0.202666 
7.18368e-18 -1.26294e-17 1 

-0.0596182 0.0305609 -0.186208 
-0.0155898 0.0255774 -0.636055 
1.30864e-18 3.90076e-19 1 

-0.122025 0.0128187 -0.040729 
0.0620197 -1.88122e-05 0.0768095 
-2.95134e-18 -1.22973e-19 1 

-0.0763119 -0.0107867 -0.2217 
0.0292514 -0.0273999 -1.23461 
3.73295e-18 -3.95444e-18 1 

-0.0936216 -0.0644848 -0.0901515 
0.00893735 -0.069006 0.140822 
-5.2452e-18 6.04159e-19 1 

-0.0562674 -0.0448084 0.0194574 
-0.0238539 -0.0677196 -0.0818559 
-5.79809e-18 1.6566e-18 1 

-0.113391 -0.0237616 0.241944 
0.0137706 -0.0329172 -0.0454302 
-1.527e-18 7.63502e-18 1 

-0.0621486 -0.0565965 -0.016809 
0.0824596 -0.0226269 0.0409224 
3.82583e-18 7.02588e-18 1 

-0.0792097 -0.0416275 0.107701 
0.00473118 -0.0379498 -0.112355 
-4.29468e-18 6.30947e-18 1 

-0.0605842 -0.0171187 0.00806967 
0.0222137 -0.0165529 -0.0701976 
3.90841e-18 -9.19626e-19 1 

-0.0473848 0.0141691 -0.201386 
-0.0279665 -0.0257896 0.0350698 
3.5063e-18 2.42148e-18 1 

-0.114108 -0.255422 -0.411514 
0.241803 0.0473426 0.133177 
6.51794e-18 -1.10988e-17 1 

-0.310703 -0.0609846 0.686823 
0.0200559 -0.0795291 -0.138236 
-4.50619e-18 8.92314e-19 1 

-0.0618724 0.00842208 0.289075 
0.000415452 -0.105071 0.496249 
4.97267e-18 1.44434e-19 1 

-0.101831 -0.00761413 -0.0941157 
-0.00324875 -0.0398256 -0.0427432 
4.51953e-18 3.29803e-18 1 

-0.0501893 0.0307811 0.0823233 
0.0113588 -0.0223086 0.143704 
-9.00214e-18 6.64627e-18 1 

-0.0834778 -0.0252694 -0.243392 
0.00318021 -0.0171036 0.983024 
2.47283e-19 -5.6875e-18 1 

-0.134922 0.00763397 -0.107287 
-0.0391047 -0.0226608 0.150509 
1.52925e-17 -8.78462e-18 1 

-0.0924783 -0.0489426 0.819967 
0.0164308 -0.05691 -0.23915 
-3.11878e-21 2.03247e-18 1 

-0.0940936 -0.0040275 0.116609 
0.00597442 -0.0110849 -0.0883164 
6.53834e-19 -2.03521e-18 1 

-0.112183 0.00533763 0.626902 
0.00129852 -0.05699 -0.0437686 
6.89249e-18 7.0322e-18 1 

-0.191043 -0.074517 -0.583858 
-0.0177862 0.0375716 -0.0179154 
-1.16756e-17 -1.91608e-18 1 

-0.186113 -0.0148699 0.522503 
0.074068 0.078582 -2.72904 
-4.08579e-19 5.82332e-18 1 

-0.076077 0.00169037 3.66491 
-0.00566121 -0.0280487 2.31439 
3.82728e-18 -3.25522e-18 1 

-0.140132 -0.059778 0.62822 
0.0327992 0.130268 1.39865 
1.32052e-18 9.91371e-18 1 

-0.586293 0.360929 -0.292097 
0.107799 0.0640744 0.601451 
-2.92642e-19 2.37625e-17 1 

-0.129154 0.0546668 0.424892 
-0.0677346 -0.0120428 1.46156 
3.03548e-18 3.05857e-19 1 

-0.10384 -0.022908 -0.0983322 
-0.0164874 -0.066645 0.0411072 
6.03792e-18 -1.46324e-17 1 

-0.109366 0.0205645 -0.199963 
0.0391459 -0.0220581 0.0869532 
-4.74579e-18 3.0306e-19 1 

-0.147832 0.168721 -0.877118 
0.00412919 0.0978891 -0.688708 
5.22007e-18 -1.68002e-18 1 

-0.144912 -0.0603613 -0.0500766 
0.068109 -0.0704174 0.544802 
1.31028e-17 1.9937e-17 1 

-0.948801 -0.17627 -0.159221 
0.286504 0.171365 0.038908 
-2.72174e-18 4.6142e-18 1 

-0.04935 0.0542758 -0.0154727 
-0.0206411 -0.0844664 -0.0185068 
2.93437e-18 -4.76472e-18 1 

-0.0800064 0.000688686 -0.131071 
-0.0204141 -0.0328969 0.0542575 
3.69774e-18 5.34525e-18 1 

-0.0433555 -0.0400293 -0.145471 
-0.00608305 -0.107381 0.303846 
-5.83474e-18 9.4614e-18 1 

-0.0862142 0.00890628 -0.162659 
-0.0103989 -0.0753771 0.164663 
1.21195e-17 4.52702e-19 1 

-0.0596316 0.00191886 -0.000517951 
0.00107542 -0.0575902 -0.0663905 
-5.13469e-18 3.77138e-18 1 

-0.0546758 -0.00681843 -0.20406 
0.00662934 -0.0254145 -0.0347244 
-8.98021e-18 7.80156e-18 1 

-0.104972 0.0402986 -0.218476 
0.0149286 -0.0349137 -0.0796611 
-9.25735e-18 -1.33658e-18 1 

-0.116048 -0.0124708 -0.326091 
-0.0226023 -0.00614313 0.329556 
-1.85784e-18 -1.63599e-17 1 

-0.0555845 0.0259715 -0.0267453 
-0.0180216 -0.0351345 -0.0951593 
6.52695e-18 -2.78929e-18 1 

-0.103804 0.00300628 -0.107154 
-0.0296605 -0.0645802 0.207912 
-2.03746e-18 -2.11292e-18 1 

-0.4485 0.0392538 -0.390173 
0.189512 0.166584 0.953634 
3.54989e-18 1.60158e-17 1 

-0.0947467 -0.012878 0.0402936 
-0.0214676 -0.0511735 -0.167404 
7.4041e-18 -2.00275e-18 1 

-0.0998867 -0.0327337 0.0712336 
-0.0173033 0.0047872 0.388176 
4.5783e-18 -8.96639e-19 1 

-0.111541 0.0723523 -0.0457447 
-0.0342734 -0.0837617 -0.0521099 
-1.65138e-17 -1.22754e-17 1 

-0.0584752 0.0148008 -0.14693 
-0.057647 -0.0375915 0.0541999 
5.21396e-18 3.08098e-18 1 

-0.0999114 -0.0186697 0.0400507 
-0.0395478 -0.135719 0.13987 
5.41564e-18 -1.68487e-17 1 

-0.0600243 -0.00540795 -0.0306239 
-0.033772 -0.0610097 0.0171776 
-6.16537e-18 6.04103e-18 1 

-0.0886304 0.00250948 -0.409187 
0.0123846 -0.053469 -0.249296 
-2.16164e-19 4.0839e-18 1 

-0.180993 -0.0630861 0.0113626 
0.133009 0.0373603 -0.26338 
2.65179e-20 -5.72786e-18 1 

-0.110029 -0.00546499 0.11293 
-0.0613046 -0.0521427 0.131419 
-1.98647e-17 1.46372e-17 1 

-0.102624 -0.0185694 0.339894 
-0.0588892 -0.0466741 0.497558 
-3.04511e-18 -9.41469e-18 1 

-0.235378 -0.102482 -0.129461 
0.19299 0.0882521 0.0300507 
-2.29149e-18 9.25408e-18 1 

-0.0647169 0.00860553 -0.310808 
-0.0473385 -0.0530529 0.272708 
-6.62709e-18 9.74426e-18 1 

-0.172254 0.000230632 0.312894 
0.0931377 -0.0753083 -0.0972728 
-1.77377e-17 -1.83161e-17 1 

-0.145919 -0.160743 0.136161 
0.162805 -0.0334292 0.0667673 
-9.01915e-18 -2.77255e-18 1 

-0.0858132 -0.0785152 -0.0927491 
0.0328864 -0.0587884 -0.025209 
-2.44237e-18 5.00012e-18 1 

-0.195613 -0.0273677 0.501167 
0.0618517 -0.0756879 -0.036533 
-2.54202e-18 -4.12142e-17 1 

-0.136815 -0.0590552 -0.223382 
-0.00888346 0.0731464 -0.451467 
1.22282e-17 3.18119e-18 1 

-0.190245 0.0846908 -0.938508 
-0.147984 -0.0257183 -0.787199 
6.98385e-19 1.35894e-17 1 

-0.0944822 0.0417662 0.209458 
-0.0364392 -0.0221177 -0.376831 
1.7156e-17 -3.34276e-18 1 

-0.0856408 0.0527292 0.0171404 
-0.0595189 -0.063876 -0.180047 
6.58448e-18 1.40393e-17 1 

-0.0757066 0.0207842 -0.145268 
-0.0648486 -0.0165653 -0.193278 
-4.09597e-18 9.63758e-18 1 

-0.093656 -0.0383355 -0.0836303 
-0.0551589 -0.0605236 0.310695 
-1.40837e-17 1.58838e-19 1 

-0.111636 0.0775222 0.105274 
-0.0302474 0.00392431 -0.279689 
-5.09917e-18 2.73207e-18 1 

-0.140084 0.0329948 0.250586 
-0.120902 -0.0418781 -0.329279 
-1.08058e-17 -2.68508e-18 1 

-0.0781622 -0.00117334 0.0824799 
0.0154355 -0.0366934 -0.0656712 
-1.64139e-18 -1.06668e-17 1 

-0.255147 -0.134121 -0.152537 
0.0358363 -0.0363499 0.0202412 
-1.10486e-17 7.38895e-18 1 

-0.244753 -0.0865549 -0.256295 
-0.0364429 0.0413043 0.0135689 
-9.75982e-18 2.01013e-17 1 

-0.0842694 -0.0148688 0.030889 
-0.00683086 -0.0634504 -0.212784 
4.69195e-18 -1.93627e-18 1 

-0.087597 -0.020216 0.0641814 
-0.0338219 -0.031023 -0.0165562 
7.87278e-18 1.56651e-17 1 

-0.0716153 -0.0313431 -0.0717132 
0.0434269 -0.00642722 0.831651 
5.17548e-18 -5.3107e-18 1 

-0.0545895 0.0191442 0.0915099 
0.0109863 -0.00664778 0.0901526 
-1.58894e-18 4.99796e-18 1 

-0.137701 0.211745 -2.46217 
0.0589785 -0.0166091 -0.182088 
6.30939e-18 -5.1858e-19 1 

-0.109863 0.00598216 -0.274329 
-0.0166048 0.0529926 -0.00325791 
-3.85886e-18 2.20506e-18 1 

-0.0636854 -0.00743034 0.129211 
-0.0460612 -0.0299051 0.143566 
7.90899e-18 -5.27266e-18 1 

-0.114209 -0.0189487 0.0488248 
0.0231086 -0.0429061 -0.56214 
-1.05461e-19 1.53973e-17 1 

-0.0491886 0.0620358 -0.208862 
0.0628362 -0.0522908 -0.516835 
-1.0731e-17 8.82004e-18 1 

-0.0693864 0.00175978 -0.907206 
-0.019368 -0.0331704 0.355306 
1.20125e-19 -4.57635e-18 1 

-0.1313 0.0269613 0.0114284 
-0.0111702 0.0194547 -0.204599 
-1.90323e-18 -3.58482e-18 1 

-0.0730115 -0.0530149 -0.158356 