# vtk DataFile Version 3.0
Output file generated by Yade's KinematicLocalisationAnalyser
ASCII
DATASET UNSTRUCTURED_GRID

POINTS 13483 float
490.91 41.1354 0.504622
554.37 93.4939 -0.465679
109.793 6.06149 -0.583443
591.796 5.49765 0.600736
413.115 13.6058 -0.394368
288.998 38.1937 -0.485458
143.61 7.68871 0.449144
463.1 17.3943 -0.135128
421.195 56.2889 -0.147665
549.8 23.3439 -0.678853
194.3 8.77578 -0.0927776
237.761 6.61083 0.329267
496.152 61.1121 -0.168294
496.183 27.3343 0.104197
125.911 18.5826 0.520607
203.533 35.4904 0.41602
201.368 12.8627 -0.343724
265.706 10.7626 0.497569
312.373 40.0014 -0.446525
431.155 8.37701 0.510685
362.131 38.0217 0.159126
474.466 57.2125 0.272091
585.619 80.6385 0.444252
518.391 84.1084 -0.399732
394.955 23.4241 0.357927
221.331 48.3897 0.148558
425.457 64.7758 -0.528091
472.118 33.0074 -0.258456
39.2797 16.5668 0.481244
535.347 58.594 0.331916
407.723 9.30671 -0.484347
15.4409 24.6244 -0.298375
568.183 86.3026 0.286866
411.775 4.75463 0.646706
71.2795 46.3637 0.10652
426.308 45.0986 0.398004
436.455 18.3109 0.588541
312.217 27.8445 0.187751
436.585 33.6124 -0.324149
321.257 42.6423 -0.504254
222.918 15.3808 0.359561
377.899 45.9148 -0.112629
522.021 6.93811 -0.236488
177.124 6.22682 0.383222
49.6911 7.57957 -0.0819341
61.7934 9.09477 -0.274127
535.494 9.68883 -0.606948
20.4604 12.8127 -0.300418
458.465 73.0908 -0.37342
526.417 31.0452 0.412931
158.061 33.0861 -0.0679136
548.347 82.2484 -0.168694
30.0745 31.1472 -0.119225
440.17 4.09438 0.578692
130.684 7.09142 -0.485244
477.494 44.7924 0.472933
429.94 61.3705 0.136953
160.443 0.952567 -0.294551
28.6882 2.33105 0.358803
316.31 20.9666 0.250088
464.619 84.7423 -0.131344
400.195 57.023 -0.18359
353.555 1.03529 0.227597
543.961 8.34617 -0.586002
23.7184 47.5201 0.236093
236.592 34.0519 -0.375873
552.607 16.6527 -0.262489
484.061 87.6724 -0.342572
370.639 7.73052 -0.604481
463.616 10.805 -0.498259
565.187 54.6784 0.472493
120.118 7.93787 0.265542
429.219 63.4717 -0.120129
405.991 33.9046 0.0860402
271.438 17.8799 -0.343883
17.96 14.8786 -0.260347
575.413 76.3258 0.370517
303.931 44.4776 -0.053564
525.254 23.6002 0.606186
535.454 14.1024 -0.433074
584.828 13.2228 0.417816
400.97 59.4025 0.172073
85.1921 40.3511 -0.273733
503.93 79.6545 -0.25333
498.881 71.7406 -0.119578
594.195 86.202 -0.148909
574.955 1.85065 -0.619329
267.297 30.4224 -0.578997
498.606 6.01873 0.211277
21.9482 6.51195 -0.65758
123.503 40.7465 -0.146474
424.078 17.9317 0.312317
576.215 69.6264 -0.492588
180.644 29.0547 0.261618
39.6677 36.6798 0.284818
412.554 3.25009 0.204022
218.973 9.28827 -0.45091
564.522 64.1748 -0.340598
583.844 67.6745 0.241406
325.83 30.3559 -0.267073
149.906 29.6258 0.542087
440.066 59.9107 -0.520389
340.751 20.8258 -0.474297
366.154 31.0219 0.178596
338.154 9.79423 0.468537
447.137 15.2853 -0.0992623
594.796 14.7409 -0.244238
73.2716 41.2949 0.390426
307.498 5.84473 -0.301117
458.494 15.6948 -0.432224
329.157 54.4038 0.538299
21.1669 28.6488 -0.516406
27.0536 5.8646 -0.34969
456.079 52.2756 0.484664
421.41 35.8115 -0.171851
22.7539 41.5479 0.440756
86.246 32.564 -0.241415
299.65 18.181 -0.333053
484.232 21.5643 -0.255802
408.949 69.108 -0.290509
562.875 19.9652 -0.401105
557.363 14.6357 0.270824
355.704 53.0611 0.101472
482.21 66.6877 -0.11956
221.754 17.7353 -0.592734
304.24 3.95162 0.571158
95.8985 32.6275 0.407613
107.663 24.718 -0.2704
437.196 59.0653 -0.101487
283.947 20.0643 0.534159
533.427 67.0011 0.126542
489.316 87.2777 -0.105191
405.024 45.4194 -0.368005
592.647 48.5434 0.298427
380.779 26.9217 -0.236075
256.115 25.0371 -0.299936
523.226 46.3724 -0.265107
258.153 30.7703 0.468227
468.313 25.7529 -0.257766
305.747 41.4591 0.20257
418.128 15.906 0.685135
337.953 42.2833 -0.106741
381.345 18.0676 0.127623
292.586 48.1391 -0.532263
177.296 30.005 0.139607
559.047 90.4602 -0.142842
592.835 14.3734 0.412259
6.07109 13.1933 -0.437692
380.188 25.1128 -0.406331
33.3266 25.2394 0.0730623
347.606 43.6622 -0.577862
353.734 25.1927 -0.288604
68.5899 12.1591 0.583022
46.8672 34.3876 -0.506176
210.935 14.0008 0.469757
469.926 78.2773 -0.396455
468.732 34.3647 -0.494115
68.7514 22.5911 0.491955
522.743 85.921 0.404215
568.267 17.9483 -0.710466
513.074 60.4177 -0.589489
539.337 1.58257 0.66142
445.198 48.7159 0.405741
475.517 58.2729 -0.611159
427.884 20.2109 -0.614511
589.432 3.71759 -0.485733
208.493 25.4855 -0.125269
119.854 36.9388 0.20896
230.785 6.75337 -0.446516
85.8505 4.79871 0.268663
58.2631 10.5365 -0.289743
256.154 39.9082 0.253234
14.9386 26.4081 -0.357703
456.357 27.5898 0.455577
465.106 69.592 0.188752
396.871 36.797 -0.360336
579.563 92.2598 0.384626
364.136 8.40914 -0.17312
379.395 50.5323 -0.501268
447.238 3.14479 -0.241823
19.7248 25.8258 0.412816
469.924 5.23563 0.589234
452.527 10.5712 -0.494845
192.756 11.302 0.532994
378.718 15.8138 -0.295556
289.515 6.56752 0.429291
350.337 21.7335 0.465347
551.475 61.517 0.160597
179.405 26.0033 0.413075
572.392 14.9904 0.396756
552.255 57.5279 0.465234
345.694 11.9637 0.278498
556.045 2.61524 -0.401807
493.283 39.8995 0.425071
561.888 35.9443 -0.448471
371.808 54.7595 -0.322886
415.682 19.7491 -0.380553
399.752 70.5945 0.220427
394.713 12.2962 0.16862
516.451 58.9028 0.282616
512.321 56.1732 0.382341
178.991 40.1687 -0.399057
583.534 15.7961 0.123589
474.79 61.1487 0.31402
10.0334 19.3093 -0.219447
365.398 25.0354 0.485541
174.578 23.4983 0.424581
86.7834 41.2688 0.224992
588.583 62.2732 0.533616
511.802 67.4836 0.258676
297.533 28.6675 -0.382958
443.877 10.3037 -0.479902
76.3511 46.5407 0.176611
231.782 28.2375 -0.503733
453.198 37.0814 0.37439
415.031 41.9825 -0.491617
245.639 0.904501 -0.426353
448.491 63.8744 -0.436995
444.451 70.5956 0.446952
421.4 70.4623 -0.112222
418.97 1.70676 -0.588735
536.812 29.4486 -0.589018
166.91 12.5715 -0.234344
439.211 78.9447 0.418695
457.55 59.2546 0.123438
67.2213 0.985387 0.328525
235.658 4.92729 0.243148
591.133 18.0627 0.270626
584.099 18.5989 -0.546176
594.664 23.0703 -0.677203
282.212 9.20097 -0.237525
564.021 44.1599 0.432846
365.891 55.333 0.365105
398.571 0.802148 0.638382
502.878 64.3657 0.466021
22.773 34.7637 0.33732
305.18 47.7525 0.584208
236.549 3.13984 0.446337
572.295 83.1667 -0.209169
538.685 80.5672 0.217815
267.798 12.3472 0.285476
516.106 47.924 -0.133344
460.849 3.00064 0.358697
451.219 10.5452 0.571526
89.8115 19.1247 -0.557648
282.492 1.01879 -0.310266
316.979 2.32254 -0.354612
12.7594 7.94782 -0.624011
4.37825 33.9779 0.308815
150.365 19.95 -0.427977
62.6596 43.7151 -0.220097
60.4747 30.672 -0.318672
379.499 14.0559 -0.570393
340.33 46.2782 -0.542953
545.854 84.585 -0.125575
18.1301 4.5346 0.296767
64.9496 7.21597 0.139045
478.58 80.5291 -0.133186
274.285 1.46674 0.405958
331.656 23.2528 0.0797319
220.997 4.97814 0.397397
515.105 38.4605 0.404443
399.199 13.1083 0.555226
567.765 44.2667 -0.385279
482.881 69.9789 0.324261
523.372 23.1949 0.188636
377.622 31.6213 0.528213
95.5821 47.2361 0.313649
438.845 65.3849 0.0663624
563.003 29.3359 0.248773
223.281 33.1715 -0.255691
28.9897 20.1339 -0.241455
311.678 15.4679 0.504387
100.618 42.4948 -0.483893
251.011 46.0218 -0.231986
384.424 2.38607 -0.237202
572.449 72.8191 0.410779
533.23 0.681446 -0.550575
308.142 4.28157 0.527639
280.414 28.2548 0.14975
400.865 67.3113 0.197247
74.9438 9.14323 0.596985
184.049 47.0233 0.389889
555.189 75.6353 0.361904
433.795 80.9237 0.0653051
186.514 43.153 -0.296137
151.359 47.209 0.458518
593.842 80.5141 -0.534682
593.244 15.6608 -0.707018
490.69 3.40482 -0.635106
178.037 24.8308 -0.108844
446.882 43.8805 0.101599
448.794 44.5609 -0.304485
368.452 5.28439 -0.236798
410.112 0.847502 -0.61189
544.139 85.4585 -0.46776
79.1165 32.7355 -0.274673
519.241 32.5608 -0.5577
255.724 16.0406 -0.484259
8.33771 2.50517 -0.423828
118.167 38.5861 0.194317
62.3248 23.9279 0.504177
526.682 73.3637 0.313978
569.421 99.8456 -0.161294
173.486 28.8737 0.214757
587.972 14.0747 0.560352
41.0743 38.3865 -0.311234
85.0816 30.8982 -0.190711
502.89 31.3457 0.615066
371.33 19.9714 -0.673742
434.637 19.0081 0.314912
224.021 31.286 -0.246812
503.578 6.94729 -0.598735
595.557 16.3988 0.590463
25.653 35.443 -0.293711
252.548 7.807 0.208664
208.806 15.677 0.271504
1.04796 38.5958 0.151719
211.884 15.2807 0.434132
198.959 11.1563 -0.138008
200.783 27.6067 -0.303269
126.816 30.5944 -0.153285
450.909 23.0041 0.481079
155.493 14.919 -0.38651
566.654 85.2302 -0.240487
162.346 3.84784 0.522542
42.3706 39.5012 0.395843
557.038 69.2515 -0.533401
262.673 34.4792 -0.384352
526.722 33.9424 0.722644
582.738 74.6065 -0.495156
280.426 10.1173 0.145012
554.161 49.5396 0.385894
306.151 2.48199 -0.400376
374.71 26.1266 -0.417433
527.511 20.5998 -0.513684
97.7764 12.4807 -0.583369
409.625 6.63663 0.674977
570.432 45.0699 0.163203
80.9638 7.92545 -0.275536
263.104 15.696 0.200612
380.838 12.192 -0.304057
589.927 2.3303 0.586886
358.097 1.93082 -0.605108
165.89 39.5396 -0.344482
565.727 26.9779 -0.316519
121.423 38.3115 -0.218566
245.776 34.0504 -0.498585
361.115 21.562 0.239879
470.835 27.1887 0.481813
348.239 10.386 -0.547607
404.118 52.5973 0.399084
555.454 92.8395 0.378549
42.7921 12.3087 -0.238256
279.346 40.3758 0.270191
353.086 42.7809 0.364468
368.324 21.9135 0.299494
440.396 70.7836 -0.415365
572.251 67.2218 -0.179593
517.393 53.139 -0.407189
212.178 35.3194 -0.411746
12.8216 36.1214 0.154446
511.204 57.795 -0.150066
451.048 79.6584 0.427384
214.948 41.284 -0.130015
524.251 59.9749 -0.113898
140.887 10.049 0.185846
335.534 29.9026 -0.270186
401.541 69.3123 -0.0962398
372.315 21.0108 0.295443
550.713 95.5083 -0.291225
384.179 5.53186 0.505136
44.385 26.4284 -0.32311
412.968 63.8127 -0.349486
377.151 56.7773 0.362262
569.275 79.1254 -0.221822
552.184 48.2367 0.273298
446.133 26.1427 -0.183297
559.924 83.0062 0.479123
274.478 2.9048 -0.490987
352.367 44.3417 0.48332
26.1052 42.9208 -0.314922
555.89 50.7529 -0.127863
493.858 22.1698 -0.673711
405.433 3.95513 0.635333
117.286 4.92731 -0.387267
373.914 47.4958 -0.152283
10.7766 0.899122 0.373879
587.71 7.01579 -0.139879
[...]
POINT_DATA 13483
TENSORS Strain_matrix float
-1.60813 1.69624 -7.21229 
0.725113 0.0606029 -1.57959 
1.36829e-17 -1.0372e-17 1 

-0.854475 0.246684 -129.853 
0.111325 0.235269 11.677 
-1.0671e-18 6.04516e-18 1 

-0.200451 0.0270405 -2.57522 
0.0377763 0.0122018 -0.104328 
-1.62302e-18 1.03846e-17 1 

-0.984835 0.0456672 3.66164 
0.0195926 0.0120732 0.326236 
6.09228e-18 -1.75131e-17 1 

-1.50434 0.0564653 -1.85957 
-0.615711 0.418137 -0.582447 
5.93692e-18 -2.07792e-18 1 

-0.139068 -0.222057 -0.477327 
0.23892 0.0251491 -2.13276 
7.96304e-19 5.10065e-18 1 

-0.254291 0.0210996 -0.189616 
0.0311925 0.00291494 -0.442461 
1.37474e-17 -3.71057e-18 1 

-0.386642 -0.118095 -0.435022 
0.182508 0.0644715 -0.335816 
2.6962e-18 -1.16005e-17 1 

-8.40755 4.05884 -2.25375 
-3.60371 2.6626 -0.593899 
5.46194e-18 6.12114e-19 1 

-1.06691 -0.60651 -22.4456 
0.337167 0.327631 5.72112 
-1.14712e-17 -2.07623e-18 1 

-0.124197 -0.0174296 -0.17657 
0.0203953 -0.0771307 0.0957964 
-1.77626e-17 1.24338e-17 1 

-0.344343 0.0826471 -0.505933 
-0.0237293 0.0530065 -0.752834 
4.82587e-18 -9.45067e-18 1 

-0.124202 0.546442 -0.515576 
-0.500205 0.38877 0.0602313 
8.9622e-18 -2.19662e-18 1 

0.0116405 -0.785528 0.169981 
0.713148 0.28951 0.750503 
1.19565e-17 1.84034e-17 1 

-0.485397 0.0896506 1.49969 
0.035053 0.196186 -0.86829 
-4.20111e-18 -6.14606e-18 1 

-0.150727 -0.0531182 0.701634 
-0.0868041 0.0114343 0.53671 
3.04256e-19 -4.25959e-18 1 

-0.14069 -0.06323 0.231151 
-0.0150926 -0.128037 -0.0121227 
-1.07694e-17 2.59264e-18 1 

-0.359579 -0.0511495 -0.02059 
0.239706 -0.0878792 -0.0817175 
8.40549e-18 -4.9444e-18 1 

-0.313399 -0.381842 2.09358 
0.283485 0.0448143 -0.945558 
1.97453e-17 -4.29532e-18 1 

-0.208964 0.0483894 0.922182 
-0.277771 -0.0730836 1.07023 
5.03758e-18 6.42045e-19 1 

-0.567748 -0.229859 -0.615268 
0.106125 0.235128 -0.309031 
-1.20986e-17 3.21291e-18 1 

-0.908954 -0.575245 -0.578969 
-0.0232128 0.171214 0.594832 
4.09209e-18 -1.16823e-17 1 

-1.38333 0.343122 2.6171 
0.126915 0.466533 -2.03065 
1.81621e-18 -3.95293e-18 1 

-0.0630651 0.38633 1.0702 
-0.215753 0.00760968 3.01687 
-1.10186e-18 4.13761e-18 1 

-1.45785 -1.14315 1.02876 
-0.261483 0.634207 0.671316 
-1.07846e-17 -1.85735e-17 1 

-0.482069 0.0411147 -0.799808 
-0.00971193 0.262668 -0.189403 
-4.45164e-18 -6.02781e-18 1 

-1.59325 0.925687 65.684 
-0.294712 0.94292 29.1107 
1.08505e-19 3.3559e-18 1 

-0.0835065 -0.0875932 -0.0345956 
-0.0823026 -0.202446 0.893873 
-2.18731e-17 1.5577e-17 1 

-0.157707 -0.0503783 -0.882805 
0.0521803 -0.0110228 -0.452979 
-1.49193e-17 1.60683e-17 1 

-2.25406 -0.413239 4.9605 
-1.04036 0.114738 3.44006 
5.59982e-18 8.68393e-18 1 

-4.34508 -1.10796 1.77206 
-0.425121 1.1509 -0.178377 
0 2.06126e-17 1 

-0.330094 0.0958825 0.868247 
-0.0796314 0.0692206 -0.380019 
-1.24337e-17 -4.63507e-18 1 

-0.101853 -0.157686 -1.54937 
-0.192807 0.0547345 1.07779 
-3.40807e-18 6.1996e-18 1 

-1.86428 -0.41963 5.09657 
-0.0362811 0.446411 -1.9805 
6.62524e-19 -1.28364e-17 1 

-0.0951668 -0.0221933 -0.203744 
-0.0116085 -0.101439 -0.333661 
-1.05282e-17 1.48724e-17 1 

-0.680708 0.0748357 -0.882858 
-0.26286 0.283453 1.22522 
-6.21351e-18 3.03848e-18 1 

-0.756463 0.0456739 -6.49871 
-0.0324961 0.194853 2.8284 
3.53758e-18 -3.57324e-18 1 

-1.05232 0.790643 1.11886 
-0.00994848 0.554917 0.848964 
-6.23848e-18 7.93152e-18 1 

-0.390236 0.335888 0.798334 
0.203541 0.0516244 -0.148452 
0 -2.12843e-18 1 

-0.319812 -0.079826 16.6343 
0.117723 0.0876763 -0.693525 
-4.85648e-18 2.91958e-18 1 

-0.169831 -0.0459102 -0.012386 
0.0539414 -0.0974156 -0.0591986 
4.92715e-18 4.23964e-18 1 

-0.248019 -1.17197 0.0811184 
0.855895 1.09693 0.114494 
-8.6151e-19 -8.91663e-18 1 

-0.873636 0.0521289 -0.222708 
-0.391163 0.138996 -0.256547 
-2.91135e-17 1.73971e-17 1 

-0.162445 0.0217613 0.262877 
-0.0721802 -0.077359 1.13818 
4.12234e-18 -1.48886e-17 1 

-0.158519 -0.000762443 0.0808785 
-0.0100927 -0.0261904 0.0734782 
1.66109e-19 8.19725e-18 1 

-0.104586 -0.0343482 0.0286209 
-0.0311083 -0.0310125 -0.0506602 
-1.02516e-17 7.72921e-19 1 

-0.362364 -0.0908756 1.39765 
0.012827 -0.041827 -0.374593 
7.66128e-18 -2.99269e-18 1 

-0.107785 -0.109928 -0.149417 
0.0729845 -0.056458 0.29877 
-2.17801e-18 -5.17791e-18 1 

-11.8044 -3.68444 -44.9379 
0.416302 1.01678 -1.73501 
1.03064e-17 -2.55005e-18 1 

-2.82953 0.0212016 -2.46682 
-0.428907 0.857073 0.859633 
-1.70201e-18 1.48011e-17 1 

-0.20381 0.0477076 -1.09972 
-0.162271 0.197306 -0.0481791 
-1.06896e-17 3.95294e-18 1 

-0.238732 -0.0611955 0.0711498 
0.183274 -0.0206006 0.667463 
7.28409e-19 -6.0735e-18 1 

-0.102705 0.102359 -0.142468 
-0.0885513 -0.021321 -0.0407039 
-1.42452e-17 4.3368e-18 1 

-0.367444 0.0230832 2.05412 
0.00848454 -0.135129 0.189838 
-5.71699e-18 -4.44853e-18 1 

-0.213834 0.00440492 0.077294 
0.0545133 -0.150675 0.420486 
-6.88984e-18 3.80755e-18 1 

-0.199176 0.154242 -2.28117 
-0.197052 0.044547 -0.0101024 
1.67226e-18 -1.9906e-17 1 

-6.22505 5.90639 0.120428 
-1.97808 2.55553 2.20113 
0 -1.26714e-17 1 

-0.132769 0.432533 -0.356452 
-0.00168487 0.0356501 0.351069 
-1.18752e-19 -2.85004e-17 1 

-0.127419 0.0720216 0.285774 
-0.0818551 -0.144229 0.76417 
2.11515e-18 -3.90183e-18 1 

-0.272568 -0.485109 0.594799 
0.136982 0.214251 0.224976 
2.99494e-18 8.78686e-18 1 

-7.56398 5.05526 17.9843 
0.102349 0.779115 2.20069 
-7.83203e-19 -3.75397e-18 1 

0.0377413 -0.79452 1.04054 
0.431284 0.260691 -0.476805 
3.81024e-18 2.44745e-18 1 

-0.172606 -0.287247 -0.268525 
-0.0359582 -0.0869241 -0.111189 
8.8058e-18 -1.78711e-17 1 

-0.904151 -0.198305 9.51179 
0.204937 0.296943 -4.3851 
5.40742e-19 1.17317e-17 1 

-0.194318 0.191231 -0.463867 
-0.180489 0.122247 0.427542 
-2.6176e-18 -6.38504e-18 1 

-0.42783 0.0221706 -0.454499 
0.117474 0.173009 0.034221 
-9.23509e-18 1.43982e-18 1 

-0.393686 -1.39898 -0.820487 
0.1739 -0.0691469 -0.772318 
2.84917e-17 -8.85553e-18 1 

-2.55006 -9.19389 68.769 
0.0130586 0.688612 -7.12876 
-3.60151e-18 -1.32316e-17 1 

-0.215721 -0.0474578 -0.156813 
-0.155858 -0.222445 2.98367 
1.27254e-19 7.83882e-18 1 

-1.25211 0.680673 -0.348936 
-0.59107 0.603314 -1.94023 
-8.93665e-18 -4.71935e-18 1 

-0.210759 -0.305364 -0.0431454 
0.29783 -0.0363675 -0.541555 
-2.43416e-18 -2.94761e-19 1 

-0.158241 0.0725597 -0.204206 
-0.0977632 -0.0210064 -0.0360071 
-1.55348e-17 -1.27607e-18 1 

-4.21235 4.8139 1.80498 
-1.60885 2.5467 2.51446 
-4.33555e-18 6.91776e-18 1 

-0.547286 -0.187237 0.0901634 
0.587051 0.371562 -0.0112246 
-5.01719e-19 -9.40724e-19 1 

-0.134753 -0.0541956 -0.225195 
0.0248238 -0.044508 -0.160115 
-2.81825e-18 4.23559e-18 1 

-0.165993 -0.0235359 -0.0772498 
0.0239971 -0.0273067 0.129901 
-2.28051e-19 -5.58724e-18 1 

-0.658323 -0.297885 1.97875 
0.207698 0.225006 -1.69224 
6.96598e-19 1.08658e-17 1 

-0.161235 -0.140974 -0.468942 
0.0825479 0.135965 -0.152284 
9.08964e-18 -2.32824e-17 1 

-0.974733 0.257745 -2.74646 
-0.166341 0.181438 -1.99953 
4.39399e-18 -4.88221e-19 1 

-0.278691 -0.0601107 0.56456 
0.128958 -0.0583933 0.0768213 
-8.83389e-18 1.3803e-17 1 

-2.54809 0.478329 1.37313 
-0.245146 0.880198 0.99704 
-1.333e-17 -9.35818e-18 1 

-0.0216303 -0.876749 -0.551926 
0.505695 0.306376 0.496634 
-1.19832e-18 -1.10776e-17 1 

-0.101493 0.00229618 0.0891614 
0.00748216 0.0395647 -0.16909 
3.50145e-18 3.39203e-18 1 

-5.66467 -7.71006 -4.59384 
1.22981 2.31894 2.26937 
3.10906e-19 1.07557e-18 1 

0.0295166 0.490615 0.351072 
-0.723645 0.2413 0.203083 
-1.66116e-18 -1.03522e-18 1 

-0.612511 -0.1702 -0.848618 
-0.166381 0.210747 0.294673 
0 2.68084e-19 1 

-2.65914 -3.72009 -32.7282 
-0.0575664 0.78366 2.40877 
4.42767e-18 -2.086e-17 1 

-0.234077 -0.0558421 8.56025 
-0.00110058 0.0915939 -11.7447 
7.36431e-19 6.8382e-18 1 

-0.473418 0.301277 0.0196471 
-0.0334934 0.0188963 0.321375 
-1.66591e-18 2.75628e-17 1 

-0.272725 -0.0460873 -10.0614 
0.00524069 0.00141351 -3.55195 
-5.6091e-18 -1.66141e-17 1 

-0.115364 -0.248416 0.0706966 
0.201541 0.00585944 0.0123602 
-1.55352e-17 -1.57779e-17 1 

-0.261932 0.574722 -0.547857 
-0.363103 0.0975291 -0.0139876 
5.26007e-18 7.10894e-18 1 

0.753774 -7.52131 -26.0177 
0.17362 1.92857 14.3926 
-5.58704e-19 6.86407e-18 1 

-0.268733 -0.0781598 -0.00430014 
0.0755665 0.0406965 0.704456 
-8.19381e-18 2.49123e-18 1 

-0.142853 0.0927459 -0.449411 
-0.184929 0.0157466 0.120186 
-6.47244e-18 -1.89274e-18 1 

-2.00921 -0.0314776 -0.399626 
-0.0412102 0.614028 -0.56675 
4.81789e-18 6.61366e-18 1 

-0.229368 0.0067358 0.270284 
-0.0230455 -0.114665 -0.688804 
-8.16023e-18 -5.33888e-18 1 

-0.363223 -0.192332 -0.112142 
0.35322 0.147335 -0.0997007 
9.27834e-18 2.42254e-19 1 

-5.80025 -2.8124 5.08655 
0.78256 1.04445 0.201959 
-1.46256e-17 0 1 

-0.220302 1.955 -4.79507 
0.0617151 -0.0274128 -0.125699 
8.0578e-18 4.2879e-18 1 

-0.33924 0.116374 4.64974 
-0.0885608 0.139818 -2.64951 
9.61791e-18 -1.66209e-18 1 

-0.879366 -0.171722 -16.0096 
0.360918 0.251116 5.53885 
1.02382e-18 -4.6257e-18 1 

-0.363702 -0.0344573 -0.285239 
-0.014848 0.014293 0.691748 
-3.41073e-18 -1.38324e-18 1 

-0.244252 -0.865522 -0.306302 
0.360461 0.191251 0.224861 
3.46469e-18 -1.35339e-17 1 

-0.560308 0.00705333 -1.10639 
-0.301771 0.231223 -1.26538 
-4.37236e-18 -8.4324e-18 1 

-1.90154 -1.10526 1.72123 
0.650851 0.729949 -0.128452 
3.99178e-18 1.26641e-17 1 

-1.37403 -0.322742 0.393453 
0.54286 0.386452 -0.571001 
2.06235e-17 2.63299e-17 1 

-0.160456 0.0446573 -0.328349 
-0.0474944 0.00803514 -0.756278 
-5.91109e-18 -9.10443e-18 1 

-0.307047 -0.0744888 -0.046849 
0.183425 -0.0499512 0.306728 
-1.46076e-17 1.44397e-17 1 

-0.611146 0.367652 -0.912829 
-0.22621 0.074262 -0.436036 
1.06676e-17 -1.07321e-17 1 

-0.258095 -0.926668 -129.958 
0.0585692 0.284526 -9.30839 
2.04159e-18 -8.3853e-18 1 

-0.440534 -0.224686 -1.32181 
0.00556446 0.0977017 -0.486499 
-1.23533e-17 -9.2074e-19 1 

-0.299185 0.198392 0.228194 
-0.220216 -0.0237501 -0.174789 
-2.81715e-18 -7.92497e-18 1 

-0.618123 -0.00177216 0.939723 
-0.214771 0.296139 -1.54678 
-1.76927e-17 -9.6156e-18 1 

-0.521512 0.332222 0.596837 
-1.61399 0.600714 0.414008 
-1.83505e-18 1.58201e-17 1 

-0.128602 0.0741385 -0.29539 
-0.117878 0.0481352 -0.503033 
5.27978e-19 5.73234e-18 1 

-0.191811 -0.130025 0.182415 
0.0787914 0.0277624 -0.418527 
-4.91638e-18 -2.45819e-18 1 

-0.201155 0.120316 -0.0976059 
-0.0842735 -0.0529925 -0.0330033 
4.90992e-18 -1.64833e-17 1 

-0.947451 0.853596 1.50158 
-0.535538 0.564689 -0.808378 
5.45189e-18 7.56762e-18 1 

0.115458 -0.625105 -0.0597238 
0.630893 0.190413 -0.236064 
1.20204e-17 -1.2945e-17 1 

-0.705508 -0.425839 0.0621714 
0.712999 0.213902 0.522692 
-8.56387e-18 -1.98932e-17 1 

-1.96883 -0.521514 -0.0847576 
0.116649 0.576015 1.00542 
-1.29933e-18 1.1485e-17 1 

-0.220368 -0.239567 0.946843 
0.23562 0.123902 -0.509193 
4.07141e-20 -5.48283e-18 1 

-0.625217 -2.67819 -2.78928 
0.154697 0.741166 1.34995 
-2.52055e-18 -4.5117e-18 1 

-0.212334 0.0334619 1.56417 
0.072821 -0.0178155 -2.37577 
8.36174e-18 -7.04081e-19 1 

-0.361034 -0.0138613 -0.511885 
0.0634518 -0.090557 1.15766 
2.31707e-18 -6.93453e-18 1 

-0.152183 0.106597 0.201335 
-0.142467 -0.00166623 0.0356239 
-4.67248e-18 3.02426e-19 1 

-0.208232 0.397738 0.429234 
0.114018 0.055969 -0.35775 
-1.35849e-17 -1.98826e-17 1 

-0.802649 -0.654967 -0.304922 
0.689575 0.440594 1.05843 
1.29392e-17 -2.5729e-17 1 

-0.318023 0.168398 -0.544386 
0.0434594 0.0260096 0.646308 
1.70402e-17 -7.93871e-18 1 

-0.496933 0.217057 -0.0117887 
-0.762297 0.388502 0.0396555 
2.56408e-18 7.8321e-18 1 

-4.34275 -10.3189 21.1311 
0.350218 1.11934 -2.37783 
2.79898e-18 4.53168e-18 1 

-1.80685 3.05541 -17.8544 
0.599145 0.207091 5.26443 
-1.65553e-17 -5.34218e-18 1 

-4.24316 1.23839 -10.9655 
-0.877406 1.05142 -4.54559 
1.5141e-17 4.63577e-18 1 

-1.77325 1.86649 1.99709 
0.379795 0.707498 0.549552 
-5.47226e-19 -6.73509e-19 1 

-0.320137 0.0175947 3.62589 
-0.195159 0.304096 0.736447 
-1.3777e-17 -1.09915e-17 1 

-0.262126 0.422725 0.311344 
-0.358165 0.0421619 1.0046 
-8.97448e-18 1.4945e-18 1 

-0.180968 -0.113245 -3.15917 
-0.0411377 0.0377079 -0.740324 
4.61331e-18 1.77698e-18 1 

-1.30057 0.0273035 0.135533 
0.28382 0.770311 0.579901 
7.87416e-19 -4.32943e-17 1 

0.00250136 -0.406907 0.1105 
0.350069 -0.00611556 0.0298072 
-1.54831e-17 -1.73836e-17 1 

-1.05323 0.13795 -6.95654 
-0.193756 0.371159 -37.7878 
1.38335e-17 -8.10171e-18 1 

-0.108672 -0.193414 -0.134322 
0.145858 0.00229506 -0.118454 
9.60612e-18 -1.6025e-17 1 

0.020675 -0.82694 0.381636 
0.822751 0.341776 -0.420351 
-2.65915e-18 3.37507e-18 1 

-0.295958 -0.318144 -0.0875118 
0.165022 0.132194 -0.232664 
3.08385e-20 -4.32216e-17 1 

-0.13137 0.100834 -0.437195 
-0.0739052 0.0169785 0.506692 
-5.28141e-18 1.39741e-18 1 

-0.212846 -0.292455 0.529836 
-0.135439 0.191676 -0.506855 
-1.54913e-17 -2.7723e-18 1 

-0.697533 -0.690382 1.07811 
0.22383 0.27224 -0.683898 
2.32492e-17 -1.62656e-17 1 

-0.12159 0.0450406 1.0131 
0.115215 -0.0576452 -0.861264 
-9.62934e-18 -9.97739e-18 1 

-1.27944 1.19335 -2.18326 
0.228914 0.506589 -1.14723 
1.37776e-18 8.62123e-18 1 

-0.164019 -0.0857418 -0.278852 
-0.298336 0.0457484 -0.122548 
-2.51208e-18 5.62705e-18 1 

-0.553296 -0.208697 86.1059 
-0.038826 0.262056 7.90524 
6.71787e-19 -2.82335e-18 1 

-0.690148 -0.934501 -0.186739 
-0.384498 0.240254 -0.0998356 
1.05752e-18 1.01981e-17 1 

-0.197701 -0.0692878 -0.560612 
0.0480313 -0.0511049 2.57919 
7.15469e-18 6.75868e-18 1 

-0.20459 0.00248553 1.75705 
-0.0406871 0.00766432 -0.0177363 
5.7829e-20 2.9043e-18 1 

-0.216002 -0.00726465 0.0977585 
0.0426969 -0.0393077 0.0757644 
-1.27577e-18 -7.73969e-18 1 

-1.0228 0.175268 -1.02092 
0.709997 0.147975 -1.59283 
2.91336e-18 1.22361e-17 1 

-0.549222 -0.571709 1.49628 
-0.273955 0.0696758 0.536903 
1.6022e-17 -5.11228e-18 1 

-0.232008 0.0744172 1.37861 
-0.030416 0.0971209 -0.667059 
6.16251e-18 4.65209e-18 1 

-2.79868 -4.29228 -28.3811 
-0.124283 0.663445 10.494 
1.42124e-18 -2.42892e-18 1 

-4.52627 1.93636 -111.821 
-0.346957 0.663127 12.57 
2.90552e-18 6.49829e-18 1 

-1.31636 -0.650399 -24.8576 
-0.0794127 0.437487 6.74206 
1.74838e-18 -2.56981e-18 1 

-0.411827 0.24733 -16.0328 
-0.098981 -0.271237 2.55979 
-1.84153e-17 -2.07447e-17 1 

-1.57584 0.138238 -1.06209 
-0.417088 0.715258 -3.22174 
-8.0709e-18 -1.74506e-18 1 

-0.624326 -1.09148 55.5483 
-0.00459445 0.657165 -30.0083 
3.2615e-18 -1.99717e-18 1 

-0.549394 0.338129 2.47261 
-0.200803 0.216203 -3.75335 
-3.46524e-18 2.07108e-17 1 

-1.25598 -0.22388 0.833844 
0.265095 0.368373 -0.187284 
-2.1022e-17 -1.99603e-18 1 

-0.0764579 0.0105857 -0.144625 
0.0286319 -0.0459578 -0.0917125 
4.03964e-18 -9.18692e-18 1 

-0.108767 -0.120768 -0.211333 
0.123058 -0.0227995 -0.0127113 
6.86755e-19 5.36918e-18 1 

-0.153033 -0.0159958 -0.762938 
-0.0100107 -0.0461029 -1.86608 
-1.09141e-18 3.93687e-18 1 

-0.227713 -0.105785 0.100137 
0.0122141 0.0122122 -0.872813 
5.29393e-18 -4.46675e-18 1 

-0.229368 0.0189574 -0.100615 
-0.0426098 0.00383741 0.0785269 
1.7551e-17 -1.49508e-17 1 

-0.429584 0.0922101 -0.212304 
-0.0023188 0.192111 -0.514049 
-1.13234e-17 -7.79341e-19 1 

-0.567854 -0.235111 -0.825162 
-0.0124116 0.349819 -1.53916 
3.97327e-18 1.89873e-18 1 

-0.758501 -0.265836 -0.823694 
-0.294836 0.281232 0.212165 
1.88508e-18 -5.37503e-18 1 

-0.628404 -0.985121 0.865711 
1.19383 0.952109 0.57174 
2.43109e-18 -5.35544e-18 1 

-2.00519 0.930395 2.66371 
-0.431201 0.583192 1.26822 
2.19585e-18 3.99245e-18 1 

-0.371592 0.0184517 0.601467 
0.03204 0.0958084 0.972972 
-3.70627e-18 -2.10119e-18 1 

-0.197753 -0.0252286 0.0201477 
-0.00250473 -0.0766914 -0.130549 
-8.2697e-18 1.04049e-18 1 

-0.129131 -0.719187 1.34958 
0.455316 0.338106 2.40056 
-5.40897e-18 5.49182e-18 1 

-0.195138 -0.103304 3.80056e-05 
0.0497037 -0.141988 -0.178391 
7.66354e-18 -1.42771e-17 1 

-0.676133 -0.326616 -1.05624 
0.172543 0.498915 -0.227139 
-8.05757e-18 -7.08089e-18 1 

-1.70539 -1.14527 3.51784 
0.319008 0.541386 0.296762 
-6.11494e-18 -7.34897e-18 1 

-0.844541 -0.0871769 -0.580411 
0.575747 0.394486 1.94479 
-1.5214e-17 1.32077e-17 1 

-0.166833 0.0151333 -0.951987 
0.0168999 -0.0297195 0.39499 
1.11121e-17 7.54556e-18 1 

-0.47503 -0.434938 0.337568 
0.277377 0.165172 -0.646234 
4.4634e-18 1.53031e-17 1 

-0.272092 0.14193 -0.721823 
-0.121217 -0.100554 0.931376 
-6.86692e-18 -5.41724e-18 1 

-0.492589 0.0768958 -1.37895 
-0.537926 0.0523059 0.185544 
6.76012e-18 3.76416e-18 1 

-0.120689 -0.356906 0.29466 
0.309557 0.0758618 -0.189957 
5.96267e-18 -1.23039e-18 1 

-0.153281 -0.0292139 -0.467653 
-0.00794921 -0.0439791 0.867531 
-1.41212e-17 -6.3817e-18 1 

-1.88183 -0.405432 10.9614 
0.0582912 0.542453 4.25363 
-1.3593e-17 3.67647e-18 1 

-0.0325177 -0.550498 0.0718651 
0.477289 0.0564635 0.189679 
1.67529e-17 -3.8625e-18 1 

-0.814608 0.428003 -0.659333 
-0.231478 0.354774 -0.461046 
-1.90112e-18 -8.84548e-18 1 

-4.85133 -0.459084 -3.73876 
-0.190216 0.972031 0.312779 
-2.76208e-17 2.22356e-17 1 

-4.30165 4.20468 -1.84701 
0.804791 0.226679 -0.569273 
-4.64657e-18 -1.00706e-17 1 

-0.36749 -0.574414 -0.326835 
0.742486 0.239433 -0.446822 
1.3227e-17 1.08774e-17 1 

-2.42052 1.27962 -2.67836 
0.130508 0.890716 -2.87048 
-3.5238e-18 6.16483e-18 1 

-2.04554 1.91211 -5.63788 
-1.43946 1.21504 -1.79676 
1.4475e-17 1.85612e-17 1 

-0.0893922 -0.710447 0.306144 
0.522581 0.247976 -0.596775 
6.49877e-18 -7.98463e-18 1 

-1.6282 -0.355878 0.875756 
-0.366732 0.404893 1.15458 
3.16535e-18 -7.51771e-18 1 

-0.240773 0.225372 -1.65567 
-0.255375 0.199936 -0.107121 
3.0175e-18 -1.16058e-17 1 

-0.00154699 0.508132 0.033295 
-0.48164 0.0474781 0.259372 
3.97368e-18 5.26963e-18 1 

-0.405244 -0.248856 0.38508 
-0.0241893 0.149355 0.872384 
-1.55546e-18 -1.94109e-18 1 

-2.17449 0.221825 0.646506 
-0.0272597 0.343216 0.310554 
-1.65245e-17 -6.89514e-18 1 

-3.14637 -10.3414 -19.7637 
1.40986 4.72793 6.93919 
1.09102e-17 1.16999e-17 1 

-0.198018 -0.110447 -0.0392842 
0.065108 -0.0169291 -0.2437 
-1.62899e-17 1.21151e-17 1 

-0.37444 0.092944 0.302408 
0.114287 0.0775825 -0.0852106 
-1.84157e-17 2.38876e-17 1 

-0.109261 -0.010439 -0.0406654 
0.0615432 0.0120582 0.784568 
-9.34499e-18 2.77429e-18 1 

-0.143983 0.022351 -0.0338838 
0.0256657 0.0255796 0.0109108 
1.55704e-18 3.24047e-18 1 

-1.2716 -1.77042 -16.447 
0.531779 0.35712 -18.757 
6.76849e-18 -3.83581e-18 1 

-3.54639 0.277139 -14.6293 
0.641514 1.08639 7.14489 
5.08116e-18 6.55931e-18 1 

-0.234253 0.130345 -1.00244 
0.0108916 0.0390515 -0.314102 
-1.57875e-18 6.50294e-18 1 

-0.368813 -0.152749 1.09674 
0.0820492 0.00172815 1.17629 
3.60331e-18 -1.45142e-17 1 

-0.149826 0.0184773 -0.592436 
0.065567 -0.0143288 -0.364945 
-3.23122e-18 -1.79775e-17 1 

-0.272995 0.0131746 0.378981 
-0.0197375 0.110039 -0.9283 
2.1832e-17 7.90976e-18 1 

-1.59112 0.54313 6.10472 
0.0207387 0.447523 -2.05986 
8.44049e-19 6.12506e-18 1 

-2.66438 -1.67136 -3.46182 
-1.2589 -0.250151 -2.90023 
-8.68277e-18 1.09368e-17 1 

-0.286212 -0.201568 0.125286 
0.0166284 -0.0340762 -0.0399665 
-5.55757e-18 -2.77939e-17 1 

-0.143963 -0.134738 1.30708 
0.291056 0.100205 2.24322 
4.79496e-18 -3.49355e-18 1 

-2.55366 4.61704 23.8707 
-0.963566 1.80464 9.20041 
5.80061e-18 -7.02767e-18 1 

0.0271178 -0.651419 0.0957358 
0.532941 0.287235 0.219856 
-5.31321e-18 2.3471e-18 1 

-0.931366 -0.626137 -2.83034 
-0.218128 0.183361 1.01396 
3.36417e-18 -3.98894e-17 1 

-1.91035 -1.05408 -2.32297 
-0.403372 0.174234 -0.0675222 
-6.79629e-18 -5.16518e-18 1 

-0.176713 -0.0571575 0.176718 
0.0489066 -0.0136735 -0.0748589 
-2.23688e-18 -1.30484e-17 1 

-0.668393 0.179893 -22.7641 
-0.164434 0.105749 -10.3275 
2.50658e-18 -1.15755e-18 1 

0.0142559 0.595542 0.469447 
-0.634196 0.131609 0.518098 
7.302e-18 1.26984e-17 1 

-0.218708 1.04233 0.0373523 
0.0143036 0.185805 0.309586 
5.35602e-18 6.20392e-17 1 

-0.132127 0.0178746 -0.110687 
0.0322604 -0.0557268 -0.0138431 
1.02534e-17 1.77104e-18 1 

-1.50109 -0.0698498 0.14747 
0.170644 0.587253 0.431065 