# vtk DataFile Version 3.0
Output file generated by Yade's KinematicLocalisationAnalyser
ASCII
DATASET UNSTRUCTURED_GRID

POINTS 13483 float
608.254 31.0429 0.172444
714.499 79.3306 -0.446674
118.662 6.11472 -0.474287
755.61 5.68081 0.561239
498.895 7.89615 -0.2718
313.32 35.3895 -0.477312
154.873 6.96578 0.451491
568.867 10.1988 0.179491
495.949 23.7483 0.147528
700.142 16.3623 -0.696282
208.844 8.98318 -0.0902438
255.311 6.36505 -0.252816
644.924 39.4037 -0.263503
625.707 20.9625 -0.0733989
135.672 17.4321 0.425493
219.758 34.6902 0.402531
216.267 13.0436 -0.295173
287.396 9.69112 0.392559
339.882 33.1589 -0.484407
522.759 8.63006 0.341059
409.821 37.1435 -0.115659
590.45 46.498 0.265677
750.056 65.4552 0.487962
671.574 65.3779 -0.347063
458.213 16.1223 0.318848
239.34 44.7811 0.14353
491.004 28.5007 -0.492029
584.084 20.7717 -0.264004
43.9122 15.7174 -0.384601
687.979 42.6312 0.332176
482.451 4.86075 0.367958
15.7058 23.8949 -0.332312
729.925 73.7192 0.281205
494.82 2.59869 0.465122
76.913 44.9917 0.106178
521.293 31.8356 0.332952
529.25 16.8995 0.467614
342.222 22.8913 0.193706
532.932 25.7823 -0.310779
349.325 33.6506 -0.468582
239.285 14.497 0.358194
433.652 36.2128 0.0868093
659.578 7.4202 -0.153827
191.065 6.27567 0.343277
54.4308 7.0178 -0.107808
67.4013 9.01467 -0.271583
675.027 9.29333 -0.625277
22.2325 12.0781 -0.288114
602.775 52.716 0.359349
664.98 26.3615 0.368883
171.293 32.7059 -0.314852
709.392 68.1458 -0.138355
33.9438 28.4428 -0.12049
532.99 2.9896 0.343028
140.898 7.15352 -0.498954
594.082 33.6566 0.417127
504.358 28.6778 -0.167203
173.674 0.935019 -0.274475
31.3837 2.34219 0.345291
347.544 18.0088 0.261477
611.254 57.78 0.130756
461.562 33.9862 0.181974
398.83 1.02788 0.20157
684.877 8.23763 -0.545471
26.5596 43.9314 -0.235425
254.871 31.0737 -0.335014
700.649 9.94245 0.25398
639.695 60.3975 -0.34469
417.123 8.74237 -0.488767
569.612 3.62882 -0.376037
721.182 43.6614 0.406744
129.512 7.71147 0.281399
498.492 27.2813 0.14104
478.167 14.8346 -0.179645
293.508 16.8203 -0.337718
19.5314 14.0685 -0.283993
737.643 63.567 0.343376
332.039 39.3636 -0.29675
661.965 20.5365 0.438393
675.187 13.3639 0.269155
745.587 13.5506 -0.234024
464.881 34.8462 0.190739
91.468 39.0241 -0.265418
658.686 57.3979 -0.240176
644.636 50.5328 -0.148077
757.762 71.112 -0.124442
737.505 1.67274 -0.707497
290.376 29.0006 0.484228
622.519 6.2013 0.153721
23.4101 5.63252 -0.623336
131.799 38.8187 -0.169605
512.811 15.2916 0.21483
736.239 56.5714 -0.435071
194.494 29.2295 0.245418
43.5127 34.6496 0.304246
493.705 1.31507 0.135983
234.794 8.82513 -0.378718
721.094 53.3388 -0.264479
742.682 53.906 -0.237828
361.192 20.9344 -0.261924
162.979 27.0627 -0.48067
549.915 40.6395 0.439695
380.208 15.7208 -0.457236
413.968 30.3521 0.143376
378.332 4.52818 0.410346
548.624 10.5393 -0.114435
757.764 15.8771 0.241404
79.1321 39.9542 0.395704
335.295 4.9753 -0.2156
562.239 9.58134 -0.314403
360.616 43.9001 0.465943
24.4501 25.2789 -0.460678
29.2269 5.94621 -0.29363
569.786 34.532 -0.407691
507.036 26.0908 0.162061
25.5234 37.6125 0.439238
92.3701 31.3756 -0.228896
325.312 16.164 -0.264788
602.259 18.7818 -0.233257
476.342 38.5486 0.324081
714.413 11.1008 -0.520526
708.335 6.53697 -0.242323
388.139 37.5479 0.103423
631.122 39.656 -0.114595
238.032 16.8034 -0.554573
330.722 3.86407 0.461065
102.681 31.7883 0.430677
115.782 24.4692 -0.286986
545 40.6329 -0.077617
306.762 18.997 0.486
688.753 51.3083 0.108135
643.701 61.071 -0.103393
482.948 21.219 -0.379631
750.726 37.2261 0.203284
430.725 23.6356 0.251092
277.524 24.5938 0.192052
671.603 33.8139 -0.316183
279.528 28.8191 0.376063
579.238 12.5691 -0.202799
333.171 36.1034 0.208424
507.023 12.1207 0.567154
368.285 31.6405 0.095399
432.745 16.8003 0.110352
319.441 42.5695 -0.433911
190.79 30.3102 0.139544
720.621 77.5654 0.152406
755.794 15.178 0.436659
6.06773 12.8403 -0.473773
436.349 22.686 -0.401367
37.5339 22.8107 0.0709122
378.615 31.4667 -0.46703
397.715 25.1175 -0.286942
74.4847 12.0993 0.503555
51.1101 33.5036 -0.458744
226.311 13.5465 0.455673
616.282 51.4054 -0.393472
580.767 21.6441 -0.489273
74.4174 21.0942 0.507237
675.525 67.889 0.40745
723.002 7.66874 -0.672286
661.193 46.8328 -0.520124
679.557 1.73683 0.659725
554.72 29.4233 -0.454889
590.547 48.1893 -0.457133
516.222 18.8583 -0.387184
753.233 3.87628 -0.454739
224.418 24.8831 0.110314
127.627 35.5908 0.188398
248.27 6.72412 -0.406648
93.8285 4.4684 0.280314
63.7887 10.3148 0.181228
277.42 36.1257 0.319078
15.8817 25.7915 -0.350491
560.927 19.1773 -0.561285
606.613 45.9452 0.280952
467.573 21.1559 -0.387804
742.974 77.1519 0.366796
410.26 8.73491 -0.125873
440.121 36.6433 -0.397168
541.317 3.49984 -0.205146
21.4564 24.9058 0.391694
581.848 4.24345 0.503911
550.9 4.29743 -0.323584
207.195 11.5157 0.501334
429.055 16.351 -0.24328
313.681 6.32985 0.36531
391.73 19.0671 -0.329384
707.552 51.0297 0.162365
193.261 26.0695 0.418003
732.845 9.99334 0.321826
707.967 47.0317 0.436705
386.932 10.3326 -0.153611
699.861 0.869574 -0.495809
610.793 29.4912 0.439411
715.547 26.0391 -0.583872
434.821 44.089 0.263533
501.292 13.3107 0.347492
469.647 44.8757 -0.228728
450.388 8.76783 -0.136467
664.69 45.6832 0.290916
660.982 42.4398 0.382526
193.387 39.4978 -0.331961
743.602 13.9574 -0.322015
591.508 49.5488 0.251938
10.8477 18.1648 0.182996
411.938 25.7963 0.39532
188.307 23.5981 0.408948
93.1494 39.8938 0.2002
750.44 51.2413 0.383288
659.126 53.4128 0.238371
321.799 25.823 -0.339717
538.223 10.2728 0.317786
82.0366 45.2414 0.168069
249.185 26.3369 -0.477678
562.73 25.3978 0.414303
492.459 19.4102 0.483502
264.727 0.885273 -0.345511
559.262 42.9792 -0.397614
539.474 42.0874 -0.441829
487.882 34.0646 0.417179
505.5 1.71642 -0.621806
686.85 21.3608 -0.423776
180.438 12.4116 -0.213338
506.863 38.6291 0.470459
571.24 42.272 0.150672
72.6856 0.977249 0.27687
253.546 4.82438 0.178357
753.873 18.7765 0.303106
745.695 15.6436 -0.570843
758.392 21.6457 -0.500594
306.246 8.6469 -0.23801
719.03 33.6214 0.409821
411.507 42.2126 -0.379914
454.638 0.804365 -0.414227
650.315 45.3503 0.456591
26.2749 31.2416 0.335788
334.03 42.0771 0.582862
254.39 2.9557 0.358792
734.516 70.9433 -0.181243
692.108 65.4026 0.245318
289.896 11.0698 0.244539
664.994 33.6123 -0.100922
564.315 2.52441 0.275594
548.743 6.44584 0.454702
96.7869 18.6146 -0.59698
306.114 1.0445 -0.229263
346.585 2.24828 -0.370364
13.4493 7.54263 -0.469976
4.34334 32.8692 0.294842
162.616 19.0705 -0.376379
68.0319 42.1532 -0.216623
66.4487 29.2221 -0.328781
428.791 14.4914 -0.459175
371.212 35.3931 -0.483232
706.557 70.2425 -0.120912
19.0637 4.10396 0.278435
70.439 7.04497 0.12898
623.975 52.1062 -0.159994
297.441 0.927921 0.375381
369.153 16.203 -0.101818
237.348 4.63416 -0.381045
649.329 27.8275 0.183481
457.751 8.40238 0.423072
722.759 33.4371 -0.384086
630.544 42.9113 -0.286102
660.19 19.4205 0.132619
425.575 27.7422 0.563738
102.466 45.8564 0.30616
548.544 44.3852 0.0798357
716.7 19.5695 0.256533
240.022 31.0471 -0.282137
31.3288 17.515 -0.205357
340.048 13.7927 0.521584
107.803 41.205 -0.455369
270.414 42.3426 -0.222441
431.123 1.62354 -0.340058
734.606 59.9923 0.384514
673.275 0.761834 -0.715229
335.8 3.43674 0.573145
303.458 26.7533 0.147934
468.384 41.7744 0.225844
81.5143 8.2976 0.478866
199.341 45.7946 0.377604
717.268 62.0954 -0.382389
501.95 40.8797 -0.0998456
201.823 41.86 -0.303845
162.039 42.6856 0.390427
757.375 65.313 -0.531024
756.328 16.3029 -0.691388
613.87 3.41369 -0.488562
191.766 25.0981 -0.0941347
556.382 30.1781 0.150925
558.343 30.0122 -0.27584
414.826 5.73845 -0.13661
488.786 0.961225 0.408356
704.803 71.021 -0.469541
85.1574 31.5724 -0.261967
653.082 24.8118 -0.610703
277.044 15.5659 -0.3749
9.06179 2.38398 0.334242
126.142 37.4828 0.194167
66.9686 23.1998 0.548622
681.302 56.5938 0.308319
733.193 85.7767 -0.148026
187.026 28.8842 0.194066
751.368 14.264 0.540428
44.8417 36.7581 -0.261439
91.1862 29.7227 -0.188948
633.935 22.121 0.596463
419.286 18.7176 -0.532604
526.049 16.8895 0.118995
240.447 29.0316 -0.192499
629.023 6.98989 -0.430498
759.79 15.9638 0.443632
29.1683 32.1803 -0.283987
272.94 7.74831 0.1978
224.127 15.3242 0.246195
1.0655 37.4773 0.147258
227.363 14.7634 0.396328
213.699 11.1708 0.102224
216.289 26.7629 -0.281931
133.96 28.2237 -0.149914
554.589 15.8406 -0.295182
168.443 14.2917 -0.358525
728.427 72.5797 -0.235605
175.676 3.78061 0.519421
47.0837 38.4211 0.428775
712.407 58.4856 -0.468216
284.452 32.0864 -0.401083
671.725 25.1191 0.527969
744.107 60.3855 -0.476434
304.325 9.28824 0.104823
709.308 39.0306 0.382834
332.757 2.49371 -0.434453
422.406 24.7484 -0.385149
665.283 16.4355 -0.453327
105.735 11.8532 -0.483998
490.718 3.93398 -0.535185
725.621 34.017 -0.190477
88.3088 7.69119 -0.23958
284.867 14.7546 0.202908
429.566 11.7534 -0.214446
753.848 2.44354 0.564786
403.788 1.99834 -0.53301
178.478 39.1806 -0.335716
719.356 17.2379 -0.305887
129.36 36.7729 0.190987
265.822 31.6049 -0.411596
406.549 22.0254 0.215873
581.332 14.7012 -0.327831
392.764 9.8721 -0.502457
463.512 28.168 -0.460288
715.864 79.0838 0.259477
47.1312 11.0973 -0.111774
303.082 38.7626 -0.268318
385.025 27.4391 0.370026
416.013 21.0476 0.281985
530.713 45.9577 0.356755
729.445 55.6792 -0.210332
665.806 40.7628 -0.425911
228.354 34.6412 -0.392678
13.4058 33.3491 0.191633
659.616 43.8854 -0.149417
517.314 42.9481 0.466541
231.834 39.8647 -0.127211
674.241 45.9754 0.10241
152.112 9.34951 0.237244
371.799 21.4078 0.323051
470.19 42.7774 0.110259
420.306 19.9882 0.223811
710.579 81.2289 -0.291092
432.549 3.86953 0.539099
49.4724 25.5161 -0.324105
477.19 32.3179 0.348166
441.47 42.9923 0.362003
731.501 66.6417 -0.230005
706.968 37.4275 0.265715
549.42 19.1548 -0.218318
721.36 69.9838 0.427424
297.014 2.21814 -0.464568
383.766 29.9937 0.519599
28.7376 39.3455 -0.305375
711.431 40.2831 -0.132273
615.582 21.1981 -0.474695
470.66 0.771077 -0.477182
126.951 4.57767 0.268151
433.231 40.7323 0.120315
11.4619 0.880419 -0.321915
751.18 7.12725 -0.163602
375.508 39.4765 -0.411861
[...]
POINT_DATA 13483
TENSORS Strain_matrix float
-0.376814 -0.248373 0.225138 
0.703588 0.174945 0.338634 
-4.2534e-18 3.92622e-18 1 

-0.537247 0.0959591 -103.225 
0.122722 -0.147461 30.7668 
3.23208e-18 -3.41319e-18 1 

-0.134441 -0.000963543 0.0085201 
0.0218268 -0.00326157 2.06771 
5.23205e-18 -1.14883e-17 1 

-1.05903 -0.0091322 1.04966 
0.0444373 0.0287423 0.394062 
-9.75006e-18 1.56592e-17 1 

-0.369884 -0.141057 -0.0183517 
0.0308172 0.0567309 -0.232262 
5.03784e-19 9.94974e-18 1 

-0.114675 -0.0203834 -0.38657 
0.0323591 -0.0180354 -0.489546 
-5.49408e-18 1.30704e-17 1 

-0.122893 -0.0141886 -0.102274 
-0.00543848 -0.0624623 -0.0239831 
-1.33606e-18 -2.71819e-18 1 

-0.130109 0.0585051 -0.0797831 
0.0576809 -0.0741944 0.0319665 
3.56955e-18 -7.13909e-18 1 

-0.158893 -0.0487341 -0.590927 
0.142299 0.0569413 -0.140475 
4.49001e-19 4.93901e-18 1 

-0.680697 -0.137638 -1.05844 
0.0839058 0.188627 5.91104 
1.34394e-17 -5.83179e-18 1 

-0.0975249 -0.00115106 -0.147026 
0.013005 -0.0664808 0.0787711 
3.1593e-18 3.30291e-18 1 

-0.116737 -0.0505762 0.200871 
-0.0801775 -0.0874596 0.0669789 
-2.3086e-18 -3.2592e-18 1 

-0.209905 0.574403 -0.968399 
-0.33918 0.265136 0.267119 
-2.92744e-18 1.13649e-17 1 

-0.262476 -0.239135 0.50668 
0.304504 0.10942 0.661947 
-5.40445e-19 2.52208e-18 1 

-0.17379 0.00586567 -0.405208 
-0.0217468 -0.0272879 -0.183962 
3.1044e-18 -1.24788e-17 1 

-0.121971 -0.0782016 0.50637 
-0.0343031 -0.00690549 0.331534 
7.4035e-18 4.78858e-18 1 

-0.0901469 -0.00548753 0.0923963 
-0.0122475 -0.0985982 -0.0734499 
4.37922e-18 7.43641e-19 1 

-0.178753 -0.0211767 -0.00425889 
0.023152 -0.0681022 -0.0413129 
1.56016e-18 1.05311e-17 1 

-0.218531 0.0281565 0.537393 
0.00433059 -0.019117 1.68572 
5.55257e-18 -1.52279e-18 1 

-0.122819 0.053032 0.183867 
-0.111556 -0.0435022 0.62154 
3.337e-18 7.02123e-18 1 

-0.152384 -0.036874 -0.169946 
0.0163038 0.0153778 -0.35401 
-3.5548e-18 2.05804e-18 1 

-0.687124 -0.207139 -2.17148 
0.377345 0.459522 -0.592728 
-6.90756e-18 -3.97421e-18 1 

-1.609 -1.03513 15.9404 
0.0642367 0.554034 0.857955 
-9.22226e-19 9.81091e-18 1 

-0.0928263 0.195959 0.554355 
-0.012761 -0.00401686 3.94536 
-2.81883e-18 -7.61084e-18 1 

-0.100416 -0.0203803 -0.214428 
0.0668287 -0.0401334 0.196168 
8.32478e-18 3.91639e-18 1 

-0.215549 0.0420081 0.0507066 
-0.0287933 0.0645249 -0.0749207 
1.40517e-18 -2.05705e-18 1 

-0.137042 -0.0611252 1.31492 
0.0515699 -0.00162197 -1.50509 
8.78194e-19 1.52231e-18 1 

-0.168725 -0.120723 -0.304857 
0.00564612 0.0168508 0.568552 
7.08267e-18 1.71533e-18 1 

-0.128684 0.0615587 0.459129 
0.0247367 -0.0694992 -0.957305 
2.10941e-19 -2.16003e-18 1 

-2.86684 -0.810957 5.18998 
-1.0912 0.0945817 0.368872 
1.27124e-17 1.24023e-17 1 

-0.0974265 -0.0239279 -0.360708 
-0.117224 -0.214535 0.338957 
1.3924e-18 7.79744e-18 1 

-0.184197 0.0504575 -0.263817 
-0.140951 0.0295855 0.479738 
-4.18511e-18 -5.02213e-18 1 

-0.0386485 -0.25665 -2.07518 
-0.157327 0.140039 1.70112 
-2.3886e-18 -1.50141e-17 1 

-0.209222 0.0429889 -0.0298319 
-0.0322458 0.00651871 0.10321 
-1.28842e-17 6.17165e-18 1 

-0.0778844 -0.0358116 -0.151201 
-0.00758499 -0.104784 -0.330931 
4.8239e-18 5.95289e-18 1 

-0.295198 0.0994283 -0.15296 
-0.221562 0.14809 0.177675 
1.50252e-17 8.2424e-18 1 

-0.144123 0.0272066 0.0638838 
0.000470172 -0.0216891 -1.20226 
-4.59508e-18 2.17802e-18 1 

-0.204535 0.00591541 0.239059 
-0.0940922 0.0916224 0.112663 
-2.51738e-18 4.21515e-18 1 

-0.0978248 -0.0332881 -0.0959199 
0.0984856 -0.026495 0.0170883 
-1.76891e-18 -6.0143e-18 1 

-0.133848 0.00459129 -0.21865 
-0.0164697 -0.0219288 -0.561614 
1.28661e-18 2.30494e-18 1 

-0.110883 -0.0429601 -0.0743732 
0.0541288 -0.118585 -0.188255 
-5.37771e-18 6.02472e-18 1 

-0.0407815 -0.0528258 0.382278 
-0.0869671 -0.0806116 -0.137348 
3.48296e-18 -1.39318e-17 1 

-0.632915 0.307182 0.285682 
-0.367235 0.217555 0.208366 
-6.91762e-18 -2.73512e-18 1 

-0.128174 0.00445697 0.34569 
-0.0415141 -0.0607345 0.965546 
-4.08003e-18 -9.21297e-19 1 

-0.0952088 0.0406159 -0.0154851 
-0.0287252 -0.0779586 0.126441 
-1.1022e-17 -7.03368e-18 1 

-0.0796303 -0.0127686 0.0919143 
-0.0166069 -0.0493861 -0.096515 
5.60679e-18 -1.96845e-18 1 

-0.349127 -0.0429667 3.238 
0.0958674 -0.0421855 -1.08018 
-4.40034e-18 1.00118e-17 1 

-0.0818939 -0.0325005 -0.015268 
0.0211907 -0.0677224 0.037957 
-1.15378e-18 -6.56123e-18 1 

-0.248082 -0.822506 -0.122337 
0.565915 0.396711 -0.04954 
3.90949e-18 -2.23399e-17 1 

-0.222229 1.20114 3.79899 
-0.157124 0.351187 -3.54459 
-3.89786e-19 1.28779e-17 1 

-0.114192 -0.0627076 0.290062 
0.0108837 -0.00784148 -0.122713 
8.06093e-18 1.20785e-17 1 

-0.153762 -0.162531 0.343378 
0.156177 -0.0163904 0.570012 
-2.26916e-18 -9.26549e-18 1 

-0.116665 0.00782618 -0.0733245 
-0.00816759 -0.0146943 0.100249 
-5.24708e-19 -1.2115e-19 1 

-0.157215 0.0962751 0.151733 
-0.0278609 -0.0276319 0.130663 
-5.96987e-18 -9.69493e-18 1 

-0.100824 0.0388819 0.240442 
-0.00824486 -0.113462 0.760724 
-1.68078e-17 4.70148e-18 1 

-0.183531 -0.0396398 -2.52158 
-0.0230772 0.0760928 1.37981 
8.53943e-19 1.07822e-17 1 

-0.184436 -0.0063625 -0.0971265 
0.0698962 -0.0112286 0.196213 
7.30479e-18 3.70611e-18 1 

-0.105292 0.00377158 -0.177415 
-0.00514265 -0.0793201 -0.0555545 
-1.32295e-18 1.60546e-17 1 

-0.0628243 0.0121868 0.268032 
-0.0725555 -0.107371 0.538855 
-5.29219e-18 -1.29365e-17 1 

-0.0805377 -0.0629002 -0.248311 
-0.0254548 -0.0346 0.0745639 
5.84077e-18 -1.24725e-17 1 

-0.455066 0.321005 0.974742 
0.439523 0.297359 -0.0649845 
-9.00929e-18 1.38132e-17 1 

-0.0965734 -0.12185 0.304035 
0.0619526 0.0154776 0.51009 
-2.66843e-18 3.53769e-18 1 

-0.116195 -0.0788869 -0.273319 
-0.0129579 -0.0525555 -0.13457 
5.09242e-18 1.96021e-17 1 

-0.559467 0.0425857 0.59873 
0.089916 0.216351 -1.02221 
-3.64573e-18 9.72196e-19 1 

-0.286511 0.110096 -0.603846 
-0.0991451 0.0996082 -0.0638515 
5.54545e-19 2.67711e-19 1 

-0.223294 0.0441477 -0.246663 
-0.0451392 0.0111654 0.280282 
2.47666e-18 9.80854e-18 1 

-0.495925 -0.407537 -0.0379991 
-0.0431106 -0.00138226 -0.464852 
-3.8012e-18 1.21315e-17 1 

-2.99122 -9.16893 8.67575 
0.471373 0.85802 -0.583761 
4.50331e-18 -1.22833e-17 1 

-0.140517 0.00824653 0.0581984 
-0.0707722 -0.0606997 0.379009 
7.8993e-18 -1.5063e-18 1 

-0.201455 0.0558166 -0.371607 
-0.143966 -0.109847 -0.873617 
9.18273e-18 -5.04814e-18 1 

-0.119063 -0.248456 -0.216133 
0.282954 -0.037151 -0.147741 
-1.67525e-17 -1.29697e-17 1 

-0.0808194 -0.00679078 0.0263645 
-0.0063424 -0.0656832 0.0909993 
-2.18233e-19 -4.57683e-18 1 

-0.0826537 0.0406065 -0.219247 
0.0984683 -0.0154763 -0.113406 
-4.50214e-18 8.26923e-18 1 

-0.0949291 -0.0728256 0.442826 
0.0354183 -0.0765112 -0.374909 
-1.85282e-17 3.95236e-18 1 

-0.110347 0.00300669 -0.541503 
-0.0136839 -0.0418001 -0.101692 
-5.75806e-18 4.90727e-19 1 

-0.111179 -0.0465592 0.0109413 
0.00263291 -0.0677788 -0.0368012 
4.55309e-18 1.30088e-18 1 

-0.55047 -0.268019 -7.44979 
0.238681 0.255451 3.19449 
-6.50964e-18 -2.49723e-18 1 

-0.131427 0.0303125 -0.802044 
-0.0219013 -0.0244054 0.136019 
-7.16167e-18 -1.39414e-18 1 

-0.66889 0.306787 0.109301 
0.0299397 -0.0626866 -0.848228 
-3.16141e-18 1.26456e-17 1 

-0.114476 -0.0642658 0.115362 
0.117464 -0.130857 0.312128 
-4.04451e-18 9.10014e-18 1 

-1.48657 0.0254013 -0.492338 
0.177225 0.286532 0.0400045 
6.09499e-18 5.72958e-18 1 

-0.124211 -0.178924 -0.616891 
0.0543404 0.0165342 0.755753 
9.73263e-18 -3.75608e-18 1 

-0.0393656 0.0140291 0.312516 
-0.0265303 -0.00526136 -0.528689 
-2.66335e-18 -9.92704e-18 1 

-3.36477 -9.11746 -1.41092 
1.07682 3.37721 1.01864 
6.25723e-18 -1.76073e-17 1 

-0.173816 0.169471 0.455448 
-0.450535 0.0206257 0.358551 
1.10678e-18 3.77311e-20 1 

-0.595932 -0.117744 -0.959597 
-0.198546 0.229059 0.262378 
4.73034e-18 -1.27847e-18 1 

-1.04559 0.175531 1.12192 
-0.0856521 0.333368 1.8644 
9.27741e-18 -2.5001e-17 1 

-0.1151 0.0689356 0.153771 
0.0301361 -0.0925148 -0.747451 
1.09907e-17 -4.57944e-18 1 

-0.293703 0.055233 -0.221149 
0.15075 -0.0189799 -0.113357 
-9.69051e-18 -1.16286e-18 1 

-0.129318 0.00236484 -3.22768 
0.00470739 -0.0581999 1.33722 
-1.85502e-18 5.88482e-18 1 

-0.112606 -0.080446 -0.0260218 
-0.0310328 -0.0733875 0.150684 
1.26547e-17 4.39739e-18 1 

-0.299765 0.170997 -0.133346 
0.0501015 0.0328735 0.0825119 
-1.31061e-17 1.86606e-18 1 

1.02512 -8.23443 2.05028 
0.234509 1.91446 3.92747 
-3.45173e-18 -4.4174e-18 1 

-0.184438 -0.0237748 0.0474375 
-0.0362589 -0.010894 0.0533522 
-1.52611e-18 -8.68706e-18 1 

-0.105142 0.0368779 0.308705 
0.0241581 -0.00253531 0.210252 
-7.98783e-18 2.08254e-18 1 

-0.178696 0.138028 -0.106067 
0.0136013 0.0222809 0.174417 
7.2172e-18 1.36154e-17 1 

-0.129543 0.0311098 0.100279 
-0.05671 -0.0763352 -0.127451 
-6.86104e-18 -2.60624e-18 1 

-0.303842 -0.168987 -0.482413 
0.317271 0.138802 -0.0150806 
-1.54335e-17 -9.77276e-18 1 

-3.98225 -1.88643 -0.256819 
0.461343 1.18924 -1.92238 
-2.89176e-18 -4.06409e-18 1 

-0.0729479 -0.0217429 -0.0488728 
-0.0450614 -0.0254187 -0.0561688 
1.20063e-17 -4.7856e-18 1 

-0.109007 -0.00565406 -0.672796 
0.0163044 -0.0285381 -0.367212 
-1.18796e-19 1.7463e-17 1 

-0.18657 -0.0970551 0.47329 
0.0858616 0.0127161 -1.72017 
1.65193e-18 4.98406e-18 1 

-0.127527 0.00122054 -1.20279 
-0.0265002 -0.0310992 0.0325962 
-4.81515e-18 9.5537e-18 1 

-0.176737 -0.133462 -0.125224 
0.0764436 -0.0118088 -0.0056999 
-5.19116e-18 2.92003e-18 1 

-0.121801 -0.00840887 0.177547 
0.00961418 -0.0818586 0.424387 
-5.92518e-18 4.44974e-18 1 

-0.326617 0.140463 0.300194 
0.0133842 0.0910127 0.208583 
-1.88362e-18 4.21571e-18 1 

-1.10997 -0.3792 0.745997 
0.204107 0.327475 -0.612447 
2.65551e-18 1.30049e-17 1 

-0.130621 0.00152692 -0.443355 
-0.0236952 -0.00446359 -0.634364 
3.36995e-18 1.37862e-17 1 

-0.144257 0.056873 0.0980049 
0.0654904 -0.121164 -0.100509 
9.07189e-19 1.89935e-17 1 

-0.177146 0.0791697 -0.753998 
0.000462 -0.0680469 -0.722991 
-1.51688e-17 -1.38783e-17 1 

-0.159515 0.0706672 0.678884 
0.0238394 -0.00961632 2.83165 
-3.87849e-19 -2.47348e-18 1 

-0.128474 0.024179 -0.972262 
-0.0470265 -0.0122882 0.299655 
1.0587e-18 -6.49779e-18 1 

-0.110007 0.0713725 0.0117002 
-0.113368 -0.0788517 -0.0960355 
-3.29447e-18 -2.28456e-18 1 

-0.191444 0.134359 0.375442 
0.0602983 0.0684177 0.00232926 
3.96987e-18 3.23898e-18 1 

-0.412876 0.391748 0.0339401 
-0.237946 0.187382 0.122109 
1.23101e-17 2.60426e-17 1 

-0.133508 0.0295949 -0.556967 
-0.0324969 0.0242108 -0.0697715 
5.53614e-18 -3.32908e-18 1 

-0.124887 -0.0173766 0.134228 
0.0299304 -0.00262315 -0.195055 
3.72719e-18 1.11371e-17 1 

-0.131676 0.00249694 -0.152331 
0.0732893 -0.0345178 -0.0537556 
-1.24333e-18 -2.13142e-18 1 

-0.257058 0.151178 -0.170651 
-0.0619845 -0.0934261 0.218958 
-5.4815e-18 -6.41653e-18 1 

-0.119101 -0.0442755 -0.0264237 
0.0401836 -0.00264095 0.144605 
-1.39959e-18 1.23883e-18 1 

-0.41338 -0.139605 0.815398 
0.698331 -0.153279 -0.11373 
2.13862e-17 -1.49874e-17 1 

-0.608016 -0.068208 0.477055 
-0.336601 0.176437 0.80489 
8.59458e-18 -9.03597e-18 1 

-0.0980067 1.85755e-05 0.0610218 
-0.0101576 0.0163915 0.0624444 
1.06799e-17 -5.35979e-18 1 

-0.456163 -0.932357 0.305228 
0.271446 0.424605 1.27339 
-3.49091e-18 9.69428e-18 1 

-0.123926 0.00647027 -1.38533 
-0.00280566 -0.0293365 -3.27754 
1.05383e-18 9.0072e-18 1 

-0.111712 -0.0284122 -0.0748201 
-0.0398781 -0.126893 -0.0228187 
6.78987e-18 1.49728e-17 1 

-0.155495 0.0251373 0.156824 
-0.0822827 -0.0248014 0.0335292 
-4.10121e-19 8.31179e-18 1 

-0.116625 0.0600132 -0.0302739 
-0.0468014 -0.0135966 -0.788536 
4.57434e-18 5.55909e-19 1 

-0.171293 -0.121594 -0.417337 
0.175485 -0.00167554 0.425441 
-1.21518e-18 5.60037e-18 1 

-0.114028 0.0102892 -0.30894 
0.00614762 -0.0464869 -0.331736 
-1.42483e-18 -7.4991e-20 1 

-0.446489 -0.102407 -0.237055 
-0.567057 0.207952 -0.213024 
-2.58217e-18 -8.52898e-18 1 

1.2234 -7.32344 -8.02073 
0.274116 1.20247 2.14082 
-5.90971e-18 7.92439e-18 1 

-0.121745 -0.0520402 -0.701179 
0.0814571 0.0277251 0.344693 
2.26024e-18 -1.95041e-18 1 

-5.61683 3.85965 -5.72232 
-2.1281 2.04144 -2.76165 
-1.89453e-17 -3.64179e-18 1 

-0.215549 0.08155 0.223408 
-0.0923262 0.168414 -0.150474 
7.56959e-18 -7.79791e-18 1 

-0.144883 0.0527688 -0.182498 
-0.0209597 0.079291 -0.636616 
9.33029e-18 -3.11796e-18 1 

-0.330624 0.428608 2.92598 
-0.405999 0.122399 0.919226 
-9.35733e-18 1.42465e-18 1 

-0.101717 -0.0243245 -0.641492 
0.052653 -0.0280468 -1.93495 
-3.12793e-18 4.53254e-18 1 

-0.170124 -0.250314 0.0464482 
0.118239 -0.0445044 0.211128 
8.82655e-20 -5.59751e-18 1 

-0.0747887 -0.102566 0.052353 
0.0787734 -0.0858741 -0.0249557 
5.208e-18 -7.10439e-18 1 

-0.214432 0.0399736 1.08641 
-0.0189976 -0.0218211 -0.0489126 
-4.24044e-18 -1.21483e-17 1 

-0.0914011 -0.0600328 0.0521663 
0.0932193 -0.0119274 0.0820711 
1.01756e-17 -1.52329e-18 1 

-0.170019 -0.149406 0.0706386 
0.103485 -0.00745931 -0.113108 
-9.26445e-18 5.20391e-18 1 

-0.104258 -0.050657 0.0685032 
0.03839 -0.0100449 0.026613 
-1.42524e-17 -1.25343e-18 1 

-0.07692 0.0176074 -0.168669 
-0.0296359 -0.0237809 0.0100315 
3.17915e-19 -2.12511e-17 1 

-0.0661287 -0.0434097 -0.915303 
0.0312866 0.0124257 -0.458537 
-4.93438e-18 1.34452e-20 1 

-0.756609 -0.758837 1.05562 
0.426613 0.309094 -0.815184 
2.46248e-18 -1.62774e-17 1 

-0.121074 -0.0108261 1.35176 
0.0106874 -0.10221 -0.834563 
8.51626e-18 3.09761e-18 1 

-0.136268 0.0423715 -0.764689 
-0.0743792 0.0146439 -0.10863 
2.89444e-18 -5.7708e-18 1 

-0.0669596 0.083574 0.17545 
0.00376411 0.00908978 0.280063 
1.11472e-17 -4.55405e-18 1 

-0.133818 -0.0237078 0.766982 
0.000607695 0.00868889 1.08171 
-6.05454e-19 -4.59595e-18 1 

-0.220424 -0.0152217 -0.222147 
-0.0114129 -0.00268676 0.167659 
-3.93262e-18 -9.52109e-19 1 

-0.137317 -0.0614559 0.696174 
0.0255053 -0.0465914 -0.249841 
-4.35812e-18 9.03983e-18 1 

-0.145895 -0.0066417 0.340073 
0.00463312 -0.0017305 -0.456608 
8.54076e-18 -8.9559e-19 1 

-0.152112 0.0297232 0.0982961 
-0.0194861 -0.0505144 -0.0233059 
1.42879e-17 -1.35259e-17 1 

-0.750561 -0.134754 -1.0122 
0.241111 0.402748 -0.512332 
1.19984e-17 -4.41733e-18 1 

-0.261249 0.000305308 -1.46082 
0.0743797 0.0634854 -2.49724 
-1.40991e-17 1.74606e-18 1 

-0.130603 -0.022396 0.954608 
-0.0117532 -0.00380776 -0.00555588 
-3.46936e-18 -6.27789e-18 1 

-1.36964 -3.8154 -47.4557 
-0.089047 0.755429 6.72474 
4.24851e-19 9.04754e-18 1 

-2.36831 4.26086 12.9526 
-0.30758 0.934635 14.2073 
-2.39677e-18 -3.65868e-18 1 

-0.356946 -0.373185 27.2424 
-0.170528 0.340812 -7.95522 
-3.50438e-18 -7.21955e-18 1 

-0.560501 1.63507 -58.8811 
-0.0318429 -0.188846 5.67451 
2.83028e-18 -4.07969e-18 1 

-0.345947 -0.164629 2.01712 
0.0401517 0.13979 4.50281 
-4.81944e-18 3.22214e-18 1 

-0.529612 -0.641335 3.25684 
0.05522 0.713894 -4.19575 
-4.40223e-18 -5.02886e-18 1 

-0.290142 -0.149851 -0.0485927 
-0.172823 -0.0669816 -0.0551163 
-3.47438e-17 -8.84629e-19 1 

-1.15787 -0.378459 1.60078 
0.254256 0.426817 -0.275921 
-4.36348e-18 -3.46327e-17 1 

-0.0523474 0.0567558 -0.0685951 
0.00445087 -0.0791385 -0.0459337 
1.58719e-17 5.19942e-18 1 

-0.105935 -0.015669 -0.216027 
-0.0209391 -0.0199058 0.0622905 
4.60968e-18 2.39558e-18 1 

-0.085732 -0.0452154 -0.125623 
0.0187627 -0.0892421 0.262035 
-8.99443e-18 -1.40804e-18 1 

-0.185856 -0.0393256 -0.0447673 
0.0112325 -0.00997211 -0.243438 
5.4291e-18 1.83312e-19 1 

-0.130769 0.0225081 0.0715604 
-0.0446492 -0.0290426 -0.0192101 
-7.4986e-18 4.64557e-18 1 

-0.0820811 0.00501852 -0.133547 
0.0221887 -0.0259404 -0.0494143 
-6.19394e-19 8.21057e-19 1 

-0.240601 -0.0664726 -1.16594 
-0.152796 0.154008 -0.191222 
-9.00995e-18 7.9706e-18 1 

-0.325563 0.0398167 1.2581 
-0.200697 0.118049 0.0621511 
-1.21785e-17 1.09068e-17 1 

-0.702623 -0.0489897 -0.714817 
0.511902 0.386888 0.576567 
-2.14722e-17 -4.4388e-18 1 

-0.116189 0.00609583 -0.13945 
-0.0811912 -0.0573004 0.487023 
-5.38011e-18 1.11445e-17 1 

-0.588881 0.198045 -0.835828 
0.109481 0.1259 1.3185 
6.87887e-19 8.51922e-18 1 

-0.144471 -0.0399811 0.0607017 
-0.00495692 -0.0390547 -0.109219 
7.42323e-18 -1.20404e-17 1 

-0.171329 -0.0312332 1.16874 
-0.0843158 0.0997476 0.603018 
1.03784e-17 -8.58526e-18 1 

-0.225552 4.39694e-05 -0.157379 
0.0060689 -0.0484466 -0.168165 
-9.96922e-18 -8.93076e-18 1 

-0.16491 -0.101738 -0.586874 
-0.0884833 0.0692455 -0.323548 
-3.96359e-19 -3.66632e-18 1 

-0.356315 -0.0279938 0.42063 
-0.0810475 0.0456579 0.150832 
6.01011e-18 -1.06737e-17 1 

-0.100568 0.00985751 -0.0597555 
-0.0329103 -0.0586818 0.0656632 
-6.00981e-18 4.55393e-18 1 

-0.114957 0.0124771 -0.57708 
0.00851207 -0.0451514 0.550539 
-4.37199e-18 2.07804e-18 1 

-0.238495 -0.0162048 0.178845 
0.0884737 0.034319 -0.393805 
-1.12777e-17 1.30529e-17 1 

-0.158629 -0.00691687 -0.0833692 
-0.0593069 -0.0457034 0.248977 
1.86465e-17 9.59429e-18 1 

-0.121488 -0.0203609 0.431093 
-0.0449203 -0.0430472 0.323956 
-4.65009e-18 -2.56032e-18 1 

-0.280466 -0.117909 1.76403 
0.245845 0.160216 0.374779 
-6.30985e-18 -9.24967e-18 1 

-0.119934 -0.00919737 -0.309666 
-0.0447483 -0.0257033 0.122831 
2.7359e-18 -5.9399e-18 1 

-0.941803 -0.679851 0.417703 
0.57604 0.470795 0.424086 
4.92068e-18 -2.09129e-17 1 

-0.0357719 -0.490516 0.124541 
0.436433 0.0153584 0.129387 
1.1471e-17 3.14804e-17 1 

-0.132211 -0.0841086 -0.0684536 
0.0860852 -0.0581614 -0.0844451 
7.19018e-19 -6.84864e-18 1 

-1.16458 -0.484042 -0.244257 
-0.00390773 0.639003 0.250792 
-3.74979e-18 2.62311e-17 1 

-0.855923 0.293936 -3.85514 
0.244147 0.383126 -0.951901 
-7.99073e-18 -8.94771e-18 1 

-0.504376 -0.635889 -1.3699 
0.567444 0.266895 -0.995919 
1.5806e-17 -2.30842e-17 1 

-0.329698 0.00899381 0.511311 
-0.0211614 0.286754 -0.282552 
-1.16652e-19 -1.52449e-17 1 

-0.106154 0.20463 -0.0209296 
-0.186834 -0.0895514 -0.0107141 
5.96888e-18 2.41268e-17 1 

-0.160729 0.0789081 -0.0603143 
-0.0313536 -0.021923 -0.0500775 
2.07134e-18 -2.07134e-17 1 

-0.131933 -0.0325814 -0.078765 
-0.0718403 -0.040633 0.0960896 
1.08703e-17 -3.15649e-19 1 

-0.397278 -0.299794 -4.91074 
-0.0975552 0.385849 2.66566 
-3.88537e-18 -1.03963e-18 1 

-0.0693223 0.333291 -0.0994722 
-0.368134 0.00935435 0.2684 
-1.21375e-17 1.45326e-17 1 

-0.0986433 0.00851561 0.101794 
-0.00353316 -0.0313243 -0.0563437 
-3.20464e-18 -1.62074e-18 1 

-0.420121 0.308726 0.178873 
-0.321705 0.0211076 0.146176 
-4.7965e-19 -6.39534e-19 1 

-0.540085 -0.775679 -2.21991 
0.048575 0.70059 0.443493 
3.63875e-18 -5.78749e-18 1 

-0.139623 -0.0786626 0.142855 
-0.0170414 -0.0754316 -0.295189 
4.11766e-18 -8.27918e-18 1 

-0.148678 -0.0364931 -0.172408 
0.0186174 0.0143836 -0.330458 
3.46594e-19 1.25021e-18 1 

-0.107141 -0.0137789 -0.256337 
0.0878254 0.0387478 0.858036 
-1.82796e-18 -9.54599e-18 1 

-0.0729663 0.0246273 0.0466643 
0.0125512 -0.00980266 0.043114 
-3.30151e-18 -1.10579e-17 1 

-0.265504 -2.16564 -10.5275 
0.339118 -0.136167 -1.15561 
1.21866e-17 -1.89666e-17 1 

-0.804548 -0.138348 -7.45724 
-0.296982 0.445337 2.39173 
-2.82923e-18 -9.24585e-18 1 

-0.119381 0.0320646 -0.0792915 
0.0074251 -0.00543276 -0.0252175 
-3.70076e-18 -1.44613e-18 1 

-0.178458 -0.0156115 0.50976 
0.0392776 -0.0447229 -0.800096 
-5.76486e-18 2.35719e-18 1 

-0.0876718 0.0979282 -0.111083 
0.0845156 -0.0340811 -0.666918 
-5.91932e-18 -9.38429e-18 1 

-0.106823 0.0160185 0.117302 
-0.0228816 0.00954006 0.0459476 
-2.98613e-18 7.90395e-19 1 

-0.488721 -0.141177 0.615696 
0.0611286 0.193365 -0.829096 
6.42193e-18 2.52262e-18 1 

-0.16589 -0.0546083 -0.173778 
0.0606387 -0.0294791 0.334107 
5.15832e-18 -7.09713e-18 1 

-0.134614 0.00836155 0.082126 
0.00234772 -0.101605 -0.0816948 
7.88258e-18 -4.92382e-17 1 

-0.155511 -0.170577 0.764217 
0.0989476 0.0354802 0.750412 
-1.08248e-18 5.16551e-18 1 

-0.318435 -0.224011 2.2866 
0.120429 0.149325 -5.55603 
-1.41025e-18 7.31568e-19 1 

-0.152309 -0.0354429 -0.39703 
0.00694071 0.0132559 -0.174094 
2.0723e-17 1.43597e-17 1 

-0.272221 -0.114039 0.445668 