# vtk DataFile Version 3.0
Output file generated by Yade's KinematicLocalisationAnalyser
ASCII
DATASET UNSTRUCTURED_GRID

POINTS 13483 float
523.961 40.8671 0.538406
595.709 90.2632 -0.464668
112.763 6.00017 -0.564465
632.633 5.57952 0.57221
443.636 12.1487 -0.316712
296.147 36.7848 -0.483652
147.504 7.16474 0.462793
496.631 16.7235 -0.147502
448.762 46.8244 0.143839
587.037 20.8639 -0.679949
199.842 8.83025 -0.0916057
244.249 6.56436 0.31928
534.542 57.4108 -0.213854
529.824 27.7593 0.0862546
129.057 18.4994 0.53625
209.672 35.2408 0.42108
207.062 12.8585 -0.335286
272.567 10.6204 0.487649
321.628 35.9594 -0.439665
463.768 7.73274 0.562396
383.16 37.7895 -0.119211
507.68 56.9432 0.278612
626.461 76.2515 0.456514
558.223 81.5601 -0.333441
422.176 17.8069 0.341182
227.404 48.0072 0.151115
454.775 55.0048 -0.488111
505.61 32.2927 -0.270722
40.4126 16.497 -0.250517
574.324 56.9176 0.319305
434.63 7.44817 -0.43859
15.2966 24.6993 -0.338594
609.278 82.7115 0.283441
441.061 4.61727 0.669691
73.0748 45.4362 0.107775
458.568 40.1377 0.369746
468.236 17.5481 0.658276
323.356 24.9431 0.184548
469.037 30.6813 -0.291171
330.635 37.2543 -0.522246
229.165 15.2828 0.359479
404.043 40.8499 0.0803963
555.811 7.06767 -0.243187
182.402 6.2465 0.364732
50.5377 7.23929 -0.103948
63.2289 9.01498 -0.282044
569.21 10.0024 -0.608425
20.5422 12.7502 -0.304661
494.745 71.368 -0.356766
561.251 31.7866 0.319319
163.231 33.0121 -0.335626
589.062 79.5162 -0.165325
31.4889 30.138 -0.129747
473.004 4.11286 0.580055
134.116 7.14096 -0.492606
511.025 44.4575 0.482046
462.677 57.9458 0.126448
165.465 0.953228 -0.286855
28.9869 2.35086 0.345566
328.456 19.4434 0.32715
503.893 81.5004 -0.131997
429.691 46.7258 -0.186675
373.259 1.02693 0.2149
577.635 8.62208 -0.567487
24.8064 46.4309 0.235657
242.7 33.6488 -0.371648
589.489 13.6271 -0.206578
523.968 84.4484 -0.343154
390.748 8.08245 -0.585051
497.01 10.1598 -0.509384
604.487 51.339 0.434524
123.246 7.81323 0.273481
459.165 57.3375 -0.153122
434.746 25.9413 0.10117
278.362 17.4294 -0.372812
18.0026 14.7736 -0.264741
616.152 72.3458 0.355147
314.188 41.7902 -0.281593
559.297 24.0848 0.60829
569.254 14.3562 0.269925
624.259 13.5786 0.325134
430.639 49.1435 0.191976
87.033 39.6002 -0.272025
543.924 75.4437 -0.219967
538.029 67.9659 -0.13824
635.22 81.82 -0.143854
615.65 2.0192 -0.540928
274.266 30.232 -0.562366
532.562 6.03461 0.215001
22.0951 6.50794 -0.655005
125.789 40.0313 -0.158641
456.091 15.9912 0.328339
616.707 66.0321 -0.462847
186.047 29.1016 0.268547
41.1532 35.9807 0.283532
441.354 3.37058 -0.192748
225.077 9.2508 -0.443135
604.45 60.8813 -0.338941
624.642 63.1774 0.212678
340.138 23.5422 -0.265709
154.677 27.9976 -0.475759
473.365 57.26 -0.459036
357.474 18.246 -0.443473
388.242 31.6317 0.140287
355.584 6.7987 0.515669
481.389 14.3975 -0.195611
635.176 15.2486 0.150762
75.0662 40.3651 0.388677
316.938 5.71523 -0.285974
492.1 15.0758 -0.441744
339.91 48.0252 0.536213
22.4601 27.437 -0.509788
27.3068 5.92929 -0.337431
489.468 51.4188 0.517307
451.885 31.5387 -0.201085
23.9063 40.2644 0.444451
88.1218 31.8329 -0.241497
308.438 17.4878 -0.317425
518.67 21.9339 -0.231634
438.411 58.8163 -0.293302
600.119 17.4438 -0.459494
594.577 11.3646 -0.171955
365.153 40.9245 0.13181
521.457 63.4257 -0.134839
228.021 17.6211 -0.573913
313.257 3.82796 0.568905
97.9231 32.1545 0.401896
109.924 24.3894 -0.272176
470.812 55.5394 -0.0794725
291.035 19.461 0.519066
573.222 64.9109 0.120947
529.189 83.5914 -0.104134
436.157 37.0858 -0.457953
632.237 44.1551 0.247025
402.528 24.6921 -0.218832
262.899 24.9267 -0.299256
562.042 44.2369 0.286868
264.55 30.7458 0.481648
501.805 25.0567 -0.252007
315.397 38.4693 0.203655
450.308 13.7899 0.693273
346.729 34.9425 0.0835495
403.043 18.0934 -0.102452
301.69 44.4232 -0.447604
182.392 30.3759 0.147563
600.358 87.3123 -0.144542
633.154 14.9042 0.361413
6.09582 13.1883 -0.435208
404.597 25.0134 -0.388269
35.1458 24.2368 0.069935
356.268 33.9257 -0.6156
372.681 24.2864 -0.273298
70.2461 12.3079 0.51042
48.5509 34.012 -0.496114
216.883 13.8478 0.465736
507.922 75.3606 -0.388098
502.352 33.6667 -0.477121
70.0651 21.4645 0.511271
562.513 83.504 0.403378
605.094 14.8654 -0.601995
552.246 58.3085 -0.550935
573.048 1.71935 0.643514
479.446 47.0366 0.419995
508.644 58.0898 -0.625221
459.712 18.498 -0.551506
630.208 3.75617 -0.469467
214.434 25.1745 -0.119029
122.046 36.3343 0.202397
237.139 6.65239 -0.426107
88.639 4.47315 0.287451
59.6132 10.2929 0.170747
262.928 38.8095 0.376727
14.9364 26.5572 -0.353223
489.921 27.069 0.450214
501.667 66.8465 0.199484
426.058 30.581 -0.343035
620.85 88.1742 0.395111
384.22 8.63416 -0.158899
408.231 44.104 -0.593304
479.894 3.27171 -0.264117
19.7958 26.4417 0.42614
503.94 5.68184 0.564997
486.05 10.106 -0.49004
198.247 11.3619 0.51887
400.036 16.2612 -0.251338
297.919 6.60112 0.32466
367.355 19.6137 0.378515
591.002 59.0052 0.150144
184.742 26.1475 0.449145
611.096 13.0219 0.463245
591.454 55.0427 0.420033
363.101 10.3891 0.307258
590.241 2.34159 -0.366212
526.151 39.456 0.425962
599.565 32.8586 -0.454047
401.394 50.4904 -0.317639
446.917 17.0697 0.358213
429.355 60.1112 0.233794
416.769 9.80839 -0.218872
555.586 56.7652 0.285727
551.208 54.1099 0.382788
184.753 39.3436 -0.419269
622.719 14.9298 -0.171608
507.845 60.9218 0.287812
10.0827 19.3445 -0.212156
386.329 25.7451 0.428421
179.905 23.6844 0.417624
88.6222 40.5441 0.219441
629.613 58.075 0.437669
551.303 65.3979 0.244812
304.813 27.69 -0.339588
477.079 10.152 -0.421826
78.1138 45.6322 0.17842
237.884 27.8146 -0.489377
486.426 36.4448 0.343187
444.976 32.5966 -0.505777
252.294 0.904034 -0.414708
481.574 62.8901 -0.388311
473.451 69.1001 0.444907
449.578 59.6228 0.426199
447.724 1.75511 -0.648151
573.999 27.078 -0.558926
172.026 12.5471 -0.224855
465.064 72.3787 0.432228
490.722 58.4605 0.129552
68.5425 0.994305 0.318221
242.139 4.86867 0.228313
631.731 18.8099 0.207772
623.906 18.0032 -0.632612
635.601 23.5148 -0.696501
290.481 8.73653 -0.24463
602.208 41.0319 0.408994
383.151 47.0612 -0.474053
421.051 0.819687 0.524017
541.37 60.8938 0.525297
24.1728 33.4731 0.358578
315.718 44.8013 0.591395
243.031 3.08884 0.421824
613.244 79.4016 -0.208117
578.977 78.257 0.219364
274.737 12.0892 0.284228
554.9 45.7873 -0.128019
494.851 2.88105 0.467273
484.656 10.1608 0.582696
91.8845 18.7412 -0.54658
290.298 1.1418 -0.231324
326.962 2.27517 -0.370727
12.8227 7.9229 -0.618625
4.24267 33.8203 0.330955
154.76 19.5684 -0.390596
64.5212 42.8371 -0.229394
62.1747 29.8904 -0.317725
400.536 14.3998 -0.567344
349.791 38.4638 -0.515872
586.705 81.961 -0.123051
18.2829 4.49988 0.291608
66.2807 7.19688 0.149611
518.005 77.4306 -0.137917
281.804 1.15382 0.419956
347.097 17.9193 -0.211059
227.157 4.95085 0.384861
549.381 38.9855 0.198069
422.423 8.8553 0.548377
605.977 40.9392 -0.381476
522.06 66.746 0.314471
557.366 23.7265 0.164739
399.59 30.3097 0.515564
97.3918 46.6805 0.310341
471.055 62.1261 0.0799585
600.448 26.2571 0.25182
229.321 32.7031 -0.252052
28.9688 19.0482 -0.220839
321.428 14.8406 0.514659
102.584 42.0491 -0.483383
256.806 45.6873 -0.243972
404.607 2.42092 -0.249194
612.885 69.0423 0.395126
567.042 0.685234 -0.54188
317.498 4.1564 0.537612
287.199 27.4577 0.167624
430.915 56.9812 0.209702
76.8331 8.78246 0.516947
189.96 46.1913 0.396623
595.57 72.6796 0.358856
459.324 72.958 0.0667042
192.521 42.3353 -0.29839
155.007 44.1365 0.406752
634.753 76.2202 -0.529842
633.729 16.1692 -0.688162
524.76 3.45349 -0.635075
183.302 25.1438 -0.105754
479.903 42.6675 0.144491
481.761 43.2585 -0.314733
388.564 5.49369 -0.186953
438.361 0.885509 -0.508489
585.084 82.9258 -0.481909
80.9371 31.8633 -0.267361
553.612 33.2222 -0.496983
262.532 16.0331 -0.474024
8.39238 2.49656 -0.417792
120.388 38.1611 0.201059
63.734 23.0664 0.471597
566.786 70.961 0.306647
611.153 96.2319 -0.16098
178.631 29.0139 0.20319
628.47 14.1132 0.600669
42.5826 37.8427 -0.281024
86.9715 30.1483 -0.182763
536.637 31.4975 0.608175
392.069 19.6916 -0.584975
466.526 18.2475 0.208335
230.053 30.8076 -0.23923
537.478 6.97406 -0.601472
636.578 16.7242 0.434012
26.972 34.2438 -0.302579
259.28 7.8102 0.206736
214.698 15.4905 0.256393
1.04453 38.4622 0.146701
217.871 15.1163 0.410104
204.582 11.1331 -0.128416
206.739 27.3935 -0.306662
128.865 29.8404 -0.154273
484.572 22.3509 0.488028
160.168 14.5811 -0.327743
607.693 81.7045 -0.237627
167.389 3.84824 0.518266
44.0304 38.9314 0.362282
597.176 66.3141 -0.524918
269.187 33.9624 -0.413098
563.967 32.8603 0.541635
623.482 70.2743 -0.4766
288.6 9.42472 0.130319
592.835 47.0395 0.419406
315.337 2.47825 -0.382221
396.458 26.2489 -0.400393
561.478 21.0533 -0.512627
100.439 11.964 -0.520689
438.73 5.5559 0.724993
608.77 41.4448 -0.211236
83.391 7.74429 -0.317853
269.99 15.5804 0.198039
401.734 12.277 -0.279382
630.756 2.37756 0.566522
377.991 1.99833 -0.560707
170.512 39.3364 -0.354209
603.082 23.8877 -0.322932
123.652 37.6585 -0.210373
252.359 33.8848 -0.52072
381.276 22.1791 0.202685
504.332 26.4795 0.482955
367.484 10.3011 -0.507309
433.214 42.0354 0.275177
596.924 89.896 0.378937
43.572 12.0949 -0.213135
286.751 39.5575 0.27336
361.826 31.5 0.46431
389.24 22.3008 0.293341
470.44 67.7981 -0.380059
612.615 63.5502 -0.185875
556.054 50.9507 -0.394161
218.269 35.011 -0.413874
12.3533 35.5093 0.209662
550.199 55.7435 -0.150638
475.85 76.0122 0.399258
221.044 40.9348 -0.132909
563.256 57.9569 -0.111556
144.749 9.67526 0.220758
349.098 24.0775 0.308537
431.274 59.0329 -0.105399
393.142 20.8661 0.274071
592.175 92.6192 -0.290954
405.212 5.10029 0.644402
46.3873 26.2422 -0.366928
442.084 52.9926 -0.371134
407.072 50.8264 0.389288
610.095 75.489 -0.219591
590.501 45.622 0.285232
479.846 25.1523 -0.188415
600.799 79.8135 0.477882
281.429 2.52727 -0.448605
360.666 33.9108 0.594682
27.1827 41.7686 -0.305755
594.734 48.1768 -0.129449
528.089 21.7788 -0.724661
431.492 2.29878 0.538149
120.461 4.7696 -0.354068
401.437 44.4834 0.131801
10.8611 0.896299 0.363296
628.363 7.04078 -0.164288
353.274 43.6671 -0.41261
[...]
POINT_DATA 13483
TENSORS Strain_matrix float
-1.07136 1.53626 -22.5756 
0.655899 -0.0822928 -2.95533 
5.00568e-18 2.94284e-18 1 

-0.721212 0.17989 -90.0882 
0.0660773 0.267671 3.88663 
4.77335e-18 -4.74477e-19 1 

-0.173627 0.0292822 -1.80596 
0.0184505 -0.0274269 0.137857 
-8.2699e-18 -1.70298e-18 1 

-0.919646 0.0352283 0.210613 
0.0463266 0.014858 0.305117 
-2.60778e-18 1.12154e-17 1 

-1.32593 -0.240045 0.857304 
-0.356866 0.260447 0.0614323 
-4.59989e-18 2.43524e-18 1 

-0.162869 -0.107115 0.0290968 
0.111095 0.00733985 -0.858327 
-5.42838e-18 -2.3926e-18 1 

-0.174632 -0.00696623 -0.849592 
-0.0132763 -0.04026 0.665482 
1.30721e-17 4.13924e-18 1 

-0.406698 -0.0841 -0.463871 
0.165204 0.0721323 -0.328574 
2.02786e-18 -2.70382e-18 1 

-3.24206 3.44322 0.418577 
0.112875 0.842688 -0.624197 
-2.05885e-18 -1.86467e-17 1 

-0.938785 -0.445733 -5.10797 
0.233062 0.289643 -2.92963 
1.80688e-17 -2.58539e-17 1 

-0.111357 -0.00963134 -0.161959 
0.013219 -0.0740272 0.0933217 
-2.09282e-19 1.49288e-17 1 

-0.32366 0.0795359 -0.544597 
-0.0296544 0.0500122 -0.777402 
6.83466e-18 1.24632e-17 1 

-0.0887838 0.576803 -0.695267 
-0.623836 0.315068 -0.377291 
7.71509e-18 1.33228e-17 1 

0.0044779 -0.760973 0.356607 
0.681223 0.25986 0.750181 
1.91207e-17 7.55226e-18 1 

-0.367875 0.0841349 2.86191 
0.00480814 0.14383 0.632207 
-4.0593e-18 -1.84066e-18 1 

-0.160722 -0.0330395 0.609552 
-0.0993726 0.00538062 0.572061 
1.18082e-17 9.93161e-18 1 

-0.116625 -0.0545095 0.255814 
-0.0128221 -0.141467 0.0189843 
3.88925e-18 4.02887e-18 1 

-0.327209 -0.0250436 -0.0197725 
0.195056 -0.108571 -0.0834274 
-3.2174e-18 4.94984e-18 1 

-0.309481 -0.132806 1.87565 
0.128262 0.0444478 0.568135 
1.91649e-17 -3.66884e-18 1 

-0.177183 0.0300007 0.999319 
-0.128108 -0.135952 0.288824 
1.22524e-17 1.4805e-17 1 

-0.44655 -0.344656 -0.28208 
0.138466 0.231651 -0.262951 
1.21365e-17 6.52013e-18 1 

-0.931213 -0.621869 -0.602872 
0.00699992 0.193268 0.585107 
1.86362e-17 -3.00541e-17 1 

-1.40258 0.0026768 6.95976 
0.141993 0.47646 -0.203594 
7.14814e-18 -2.0941e-18 1 

-0.102365 0.303258 1.34016 
-0.0984323 0.0136531 1.28142 
-3.73668e-18 1.30048e-17 1 

-1.06931 0.0262307 -0.0459169 
-0.424802 0.591586 0.863739 
1.43394e-17 -1.69606e-17 1 

-0.488149 0.0397897 -0.77648 
-0.013481 0.260629 -0.193047 
1.23291e-17 -5.74231e-18 1 

-1.941 0.597565 37.9752 
-0.405549 0.992738 12.8671 
3.96312e-18 3.74048e-18 1 

-0.119291 0.0762683 -0.319057 
-0.158416 -0.0812435 1.25943 
-1.08526e-17 1.11602e-17 1 

-0.166793 0.0899499 0.268914 
0.133631 -0.0838759 -0.37095 
2.99809e-18 2.5066e-18 1 

-2.11231 -0.0813423 5.21406 
-1.07319 0.20787 3.55197 
-1.27017e-17 5.35039e-18 1 

-2.61596 2.7465 -1.19875 
-0.296376 0.84555 -0.300848 
3.16232e-18 -1.39968e-17 1 

-0.371476 0.0824728 0.992193 
-0.0480742 0.0586781 -1.19723 
5.30521e-19 1.37493e-17 1 

-0.104811 -0.105127 -1.5657 
-0.233238 0.0655214 1.0686 
1.67355e-18 1.2637e-17 1 

-1.29085 -0.111467 5.43349 
-0.072702 0.547492 -2.77045 
-2.67358e-18 -9.30801e-18 1 

-0.0995612 -0.0198468 -0.20684 
-0.0161738 -0.0985862 -0.324314 
-6.11105e-19 -1.42591e-17 1 

-0.499357 0.21923 1.92294 
-0.242904 0.315175 0.0389897 
-5.21061e-18 1.00294e-17 1 

-0.675799 0.0843488 -7.90079 
-0.141722 0.203892 4.5653 
7.86982e-18 -1.13757e-17 1 

-0.554299 0.245739 -0.621481 
-0.0754629 0.279201 -0.220102 
-9.50651e-18 7.33264e-18 1 

-0.308765 0.277636 0.592521 
0.161914 -0.0466877 -0.404316 
-1.36561e-18 7.43161e-18 1 

-0.268849 -0.029931 -0.684619 
-0.0149695 0.0858886 -0.766375 
-1.39702e-18 8.48199e-18 1 

-0.148237 -0.0274266 -0.0673753 
0.0431098 -0.114209 -0.0446611 
-6.55111e-18 8.15964e-18 1 

-0.153692 -0.492858 0.10793 
0.374639 0.132299 -0.691666 
8.06078e-18 3.92792e-18 1 

-0.893263 0.0467867 -0.207791 
-0.399584 0.151535 -0.26199 
5.88393e-18 4.35189e-18 1 

-0.146835 0.0156944 0.186731 
-0.0620891 -0.0755634 0.964757 
4.49158e-19 -2.1728e-17 1 

-0.112459 0.0413023 0.0213809 
-0.0725458 -0.0607032 0.096554 
8.56014e-18 2.71143e-18 1 

-0.0858426 -0.0375408 0.109155 
0.00120925 -0.0685864 -0.0970581 
-5.57409e-18 -7.25124e-18 1 

-0.384062 -0.110094 0.870357 
0.0276763 -0.0332652 0.181496 
-3.21415e-18 1.8137e-17 1 

-0.101577 -0.126907 -0.137822 
0.0786555 -0.062668 0.292377 
8.73802e-18 -1.22639e-18 1 

-1.84572 -1.1153 -4.29268 
0.694994 0.641885 -3.62752 
-1.57848e-18 -1.28431e-17 1 

-2.32667 1.49664 1.29368 
-0.816398 1.20485 2.52342 
-5.12847e-18 -1.26871e-17 1 

-0.162262 0.020824 0.0463341 
-0.0540186 0.0160855 -0.201133 
-1.39096e-18 -5.36184e-18 1 

-0.231266 -0.00116108 0.0123767 
0.156721 -0.0394103 0.678458 
9.85633e-20 5.05137e-18 1 

-0.109678 0.0607703 -0.126751 
-0.0444014 -0.0261173 0.102067 
1.03246e-17 -7.71935e-19 1 

-0.392176 0.0373077 1.64294 
0.0196741 -0.0690952 -0.236727 
-1.12352e-17 -2.59918e-18 1 

-0.13678 0.034864 0.0811076 
0.0420956 -0.150375 0.490387 
-2.48499e-18 -9.02115e-18 1 

-0.249756 0.123159 -2.44435 
-0.166465 0.0837976 0.132205 
-8.34236e-18 -2.41831e-18 1 

-6.62367 4.26183 -0.991408 
-3.69515 2.69276 6.47689 
-1.33631e-17 3.05316e-18 1 

-0.139428 -0.20925 -0.431035 
-0.00128262 -0.00143031 -0.10515 
-4.12664e-19 8.4962e-17 1 

-0.109228 0.0688221 0.362879 
-0.0804186 -0.130346 0.775609 
-2.99725e-18 6.66056e-19 1 

-0.166528 -0.0618049 0.050355 
0.00611343 0.0217709 -0.593544 
-2.99835e-18 1.30736e-17 1 

-3.15925 5.17839 2.33734 
0.0624759 0.819711 1.3821 
4.32092e-19 2.96673e-18 1 

-0.0285192 -0.682406 0.98811 
0.3759 0.218482 -0.517489 
8.14427e-19 -9.50165e-20 1 

-0.164104 -0.145589 -0.218655 
-0.0245485 -0.0533887 -0.118586 
2.66601e-18 7.4528e-18 1 

-0.940175 -0.104339 9.70008 
0.0723251 0.334096 -0.556544 
5.66312e-18 -1.17982e-19 1 

-0.179068 0.161707 -0.223436 
-0.134202 0.0986617 0.335942 
3.19595e-18 4.73474e-19 1 

-0.408252 0.0189027 -0.518799 
0.115791 0.157055 -0.0477356 
-3.0758e-18 -3.53281e-18 1 

-0.773732 -1.08261 -0.989133 
-0.0671412 0.042781 -0.74109 
-1.70787e-18 -3.21242e-18 1 

-1.96622 -9.19928 59.4706 
-0.0271908 0.507674 -5.11654 
-5.59416e-18 -5.7107e-18 1 

-0.209755 -0.0195495 0.182307 
-0.131851 -0.186759 1.48443 
-3.82719e-18 5.88799e-19 1 

-1.35515 0.658597 -0.600443 
-0.62955 0.547955 -1.009 
-4.43301e-18 1.95599e-17 1 

-0.181379 -0.207352 -0.18647 
0.244773 -0.0433938 -0.293781 
1.41018e-17 8.19036e-18 1 

-0.139799 0.0448058 -0.177731 
-0.0708508 -0.0389535 -0.0378875 
-5.03121e-18 6.45308e-18 1 

-2.48809 2.14144 6.10781 
-0.498388 2.03164 3.62723 
-1.6501e-18 -2.37921e-18 1 

-0.561731 0.0855384 -0.364712 
0.499891 0.335991 0.229929 
6.86695e-19 -1.12992e-17 1 

-0.117842 -0.013862 -0.266126 
-0.0571962 -0.0607189 -0.208798 
2.53123e-18 7.58169e-18 1 

-0.164114 -0.0431993 -0.0650665 
0.0271637 -0.039576 0.119554 
2.42672e-18 -9.90682e-18 1 

-0.105614 -0.271524 29.011 
-0.0224179 0.177903 -5.65495 
4.57626e-18 -5.82433e-18 1 

-0.208983 -0.0610161 -0.367776 
0.0762248 0.0536051 0.52175 
-1.20007e-17 -7.84661e-18 1 

-0.952111 0.304204 -3.0359 
-0.163747 0.186453 -0.116022 
1.24444e-17 -1.95986e-18 1 

-0.180832 -0.120453 0.0715991 
0.165414 -0.105415 0.327671 
-1.2731e-18 -3.50853e-18 1 

-1.82561 0.4452 -0.845246 
0.0263161 0.671865 0.669276 
1.38721e-18 -1.50145e-17 1 

-0.0943614 -0.803524 -0.183091 
0.45523 0.295541 -0.11163 
1.19135e-17 -2.72373e-18 1 

-0.0879229 -0.0149253 0.117813 
0.0141447 0.0486296 -0.185733 
-5.68741e-18 1.40408e-17 1 

-9.70794 -12.0219 -18.6924 
2.50595 3.49144 6.11755 
-1.16547e-17 -6.13809e-18 1 

0.0152396 0.627863 0.545763 
-0.814209 0.307822 0.335163 
1.30171e-17 1.6874e-19 1 

-0.604289 0.269999 1.46667 
-0.258763 0.374045 0.10093 
-2.74317e-18 -8.07364e-18 1 

-2.17356 -0.251273 1.93508 
-0.0167947 0.817257 1.0807 
1.06296e-17 4.25184e-17 1 

-0.210258 0.0473698 -5.15292 
-0.0686277 0.0783357 -8.76917 
-2.5052e-18 -6.9938e-18 1 

-0.488721 0.322268 0.00774069 
-0.0339312 0.0174189 0.326471 
3.21107e-19 -6.27162e-18 1 

-0.223058 -0.00159464 -11.39 
-0.000909189 -0.0414725 -3.17257 
3.40165e-18 -5.47916e-18 1 

-0.100294 -0.144373 -0.041121 
0.110546 -0.0400914 0.257297 
5.6233e-18 6.53766e-18 1 

-0.350898 0.512129 -0.609568 
-0.329591 0.127345 0.0125906 
-2.9232e-18 -2.88514e-18 1 

0.702173 -7.32727 -27.9862 
0.428853 1.77106 12.122 
3.36965e-18 -2.09465e-18 1 

-0.206661 -0.0214015 0.0255524 
-0.0782186 -0.0367419 -0.0291546 
8.79693e-18 -3.95862e-18 1 

-0.11678 0.0709144 0.011865 
-0.127305 0.0197044 -0.252697 
1.547e-18 1.77157e-18 1 

-1.88828 0.319064 0.295097 
0.146945 0.563854 0.478892 
-7.63688e-18 -8.7481e-18 1 

-0.203832 0.00710677 0.231981 
-0.026086 -0.114739 -0.76836 
1.66713e-17 1.12753e-18 1 

-0.341761 -0.113575 -0.101411 
0.294259 0.122247 -0.103336 
-5.91457e-18 -6.30241e-18 1 

-5.23262 -2.4883 4.47717 
0.732222 0.984109 0.181302 
-1.8384e-17 -3.40445e-18 1 

-0.447429 0.135016 0.314176 
0.0776378 0.329807 -0.464699 
-9.39626e-20 4.55719e-18 1 

-0.123337 0.0411369 -2.2243 
-0.0776445 0.00412983 -0.573438 
1.91134e-18 1.86855e-18 1 

-0.453163 -0.407349 -3.51475 
0.387728 0.383164 -0.909031 
7.0636e-18 -7.13049e-18 1 

-0.316755 -0.016237 -0.567945 
0.00580054 0.0121783 0.566671 
-9.48255e-18 -1.39727e-17 1 

-0.181621 -0.346855 -0.0659664 
0.257528 0.0327473 0.0128281 
2.51559e-18 4.62923e-18 1 

-0.372555 -0.214617 -0.226518 
-0.296586 -0.0948845 -0.616642 
3.11063e-18 -1.21151e-17 1 

-1.4234 -0.78552 -0.0998184 
0.756548 0.396881 0.0865486 
7.21818e-18 1.00559e-17 1 

-1.16981 -0.341228 0.231364 
0.388115 0.351695 -0.543548 
-2.41153e-17 1.09141e-17 1 

-0.158597 0.045276 -0.359504 
-0.0464522 0.00825667 -0.670959 
1.21499e-18 -7.15496e-18 1 

-0.268951 0.00946141 -0.0361688 
0.12873 -0.0762809 0.32707 
7.70971e-18 -3.68725e-18 1 

-0.635849 0.438103 -1.19795 
-0.248265 0.101752 -0.428061 
4.39796e-18 9.22291e-18 1 

-0.23167 -0.554906 -31.0022 
-0.00819577 0.810284 11.0791 
-1.11988e-18 -6.08067e-18 1 

-0.262583 0.0633388 -1.97311 
-0.0929973 0.00598358 -0.445577 
2.81398e-18 5.92086e-18 1 

-0.281421 0.191278 0.0250344 
-0.213241 -0.0120449 -0.120724 
-1.13032e-17 -4.25388e-18 1 

-0.600578 0.0849809 1.95926 
-0.142326 0.308941 -10.315 
2.90977e-18 2.06344e-18 1 

-0.934031 0.263486 0.743045 
-0.450764 0.643082 0.554488 
1.0015e-17 -7.53129e-18 1 

-0.134501 0.0473345 -0.171428 
-0.0913214 0.0456723 -0.399611 
5.9756e-18 1.02612e-17 1 

-0.132178 -0.0949873 0.244093 
0.0926372 0.00757633 -0.420815 
6.14714e-18 1.02545e-17 1 

-0.16934 0.0971934 -0.0796271 
-0.042779 -0.0806922 -0.0156324 
-1.10127e-17 6.25944e-19 1 

-0.764607 1.15012 2.55807 
-0.508615 0.464997 -0.88434 
8.93507e-18 1.80032e-17 1 

0.117527 -0.662593 -0.184524 
0.687326 0.231873 -0.385292 
1.06986e-17 -5.58551e-18 1 

-0.602803 -0.565843 -0.119353 
0.789707 0.16462 0.317075 
-1.09024e-17 2.44213e-18 1 

-2.33895 -0.765852 0.322614 
0.183715 0.634682 0.400321 
-3.67076e-17 1.12859e-17 1 

-0.107354 0.0784791 -0.0901704 
-0.0802376 0.0143996 -0.0559083 
-1.53079e-17 -1.12174e-18 1 

-1.07757 -2.35766 -4.36812 
0.0820902 0.600546 0.748188 
6.1036e-18 6.05554e-18 1 

-0.182827 0.0067399 3.07828 
0.053171 -0.0412349 -1.30403 
-8.1165e-19 -8.3856e-18 1 

-0.258108 0.0377301 -0.787664 
0.0549633 -0.0891956 1.48564 
3.44626e-19 -5.66256e-18 1 

-0.136446 0.08689 0.142927 
-0.109474 -0.0180942 0.0543178 
1.86768e-17 -9.56804e-18 1 

-0.237019 0.183946 -0.131913 
0.0832125 0.0542651 -0.394438 
-4.56405e-18 1.26573e-17 1 

-0.509364 -0.47383 1.0118 
0.957463 0.627776 1.8249 
1.21292e-18 -4.8517e-18 1 

-0.258398 0.0864597 -0.725337 
0.107407 -0.0249161 0.523684 
-5.14836e-18 9.84903e-19 1 

-0.392442 0.200234 -0.0136995 
-0.599155 0.313729 -0.114613 
4.68253e-18 5.46296e-19 1 

-5.15418 -9.38443 14.9797 
0.374369 1.03325 -1.69901 
6.15076e-19 -2.01298e-18 1 

-1.47522 2.79667 -5.86257 
0.512421 0.0297838 3.72709 
-2.23902e-18 -6.025e-18 1 

-2.94041 0.621874 -2.93437 
-1.06954 0.977319 -2.17657 
2.09671e-18 -3.59436e-18 1 

-0.882039 1.03557 1.34081 
0.213041 0.485821 1.20531 
1.7628e-17 1.34614e-17 1 

-0.302757 -0.0297281 2.5155 
-0.179542 0.299982 0.0636157 
9.88462e-18 -6.59538e-19 1 

-0.131956 0.291269 -2.41791 
-0.276129 -0.00615097 0.518629 
-4.49404e-18 -1.41797e-17 1 

-0.171304 -0.0360352 -1.54355 
-0.0805288 0.057719 -3.16235 
1.49411e-18 2.46805e-18 1 

-1.49779 0.1549 0.0309014 
0.345899 0.794339 0.32459 
-1.00594e-17 4.15073e-18 1 

-0.0792217 -0.22838 0.13477 
0.178264 -0.0238263 0.0720531 
6.29001e-18 1.34447e-17 1 

-0.624707 0.211993 4.79547 
-0.275058 0.316374 15.7226 
9.66902e-19 3.06186e-18 1 

-0.157064 0.0230968 0.0150398 
-0.0233691 0.015607 -0.0472725 
-2.44611e-18 -2.51222e-18 1 

-0.143937 -0.542864 0.264803 
0.497326 0.18815 -0.101524 
9.64269e-18 -7.33504e-18 1 

-0.133237 -0.110582 0.128662 
0.0965433 0.000313973 0.150675 
-4.64904e-19 1.37534e-18 1 

-0.0967399 0.0413505 -0.180252 
-0.0633495 -0.0259363 -0.0866816 
3.59494e-18 5.28487e-18 1 

-0.206685 -0.199081 0.436546 
-0.182036 0.202104 -0.516673 
8.10579e-18 -4.59328e-18 1 

-0.72382 -0.699154 1.03995 
0.289917 0.299167 -0.957795 
-2.7612e-17 -3.35199e-18 1 

-0.117892 0.0440595 1.01666 
0.11559 -0.0561369 -0.860057 
9.75619e-18 1.48085e-18 1 

-0.447825 0.79095 -3.14637 
0.0393794 0.402372 -1.77149 
1.23753e-17 7.8677e-18 1 

-0.0423971 0.366863 0.716616 
-0.219439 0.0640212 -0.36742 
2.19266e-18 4.35474e-18 1 

-0.262768 -0.0631288 21.4851 
0.0057834 0.0647313 0.211145 
7.43777e-19 -1.89851e-18 1 

-0.291993 0.0133278 -1.23714 
-0.194114 0.220838 -0.0377045 
-9.80306e-18 9.18064e-18 1 

-0.171355 -0.0865515 0.0997061 
0.0640163 -0.0371528 -0.974849 
-2.72119e-18 2.89023e-18 1 

-0.188726 -0.0121121 1.99512 
-0.0242862 -0.00221445 0.85923 
-3.11672e-18 -4.11425e-18 1 

-0.178023 0.0063747 0.0216453 
0.0410481 -0.0513508 0.113922 
-1.07245e-17 6.45214e-18 1 

-0.29641 -0.0900502 -0.756595 
0.502173 0.147551 0.154297 
-9.15958e-18 -8.15177e-18 1 

-0.544899 -0.535352 1.6149 
-0.251837 0.0996759 0.388683 
-1.15291e-17 5.76453e-18 1 

-0.173415 0.0171435 0.748711 
0.0219138 0.00568104 -1.10587 
-3.73794e-18 -8.80156e-18 1 

-2.56444 -4.49774 -85.2732 
-0.0910746 0.763639 23.2577 
-5.14699e-19 -4.11759e-18 1 

-7.32007 4.7991 20.7498 
-0.142045 0.781409 8.6773 
-1.84836e-18 -6.61517e-18 1 

-0.332885 0.27879 -17.3507 
-0.438658 0.161028 -2.47499 
1.19167e-18 -3.84385e-18 1 

-0.275797 -0.0106691 1.0031 
-0.0994949 -0.254994 0.249632 
-1.14461e-17 -2.12083e-17 1 

-2.11169 0.832163 -1.71855 
-0.988962 0.901848 1.12515 
-3.4837e-18 1.33167e-17 1 

-1.05227 -0.0783254 -76.3274 
0.135135 0.610383 24.443 
-1.60399e-18 -5.26401e-19 1 

-0.578873 0.25608 1.40986 
-0.110498 0.175322 -0.507141 
6.59449e-18 -6.94508e-18 1 

-1.17171 -0.27326 1.56196 
0.259032 0.377947 -0.350216 
-3.97421e-18 -6.35873e-19 1 

-0.0652091 0.0408075 -0.0311165 
0.0172528 -0.0595675 -0.049406 
-3.70095e-18 2.17703e-18 1 

-0.111908 -0.0960768 -0.227065 
0.0561517 -0.0306071 -0.0367459 
3.18326e-18 -4.54229e-18 1 

-0.120615 -0.0227114 -0.461515 
-0.0175934 -0.0602767 -1.81075 
-2.76087e-18 -2.74042e-18 1 

-0.222809 -0.0579127 -0.00728769 
0.0128386 -0.00175548 -0.262071 
1.05657e-17 2.47685e-18 1 

-0.158599 0.00432264 0.0250103 
-0.0451824 -0.0277349 -0.0206475 
-6.00709e-18 4.14775e-18 1 

-0.0982643 0.102848 -0.353232 
-0.0514035 -0.0245274 0.206164 
-8.29502e-18 7.7693e-19 1 

-0.60431 -0.141531 -0.222018 
-0.0532332 0.372462 -0.00606856 
-1.4164e-17 6.44836e-18 1 

-0.760788 -0.284818 -0.8809 
-0.294059 0.278886 0.173169 
5.2076e-18 -2.00135e-17 1 

-0.475693 -0.78475 0.256758 
1.06369 0.849092 -0.480844 
3.20681e-18 1.66587e-18 1 

-0.885887 1.30491 1.41459 
-0.266338 0.198581 1.60554 
3.88422e-18 -2.30176e-18 1 

-0.398839 -0.0361435 0.454981 
0.0351145 0.169903 1.33244 
5.43744e-18 5.78567e-18 1 

-0.179277 -0.00116218 0.0260716 
-0.0140099 -0.0498639 -0.118485 
-6.3567e-18 -8.65593e-18 1 

-0.478836 -0.166304 24.0853 
0.270383 0.121763 1.06753 
-2.2802e-19 1.65186e-18 1 

-0.213388 0.0124587 -0.258739 
0.0241586 -0.121264 -0.111371 
-1.3163e-17 -8.89395e-18 1 

-0.394184 -0.218117 -0.880588 
-0.00346859 0.293288 -1.05633 
-1.80678e-18 4.20228e-18 1 

-1.7887 -1.00034 2.92106 
0.279362 0.497835 0.036124 
8.0546e-18 1.15778e-17 1 

-0.864278 0.0490964 -0.503003 
0.376022 0.333072 2.04278 
3.68022e-19 -9.65036e-18 1 

-0.150987 0.0243043 -0.59825 
-0.000555485 -0.0284608 -0.466369 
1.995e-18 -1.99909e-18 1 

-0.484503 -0.286822 0.0806873 
0.253393 0.197964 -0.65709 
3.25785e-18 -5.53388e-18 1 

-0.206277 0.0422365 -0.15013 
-0.00656549 -0.0449258 -0.017198 
7.3945e-18 -5.41569e-18 1 

-0.419052 -0.035142 -0.417138 
-0.290492 -0.00736486 -0.114586 
6.88732e-18 1.12372e-17 1 

0.017819 0.0031732 4.84844 
0.339458 0.193291 2.09492 
4.33445e-18 -1.44482e-18 1 

-0.133207 0.00297206 -0.495504 
-0.0823463 -0.0338177 -0.0237222 
1.43761e-17 -7.35523e-18 1 

-1.90402 -0.0383604 7.19311 
0.0113907 0.738787 4.40992 
-3.27583e-18 -1.39843e-17 1 

-0.0409589 -0.44555 0.14533 
0.420536 0.00438543 0.0945018 
-2.56224e-18 -8.24948e-18 1 

-0.408308 -0.14139 0.115887 
-0.0270632 0.154831 0.519237 
-1.47383e-17 6.51438e-18 1 

-3.11686 -1.75643 -1.19147 
0.121448 0.913911 0.486375 
-9.22933e-18 -1.01168e-17 1 

-1.88177 3.45444 -7.20795 
0.579485 0.158095 0.24089 
-8.00882e-19 -4.23577e-18 1 

-0.392807 -0.531305 -0.323768 
0.706645 0.208898 -0.438931 
2.4967e-17 1.13978e-17 1 

-0.44786 -0.316646 -1.48939 
0.178561 0.448898 0.813176 
-5.19525e-18 1.70338e-17 1 

-0.878933 0.729855 2.67776 
-0.876122 0.691125 1.21239 
2.11631e-18 -2.90418e-17 1 

-0.272987 -0.777717 0.729194 
0.58151 0.291221 -0.69475 
9.45014e-18 4.62864e-18 1 

-1.19534 0.27273 0.142447 
-0.599329 0.410517 0.335475 
-2.25107e-17 -2.21158e-18 1 

-1.15886 -0.524231 2.96423 
0.0260912 0.490876 -1.86519 
4.98627e-19 -2.49313e-18 1 

0.0383822 0.598271 -0.125164 
-0.520757 0.0810122 0.494781 
-3.4274e-18 8.61551e-18 1 

-0.232338 -0.12275 0.204265 
-0.0411951 0.0948486 1.2039 
-1.12515e-17 1.73141e-19 1 

-1.15212 0.211928 0.882352 
-0.222471 0.293021 -0.673783 
1.81982e-18 -7.76819e-18 1 

-2.65075 -8.10705 -3.55805 
1.0027 4.06279 2.24888 
-2.14628e-18 1.09913e-17 1 

-0.189178 -0.10579 -0.0374551 
0.0752375 -0.0117552 -0.23515 
-4.64374e-18 2.3342e-17 1 

-0.293584 0.0961485 -0.037112 
0.13347 0.116146 0.154411 
-1.74131e-17 -1.04129e-17 1 

-0.137231 -0.000689738 -0.286186 
0.0918892 0.0563304 0.735235 
7.95939e-18 -9.48072e-18 1 

-0.135079 0.00536866 -0.0365226 
0.0458114 0.0252961 0.0276183 
-4.95251e-19 -2.14272e-18 1 

-0.749588 -0.954056 -3.4503 
0.691742 0.263329 2.2745 
8.70105e-19 9.41761e-18 1 

-2.9824 -1.07467 -18.557 
0.416618 1.67012 9.29763 
6.57804e-18 -4.89136e-18 1 

-0.223162 -0.027084 -0.161253 
0.0452508 0.0864983 -0.187979 
9.93308e-18 -5.24303e-18 1 

-0.338136 -0.126999 -0.173822 
0.0524873 0.0277695 0.577251 
1.21285e-17 -2.02274e-17 1 

-0.156165 0.00216663 -0.618626 
0.0777741 -0.00935079 -0.370979 
-1.27558e-18 1.77822e-17 1 

-0.251205 -0.030143 0.343986 
-0.0290269 0.0933641 -1.00993 
-4.24324e-19 -5.31085e-18 1 

-1.75103 0.597076 6.18485 
0.082526 0.441915 -0.707503 
9.15627e-18 6.0039e-18 1 

-0.937446 -0.600719 0.662426 
-0.59929 0.0718401 1.44546 
-5.48091e-18 1.12706e-17 1 

-0.268484 -0.162974 0.124502 
0.0174229 -0.0347126 -0.0351659 
-3.13816e-18 3.96252e-17 1 

-0.0711569 -0.222064 0.232542 
0.418286 0.0929367 0.62478 
2.92999e-18 8.03448e-18 1 

-2.24243 3.65907 31.6708 
-0.843756 1.42325 7.72421 
1.00474e-17 -6.29077e-18 1 

-0.00272 -0.718596 0.162614 
0.476276 0.300557 1.24684 
5.90917e-18 -8.47477e-18 1 

-0.786017 -0.441723 -10.4906 
-0.11977 0.12056 0.299117 
-5.43143e-18 4.04305e-18 1 

-1.29713 -0.77187 1.69824 
-0.152691 0.310749 4.96126 
4.18123e-18 2.39241e-18 1 

-0.153764 -0.0504345 0.170867 
0.0427811 -0.0198833 -0.0850903 
-6.13307e-18 7.782e-18 1 

-0.345305 -0.0937635 4.79574 
0.227617 0.100215 0.194975 
-4.60423e-18 -2.96598e-18 1 

-0.00182471 0.577686 0.550792 
-0.626121 0.12423 0.368546 
-4.36397e-18 -2.50805e-18 1 

-0.163579 0.227574 0.270679 
0.0105574 0.0465553 0.112635 
-2.91273e-18 -4.10578e-17 1 
