# vtk DataFile Version 3.0
Output file generated by Yade's KinematicLocalisationAnalyser
ASCII
DATASET UNSTRUCTURED_GRID

POINTS 13483 float
520.142 42.1107 -0.496844
603.072 82.1457 0.481391
110.354 6.10506 -0.566287
632.881 5.61928 0.384316
451.352 10.6071 0.607132
295.676 37.5926 -0.549479
144.968 7.04474 0.459601
497.389 27.7357 0.139937
450.498 27.9878 -0.167763
588.874 15.5209 -0.564946
196.814 8.77736 0.147311
241.848 6.31615 -0.248454
552.869 60.3926 -0.198962
534.29 42.3669 0.0800764
126.962 17.7982 0.54499
206.989 35.0274 0.416956
204.086 13.0768 -0.301544
271.733 10.8831 0.50655
319.603 34.0142 -0.493494
472.574 7.91717 0.477281
381.976 38.6217 -0.133178
509.347 66.6618 -0.35043
627.626 46.3512 0.42843
572.323 61.5962 -0.427055
423.471 23.9944 -0.412337
225.133 46.0278 -0.134254
446.205 35.0982 0.480049
507.779 35.2008 -0.230515
41.0163 16.8808 -0.347242
580.645 34.4421 0.364332
438.538 6.31717 -0.422826
15.5239 24.1898 -0.426581
615.38 89.2296 -0.252428
445.728 2.42027 0.524265
71.8223 46.6716 -0.101449
473.708 32.5422 -0.372593
478.864 15.656 0.517809
322.62 22.7722 -0.260028
479.756 28.3276 0.32502
328.528 34.7274 0.595253
225.998 14.6721 -0.33125
401.638 41.7269 0.064684
554.583 6.84484 0.101263
179.667 6.26797 0.419121
50.6588 7.16955 -0.0856158
63.3845 9.36074 -0.296825
564.995 14.0485 -0.558776
21.7526 11.9304 -0.272291
511.335 81.5125 -0.354411
564.481 57.8751 -0.347687
160.302 32.7782 0.340047
609.011 67.8834 0.16793
31.4418 30.3904 0.134788
482.589 2.86581 0.411824
131.675 7.43983 -0.566254
512.141 54.3512 -0.363281
456.943 31.8082 -0.18337
163.088 0.961452 -0.290471
30.5122 2.32584 -0.366994
327.375 18.0883 -0.254122
520.801 81.4219 -0.131833
422.479 43.4098 -0.183961
372.592 1.02838 0.210112
572.883 6.95319 0.607732
24.0453 46.7167 0.251345
241.167 31.395 -0.339558
591.117 10.1813 -0.282308
558.851 89.8282 -0.351236
389.937 8.56756 -0.666914
500.8 14.4931 -0.543062
598.744 50.1177 0.451621
120.572 7.79198 0.275666
451.996 31.1442 0.128487
435.849 20.4814 0.0995592
277.546 17.2922 -0.390863
19.3641 14.0749 0.357875
626.422 86.8966 0.331144
312.578 40.7907 -0.301923
555.309 26.8976 -0.415429
564.038 19.8946 0.356282
620.865 15.0938 0.258869
424.164 45.0735 0.161719
85.7545 40.5785 -0.283212
570.284 65.3885 0.381722
548.607 71.8356 -0.092833
635.318 50.0366 -0.141043
617.507 0.777129 -0.597429
274.999 30.2859 0.450352
530.961 13.8524 0.104523
22.8888 5.7099 -0.651487
123.467 41.0269 -0.175344
463.75 15.6 0.203488
625.953 73.6791 -0.528959
183.382 29.4567 -0.228736
40.3574 36.4504 0.289336
444.892 1.14191 -0.106693
221.964 8.84802 -0.410788
590.837 63.5793 0.266949
616.785 64.9198 0.28378
339.498 22.424 -0.302237
152.148 27.374 -0.437183
473.787 60.6269 0.388843
357.294 17.1766 -0.491708
385.722 31.4807 0.124459
354.592 6.54165 0.462672
494.146 17.0047 -0.109939
635.346 15.7917 0.283068
73.8263 41.649 -0.466258
315.471 5.05399 -0.209558
492.494 25.259 0.314815
337.665 46.6819 0.533529
23.7776 27.4474 -0.612227
28.5546 5.98462 -0.32584
493.135 52.7654 0.476473
459.089 27.847 -0.183216
22.9647 40.0526 -0.427989
86.899 32.7149 0.242295
306.752 16.9858 -0.29561
518.614 28.8739 0.140489
435.179 49.0725 0.310534
603.822 16.573 -0.530208
597.497 13.7483 0.207273
363.279 39.9232 -0.138635
538.293 56.5497 0.143201
224.952 17.4416 0.539502
311.631 4.67141 0.467517
96.4822 32.587 0.408337
108.235 25.3691 0.329701
471.396 64.8319 0.0788218
289.557 19.3117 0.479409
576.496 40.456 -0.16981
563.108 87.4978 -0.103055
440.566 27.5392 -0.544761
630.232 56.311 -0.239313
400.976 26.3264 -0.263037
261.746 25.6096 -0.333103
564.214 70.841 -0.300325
264.011 29.7904 -0.445712
505.5 26.0375 -0.186681
313.603 37.4884 0.196724
457.645 13.3709 -0.506349
345.114 34.3107 0.125989
401.69 17.9042 -0.235467
301.906 45.8427 0.472277
179.672 30.4766 0.150256
607.416 82.8626 -0.157174
632.34 16.7028 -0.378164
5.77771 12.8262 -0.481583
405.144 24.1598 -0.444556
34.8466 24.5643 -0.0880513
354.864 33.7988 -0.485228
371.284 25.7178 0.334137
69.6551 12.8596 0.481181
47.8089 34.659 0.432663
213.941 13.7766 0.421944
521.61 70.1427 0.491254
505.463 40.0246 -0.617885
69.6163 22.2504 0.472597
576.051 60.4332 -0.625726
620.669 37.334 -0.655514
551.641 84.9702 -0.489764
569.277 2.7669 -0.678342
477.738 47.8535 0.601956
509.971 67.8842 0.635933
467.307 19.0899 -0.411909
630.193 3.92576 0.433746
211.779 25.1927 0.177908
119.742 37.5728 -0.211011
234.911 6.67701 0.444134
87.0498 4.83003 0.267393
59.7853 10.5457 0.227778
261.948 37.3364 0.379896
15.9288 25.7572 0.417908
486.522 38.3605 0.248867
509.938 76.1337 0.200497
427.062 30.4068 -0.44641
633.245 99.3331 0.358044
383.543 8.80305 -0.132339
401.006 46.9559 0.362996
490.667 3.28446 -0.311207
21.3863 25.72 0.544404
504.946 12.3965 0.364731
496.647 7.39469 -0.33709
195.306 11.2264 0.4922
398.907 16.8217 -0.291755
296.377 6.37766 0.37916
366.767 19.7492 -0.378201
586.99 57.6379 -0.102301
182.137 26.3199 -0.463405
612.312 6.11828 -0.51486
587.456 52.269 -0.344162
362.591 10.0537 -0.19055
590.169 1.99282 -0.644778
523.593 39.2617 -0.457979
603.509 36.3957 0.503476
396.313 53.5048 -0.26074
454.667 15.8378 0.570493
428.776 55.6915 0.224808
417.274 10.0533 -0.231061
555.142 83.4022 0.257099
554.772 78.4582 -0.306838
182.009 39.8141 -0.374487
619.151 16.3099 -0.180529
494.589 69.583 -0.241922
11.102 17.1692 0.247913
383.439 26.891 0.562319
177.195 23.7504 0.399893
87.5034 41.4052 -0.218096
626.582 70.2914 -0.422129
548.796 90.0191 0.231294
303.428 26.8101 -0.397174
487.498 10.2118 0.415339
76.7819 46.4327 -0.211818
236.102 26.1062 -0.500914
486.671 43.3921 0.498498
448.884 25.3324 -0.451839
251.125 0.884345 -0.35421
483.631 61.5014 -0.428575
466.23 67.0179 -0.53122
444.721 43.051 -0.424543
455.425 2.37225 -0.645557
575.173 19.0458 0.600992
169.654 12.7429 -0.21389
462.077 40.6493 0.57282
493.537 61.152 0.112334
68.3336 0.976164 0.315208
240.175 4.8061 0.183008
631.619 18.6008 0.159915
621.497 16.7717 -0.532857
636.954 23.5686 -0.625822
289.137 8.61256 -0.233416
604.227 42.1643 -0.439892
382.618 44.235 0.472709
420.436 0.825996 0.512727
554.906 66.4617 0.403704
24.1958 33.4739 -0.355709
314.475 43.5597 0.58439
241.005 2.94371 0.393974
619.671 89.0992 -0.170617
585.239 82.7863 -0.234679
273.82 12.2366 0.311161
558.171 68.2066 0.0905911
504.46 2.58815 0.242948
493.298 12.0533 0.551393
90.6396 19.3113 -0.514075
288.88 1.05342 -0.232307
326.366 2.2041 -0.39484
13.4023 8.02867 -0.576724
4.33838 31.7569 -0.303008
152.14 19.6021 0.430236
63.7919 43.5191 0.239951
61.3926 30.7398 0.298699
398.189 14.3798 -0.49722
348.541 38.6336 0.567167
606.883 68.151 -0.154743
18.4416 3.97212 0.293999
66.3777 7.47241 0.149053
530.076 69.465 0.12929
280.423 1.04913 0.417444
346.326 17.9713 -0.118404
224.423 4.69863 -0.386624
556.341 48.396 0.244584
422.065 8.5962 0.650922
606.682 43.8966 0.499071
537.164 59.746 0.300303
555.286 24.9546 0.100791
396.35 28.896 0.479449
96.5742 47.0065 0.31315
475.795 67.4906 -0.0676573
603.947 27.6467 0.36403
226.901 31.0479 -0.275406
29.2325 19.1313 -0.223158
320.044 13.8144 0.525338
101.563 42.1193 -0.472146
255.122 43.7306 -0.211984
403.103 2.27611 -0.2571
626.998 81.9211 0.376211
564.619 2.19705 0.674551
316.005 3.54257 0.601368
285.484 28.656 -0.158691
427.845 52.4089 0.197845
76.0754 9.25266 0.59834
187.762 45.9938 0.385114
617.44 68.365 0.467427
458.526 44.0518 -0.0876722
190.3 41.9366 -0.31678
150.942 43.0983 0.389092
636.537 43.8386 -0.526297
633.766 15.4939 -0.592308
525.201 6.21754 -0.566227
180.782 25.2226 0.11211
479.068 49.2244 0.101786
481.068 48.5942 -0.295478
387.948 5.84529 -0.170963
444.091 3.0605 0.323882
603.172 69.4565 -0.56563
79.7599 32.8623 0.22601
547.389 31.5186 -0.469455
262.132 16.2794 -0.455752
8.51219 2.66809 -0.406559
119.173 40.6957 0.234566
62.1807 24.0198 0.621108
572.841 42.1443 -0.377339
620.765 97.2448 0.164529
175.962 29.0791 -0.197202
629.76 14.4429 -0.44961
41.8431 38.377 -0.28018
85.7558 31.0155 0.205837
542.541 39.2501 0.424986
390.705 19.9068 -0.576698
475.941 16.2359 0.18324
227.304 28.9872 -0.188316
534.636 7.21646 0.664952
637.262 17.027 0.565582
26.989 34.6148 0.286247
258.841 8.02781 0.202533
211.651 15.4966 0.268393
1.08815 36.3656 -0.156707
214.89 14.8228 -0.395743
201.58 11.1181 0.134338
203.926 26.6511 -0.318178
124.57 29.0885 0.193169
484.822 29.9131 -0.374495
157.769 14.4375 -0.36322
614.458 85.994 0.227553
164.985 3.89376 0.51241
44.0891 39.4406 -0.445972
583.115 71.5555 -0.47241
268.928 32.7046 -0.392285
557.097 42.9203 -0.525634
635.235 88.7449 0.483579
287.224 9.2541 -0.0997777
592.549 41.7119 -0.482244
313.306 2.35685 -0.549578
393.436 25.6959 0.425173
555.82 18.8402 0.714331
98.7822 12.8018 -0.552423
445.7 6.7594 -0.633573
609.098 44.4814 0.179377
82.103 8.0755 -0.269029
269.421 16.0177 0.187554
399.749 12.1143 -0.237321
630.577 5.76404 0.591841
377.363 2.00524 -0.553697
167.378 39.4435 -0.307204
607.102 28.1848 -0.566399
121.65 38.5548 -0.180209
251.378 32.425 0.401517
379.088 22.1119 0.269124
508.083 27.9293 0.625415
366.803 10.2666 -0.546045
424.042 37.5272 -0.418831
604.501 81.5424 0.496586
44.0369 12.4958 -0.250177
286.435 41.1789 -0.27586
360.684 30.4068 -0.501594
387.627 21.8466 0.343363
454.976 71.2268 0.357191
598.853 63.8387 0.207555
558.725 77.6322 0.368295
215.587 34.9003 -0.391618
12.7236 31.9402 -0.186022
553.301 79.8837 0.123775
441.512 61.9618 -0.477194
219.183 40.0256 0.116397
562.812 48.2845 -0.140313
142.205 9.37731 0.257972
349.055 23.6027 0.280722
429.575 53.6202 0.0705348
391.592 21.2301 0.265935
599.442 80.7651 -0.292267
403.627 4.56939 0.652986
45.9048 26.822 0.385191
435.092 42.314 -0.337769
402.745 54.7358 -0.365644
620.555 82.9227 -0.244074
591.609 38.5978 0.342217
480.379 36.3861 -0.231485
613.536 77.9981 0.443493
280.04 2.4162 -0.450436
359.99 32.9196 0.637576
26.0796 41.8756 -0.327054
593.487 43.956 -0.179709
530.035 31.9034 -0.499554
431.452 2.5794 0.629368
117.954 4.69119 -0.378249
398.888 45.2231 0.118285
10.8568 0.959372 0.419267
629.972 7.8843 0.306958
352.368 43.1752 -0.527057
[...]
POINT_DATA 13483
TENSORS Strain_matrix float
-0.0644546 0.064602 0.370912 
-0.0210175 0.0757398 0.241286 
-0.00140997 0.00222839 0.106603 

-0.127626 0.128888 2.61822 
-0.193134 0.261521 4.20094 
-0.0190161 0.0201085 0.0745773 

-0.0206614 0.00165248 -2.32746 
-0.00291061 0.0106564 -0.622062 
0.00684147 -0.0168044 1.18943 

-0.0185806 -0.0115067 0.00122659 
-0.00850227 -0.00349601 0.01074 
-0.0127987 -0.00118878 0.0398124 

-0.273249 0.14466 -0.20123 
-0.245527 0.131528 0.0783809 
-0.0155356 -0.00771197 0.351806 

-0.123248 0.00448825 7.14657 
-0.0591607 0.0390612 4.29137 
-0.00930149 0.00175112 -0.313672 

-0.0076338 -0.000123483 -0.0145797 
0.00283346 -0.00229174 -0.0102353 
-0.000194406 -7.30097e-05 0.0135231 

-0.0110659 -0.127524 -0.0492962 
0.243294 0.0313318 0.00578235 
-0.0116226 0.0442094 -0.0362088 

-0.0836692 -0.0780565 0.253568 
-0.298685 0.0626547 -0.355688 
-0.0018638 0.0166455 0.120749 

-0.00272663 -0.0280575 0.00584439 
0.0366372 -0.0084895 0.171572 
4.79993e-05 0.00388555 0.0172835 

-0.0107438 -0.00442894 0.0142783 
0.0036664 0.00383541 -0.0119344 
-0.000623153 7.67757e-05 0.010947 

-0.00673986 -0.00337239 0.00280469 
0.00354878 0.00154487 0.005974 
0.000827134 0.00027681 0.00523702 

0.015415 0.0459291 -0.0500932 
-0.0448682 -0.0295218 -0.0791537 
0.00186945 -0.00897748 -0.0444413 

0.0441804 0.122282 0.0869248 
-0.161498 0.045859 -0.0755912 
-0.00616717 0.00606881 -0.1113 

-0.0183114 0.020546 0.0515889 
-0.0043383 0.00355732 -0.0395145 
-0.00139013 0.00147465 0.000993585 

-0.00958173 -0.00241907 0.120204 
-0.0455054 -0.0132126 0.0286298 
0.00185342 0.00225104 0.0895931 

0.000968375 0.000740409 -0.00456861 
-0.000506264 -0.00255155 -0.00173397 
0.000329687 -0.000505906 -0.00094218 

-0.148801 0.0693672 -0.0695114 
0.0677257 -0.0316902 -0.00241294 
-0.0897568 -0.0750116 0.316838 

-0.0108197 -0.0215017 -0.611715 
-0.0658631 0.0256108 -0.2662 
0.0818422 -0.0276479 -0.335416 

0.00627855 0.0398091 -0.0404354 
-0.0214049 -0.0112475 -0.0322845 
0.00153949 -0.000421782 0.0169977 

-0.0468142 -0.0142198 -0.121772 
-0.0201095 0.0481977 0.213016 
-0.0129393 0.0350257 0.0222948 

0.00473987 0.00129279 0.0226567 
0.00698915 -0.00385186 -0.0510151 
-3.87758e-05 0.00103098 -0.00211322 

-0.0939154 -0.187326 0.0736306 
-0.0191728 0.0439769 0.109042 
0.00834948 -0.0185462 0.0576478 

-0.273044 0.266765 -2.11391 
-0.370833 0.310207 -2.26755 
0.0489982 -0.0102222 -0.158066 

-0.142938 -0.292428 0.850144 
0.0940402 0.0886 1.62389 
-0.0161091 0.00941771 -0.0566782 

-0.163444 -0.223064 -0.390176 
0.119971 0.166507 0.331579 
-0.0157244 -0.137622 0.647163 

-0.0172159 0.0568734 -0.0262749 
-0.0970618 -0.0139391 -0.144125 
-0.00155713 -0.00938274 0.0970327 

0.0440094 -0.644576 0.0187622 
0.00905622 -0.0117652 0.654034 
0.0608272 -0.0177639 0.432209 

-0.0112348 -0.00660718 -0.00613604 
0.00742745 0.00413867 0.00168044 
-0.00241504 -0.000921466 0.0171259 

-0.0129689 -0.0128084 -0.0222325 
0.013359 0.00281119 -0.0224655 
-8.02391e-05 -0.000342403 0.00525625 

-0.592154 0.152429 0.0451208 
0.0901188 0.416694 -0.543561 
-0.0267767 0.0326324 0.352384 

-0.0305333 -0.00723139 -0.00748789 
0.0203927 -0.00287198 -0.0287739 
0.0092392 -0.0121836 0.039215 

-0.0052164 -0.0285658 -0.00776652 
0.0164015 -0.00391473 0.022834 
0.00407408 0.00503824 0.127091 

-0.728957 0.525309 2.58203 
-0.514974 0.610988 1.01046 
-0.0207763 -0.0943207 1.13145 

-0.00563932 -0.0152978 -3.38181e-05 
0.0174636 0.00316694 0.000963658 
-0.000159815 -0.000603236 0.00488975 

-0.744417 -0.445885 -0.117424 
0.638948 0.9235 -0.52003 
0.0688881 -0.0315361 0.0284969 

0.0259888 0.0277734 -0.723148 
-0.00644983 -0.0173389 -0.167498 
0.00433536 -0.00980042 -0.0347711 

-0.0746532 0.013445 0.0458624 
0.0162566 0.0485629 0.0337509 
0.0328069 -0.0720829 0.418097 

-1.29558 -0.513151 -1.28702 
0.692128 0.816872 1.58312 
0.0200136 -0.0212139 0.0979345 

-0.0483027 -0.0334454 0.186767 
0.0600476 0.0229569 -0.545323 
-0.00120847 -0.00398765 -0.404405 

-0.00715845 -0.000887527 0.00924214 
-0.00281805 -0.00333701 0.00148555 
0.00145214 -0.00153081 0.0172792 

-0.178432 -0.0899686 -0.558393 
0.426677 0.169421 -0.211817 
-0.0378401 0.00188811 0.138154 

0.0210324 0.0617895 -0.00487249 
-0.0498505 0.00196354 0.0147086 
0.00569877 0.000408218 -0.00788767 

-0.0154208 0.00280502 0.0112552 
-0.00375942 0.00255795 0.0116817 
-0.000162465 1.32049e-05 0.0216853 

-0.0287184 -0.0238126 -0.0350151 
-0.0104662 -7.18987e-06 0.0439718 
0.0137422 -0.0634754 0.285791 

-0.00895766 -0.011 -0.00317052 
0.0189203 0.00825072 -1.84442e-06 
-0.000632811 0.00026096 -0.00326491 

0.0520766 -0.0342294 -0.0423599 
-0.00759878 0.00365869 -0.0926271 
-0.00329798 0.0144079 0.00140112 

-0.0121568 -0.0119675 0.0108238 
2.56365e-05 0.00248786 -0.00913421 
0.00237582 0.000289997 0.0129951 

0.0265598 -0.0638793 1.19108 
-0.0256185 -0.0111652 -0.707997 
-0.0177529 0.0174643 -0.725128 

-0.57551 -0.374913 2.95909 
-0.191117 0.268572 -0.587604 
0.00868408 0.0110503 -0.0284071 

-0.00450959 -0.00693088 -0.0375708 
-0.00915816 -0.00793761 0.123201 
0.000776615 -0.0023562 0.0574434 

-0.00929791 -0.00798192 -0.0266078 
0.01813 0.000182359 -0.0020836 
0.000892378 -0.000420192 0.0156216 

-0.000161263 -0.0226508 -0.0118483 
0.0063374 0.0020703 0.0172613 
-0.00100297 -0.000378305 0.00344005 

-0.00239451 0.0207882 -0.0383431 
0.00914834 -0.00417609 -0.0601731 
-0.00442059 -0.00597312 0.0376934 

-0.00492969 0.00767213 -0.0164631 
-0.00268989 -0.00941856 -0.0340619 
-0.00035351 0.000424772 -0.00800454 

-0.0105728 0.014007 0.250396 
-0.0575288 0.031964 0.528507 
-0.00179284 0.000330259 0.0360896 

0.0154628 0.130679 0.0125758 
-0.205017 0.0285735 0.247711 
-0.00591023 0.00808656 0.0111955 

-0.0108194 0.00596119 0.0265891 
0.000525766 0.000996127 -0.0143365 
-0.000169036 0.00306961 0.0216071 

-0.0108846 0.00654037 -0.0212549 
0.00145249 0.0175267 0.0170602 
0.0019599 0.00564897 -0.00958556 

-0.0456253 -0.0207122 -0.0238933 
0.0445951 0.0357237 -0.00536253 
-0.00290497 0.0340721 0.11096 

0.0621633 -0.0522834 -0.0393115 
-0.00880503 -0.0511482 -0.131069 
0.0117124 0.0139295 0.18489 

0.0161327 -0.0353341 -0.609798 
0.0292747 0.00827336 -0.301761 
0.0185295 -0.00871595 -0.114954 

-0.0107316 -0.00206316 -0.0209142 
0.000333067 -0.00515971 0.00214342 
-0.000610594 0.00214842 0.0165734 

-0.00373857 -0.0157199 -0.0365131 
0.0156857 0.000971928 -0.656378 
-0.0023179 0.00308078 0.114865 

-0.0531579 0.0278455 -0.0577836 
-0.0931641 -0.0187006 0.795309 
0.0232409 -0.00376661 0.302042 

-0.0200882 -0.0434173 0.0733589 
0.0544538 0.00927563 0.00424631 
0.00133176 -0.000392378 0.0119452 

0.00429677 0.0400849 0.00312024 
-0.0197727 0.019527 0.0305354 
0.0109328 0.00106775 -0.0613269 

0.0693567 0.0300935 0.72202 
-0.00785446 -0.0659246 0.00718403 
-0.028213 -0.064452 1.04691 

-0.0769377 -0.0555184 13.3199 
0.00903638 0.0264618 -15.2187 
-0.00139367 -0.00106218 0.904308 

-0.47427 -0.271466 -0.918787 
0.455291 0.42107 0.699871 
-0.0169413 0.0646251 -0.0594745 

-0.0167326 -0.00895315 -0.00107356 
-0.00478643 -0.000350421 -0.0044986 
0.0016673 0.00351149 0.0187218 

-0.00446144 0.00434638 -0.00460003 
-0.00591384 -0.00108514 0.00354975 
-0.000717392 -0.000329673 0.0112927 

-0.0459263 0.0631854 0.201087 
-0.158489 0.111144 -0.337133 
-0.000138123 0.00410496 0.0249619 

-0.149843 -0.0772926 -0.108877 
0.00353903 0.110712 -0.518706 
0.00272433 0.0116993 0.0685002 

-0.0505134 0.0270648 -0.0477637 
-0.0715426 -0.00167874 -0.199836 
-0.0114902 -0.00200408 0.144612 

-0.0188293 -0.00623156 -0.0066796 
0.0132682 -0.00450064 -0.0548918 
-0.00218753 0.000562187 0.0206093 

-0.017598 -0.023342 -0.00767418 
0.0510871 0.0210396 0.0102161 
0.000914192 3.80065e-05 -0.00759529 

-0.014526 -0.0101071 0.00497601 
-0.0232715 0.00697544 -0.00178309 
1.82816e-05 -0.00242062 0.0331031 

-0.00119645 -0.0549179 -0.0451172 
0.00577422 -0.0219828 0.0275328 
0.0149225 0.00303889 0.035439 

-0.00139236 -0.00147321 -0.0970239 
0.00519988 -0.000658399 0.133843 
0.00596012 0.0236393 0.047846 

-0.0726992 -0.0682292 0.0250711 
-0.0322334 0.0492398 0.00160808 
0.0430665 -0.0184124 0.0200228 

-0.00614316 -0.0606058 0.0521091 
0.0751298 0.0219073 0.128755 
-0.000177639 -0.04848 0.22307 

0.00274151 -0.00302571 -0.0246042 
0.00966134 -0.00467852 0.0474677 
0.000464545 0.000288389 0.00667777 

-0.323177 0.310976 0.117382 
-0.524875 0.119814 0.849342 
0.0775318 0.0290763 0.515189 

-0.020288 -0.071894 0.153122 
-0.000512982 0.121487 -0.271277 
-0.02146 0.0112352 -0.0932157 

-0.0140877 0.0404299 0.0288955 
-0.056589 0.0125241 0.0119387 
-0.000349244 -0.00405641 -0.0145938 

-0.0330193 0.074933 0.225974 
0.00489128 -0.000461641 0.0790282 
-6.73564e-06 0.00920149 0.00583779 

0.00750614 -0.0162342 -0.0379612 
0.0300988 0.0243844 0.224374 
0.0126224 0.00170472 -0.0718532 

-0.665751 0.332672 0.677783 
-0.481615 0.479115 0.189831 
0.0128665 -0.0261136 -0.121099 

-0.0182323 -0.00623573 0.385763 
0.00161451 0.00238596 0.836146 
0.000555155 -0.000134754 0.346875 

-0.0359756 -0.00760929 -0.52845 
0.236203 0.113648 -0.33681 
0.0441317 0.0496913 0.29155 

-0.0137765 0.0889797 0.144854 
0.0316034 -0.00152381 -0.0751121 
0.014343 -0.00389347 -0.0497355 

-0.0192389 -0.0311293 0.134482 
0.028277 0.0173707 0.155469 
0.000199976 -0.00040671 0.0346299 

-0.00464753 0.00189488 -0.0100525 
0.000712066 0.00152663 0.00220036 
5.39252e-05 0.000386619 0.00576424 

0.00249055 0.0432621 -0.149165 
-0.0279021 0.0199946 0.234879 
0.0041716 0.00458947 0.0447086 

-0.70747 0.277045 1.1871 
-0.371731 0.605234 0.18075 
-0.0186023 -0.0983944 0.476531 

-0.00560093 -0.00372146 -0.00595758 
-0.0054213 -0.00591421 -0.0593259 
0.000456578 0.000951787 0.0191817 

-0.00972875 0.0465825 0.0823151 
-0.0243771 0.0173534 0.07842 
-0.0101611 0.0275572 -0.03591 

-0.0162889 -0.00686645 0.00311 
0.00559063 0.000165674 -0.0469197 
-0.00132863 0.00055653 0.0267488 

-0.0465543 -0.0869372 -0.165028 
0.0834042 0.00793488 0.121613 
0.0134708 0.000990595 0.104951 

-0.000819249 -0.0129619 0.00604154 
0.00447164 -0.00493723 0.00164859 
-0.000347052 -0.000733525 0.023903 

0.00603785 0.208356 1.01515 
-0.193632 -0.0418205 -1.62502 
0.0239775 0.0754569 1.71167 

-0.121997 -0.11322 1.39086 
-0.0376003 0.0970263 -0.577517 
-0.0431408 -0.0395398 0.56418 

-0.0496674 -0.0756775 0.0229083 
0.0397447 0.0911497 -0.0237352 
-0.00740088 0.0568602 0.230439 

-0.231793 -0.0775293 -0.264286 
0.182577 0.0826707 -0.50098 
-0.0320733 0.0187045 0.480334 

-0.284874 -0.90379 -0.157696 
0.2767 0.679761 0.649843 
-0.0391318 0.0217319 -0.0656223 

-0.0197633 6.40999e-06 0.00395248 
0.00159348 0.00206181 -0.00183865 
-0.000126712 -0.00176848 0.00961837 

-0.00490443 -0.00803451 0.00401403 
0.0182716 0.00255272 0.18717 
0.00149204 4.18789e-05 0.0353648 

-0.0225107 -0.0049873 -0.0653073 
0.0249055 -0.00876918 -0.0446967 
0.0613252 0.0254206 0.0910315 

-0.0588598 -0.14949 1.04009 
0.2668 0.0119005 -1.25676 
-0.00832689 0.00626918 0.0227805 

-0.0524679 -0.183712 -16.4757 
0.0359169 0.169763 5.71013 
-0.00393888 -0.00550361 -0.488909 

-0.0154017 -0.0159363 -1.19226 
0.0144523 0.0222888 1.26411 
-0.000655786 -0.00269852 0.881574 

-0.00118205 -0.0169269 -0.00785196 
0.0172836 -0.00062594 -0.0113371 
0.00379139 -0.00192007 -9.56743e-05 

0.0189295 0.0148571 0.243108 
-0.0568522 0.0179033 -0.00833229 
0.00117687 0.00464679 -0.0421123 

-0.0318092 0.113573 0.00828477 
-0.278277 -0.00896734 0.170879 
0.0373891 0.0250499 0.268279 

-0.026942 0.0440131 -0.627218 
-0.0611747 0.00973453 -0.838939 
-0.000887804 -0.00127344 0.00976374 

-0.0150262 -0.0061389 0.00684883 
-0.0112339 -0.00510554 -0.0349433 
0.000322196 0.00124209 0.0277541 

-0.0177042 -0.000794769 0.0164507 
-0.0115701 -0.00719215 1.74388e-05 
0.00324968 0.00518729 0.023402 

-0.337619 -0.259784 -0.731582 
-0.0166432 0.276299 0.245676 
-0.0837788 -0.0724378 0.186522 

-0.00211851 0.0803904 -0.15469 
-0.15768 -0.00422897 -0.0496707 
-0.00197226 -0.00408664 0.0390892 

-0.0183772 -0.0841695 0.0533644 
-0.0214928 0.0906082 0.0159859 
-0.00879691 -0.00562698 0.0206705 

0.00124036 -0.0415535 0.0164594 
-0.012307 0.0136359 0.045244 
-0.00560103 -0.00212283 -0.0609181 

-0.0134896 -0.0424656 -0.00859701 
0.0584906 -0.0134192 -0.191495 
0.0109422 0.0087481 0.100816 

-0.00081925 0.0621038 -0.0119044 
-0.0926536 0.0102948 0.00921013 
0.0543131 -0.00741216 0.0700575 

-0.0165106 -0.00533065 -0.178104 
-0.00246391 -0.00365835 0.841575 
-0.000305806 0.000754775 0.138136 

-0.134035 -0.110426 0.0896423 
-0.0953971 0.022819 -0.165978 
-0.0771724 0.0407026 0.286166 

-0.0128633 0.0353212 0.0472647 
-0.0299131 0.00901231 0.0418793 
-0.0010399 0.000477097 0.00594133 

-0.00274106 0.0223173 -0.0353778 
-0.0176944 0.00511563 -0.00281388 
0.0191795 -0.0116517 -0.000974827 

-0.152207 -0.0552566 0.28031 
-0.0650838 0.17962 -0.353288 
0.0209836 -0.0229633 0.0195428 

-0.115915 0.0674359 -0.303223 
0.0071157 0.0868297 0.624287 
-0.00429048 -0.00530621 0.162148 

-0.0102505 -0.0125113 -0.00813081 
0.0279845 0.000501403 0.0335676 
-0.000412782 0.000118047 0.0119555 

0.035778 0.0857739 -0.0176039 
-0.137256 0.0211942 -0.0659359 
0.0148109 -0.102959 0.412637 

-0.112097 -0.085481 -0.611882 
0.00434905 0.0218622 0.287089 
0.00837598 0.0352398 0.0855068 

-0.0599854 0.0455666 -0.0261882 
-0.0161184 0.0272851 0.0320797 
0.000833174 -0.0018377 0.0724102 

-0.0926423 -0.052151 0.448941 
0.215404 0.150723 -0.757889 
0.0225866 0.00518801 0.305847 

-0.039609 -0.0605103 0.472277 
0.0052766 0.0356535 0.2985 
0.0194425 0.0138235 0.034859 

-0.0432991 0.207575 0.0847529 
-0.265809 0.0605631 -0.130157 
0.000335537 0.00596122 0.014449 

0.00565049 -0.0247954 0.0282727 
0.0182297 -0.00252561 -0.018503 
0.0008361 -0.00676975 0.0398319 

-0.00383905 -0.00784753 -0.172961 
0.416798 0.036838 -0.172668 
0.0100204 -0.120045 0.374928 

-0.0111651 -0.00226371 0.0589712 
-0.00430487 0.0265998 -0.0405372 
0.000292663 0.0134491 0.046111 

-0.278365 0.133965 -0.798258 
-0.404311 0.313817 -1.2846 
-0.029366 0.0263323 -0.362458 

-0.0772812 0.119011 0.0922009 
0.0393586 0.0901191 -0.120848 
-0.0303367 -0.0243237 0.440626 

-0.16419 -0.0752367 -0.0689383 
0.243647 0.0611339 0.0642603 
0.0319752 0.0444283 0.792991 

-0.16679 0.0896413 0.223875 
-0.0818134 0.147547 -0.146694 
0.00530646 -0.00346715 0.166528 

-0.00305492 0.000206283 0.00203806 
0.00210399 0.000848546 0.000320902 
-4.08719e-05 0.000785584 -0.000833752 

-0.0109616 -0.0736583 -0.0364216 
0.0625029 -0.00109062 0.0209519 
0.00478279 -0.000679159 0.0580602 

-0.0230858 0.00516598 -0.0196805 
-0.00378048 -0.00178746 -0.00210358 
-0.00141472 -0.0025052 0.0151392 

-0.0126654 0.00137756 0.0113401 
-0.0103842 -0.00291961 0.00246284 
0.00261446 0.000829525 0.0386082 

-0.12847 -0.0759673 -1.03611 
0.0505554 0.132435 -0.96642 
0.0133626 0.0022935 0.133114 

-0.0194755 -0.0111801 0.0191311 
-0.0232501 0.0141376 0.0191745 
-0.00165418 0.00150724 0.0208055 

-0.0160759 -0.043519 0.472942 
0.0120044 -0.038154 0.855752 
-0.00588049 -0.00352255 0.278624 

-0.0700371 0.00628495 0.136144 
0.0598226 -0.00697859 -0.136595 
-0.0718608 -0.0197836 0.609765 

0.00183861 0.00088406 -1.05491 
0.02 0.0123802 -0.465064 
-0.0010247 -0.00242918 0.212289 

-0.0125541 -0.00848845 0.12538 
0.0456071 -0.0345124 0.488894 
0.0133572 -0.00535325 0.0737137 

-0.0437904 0.00257901 0.225703 
-0.0236623 0.0178545 -0.126923 
0.0014293 0.00229196 -0.0183937 

0.00396815 0.018216 0.195034 
-0.0242022 -0.0063435 -0.29016 
0.00650629 0.0155966 0.572458 

-0.0166813 -0.0634021 -10.193 
0.0148582 -0.0104369 -4.00287 
-0.00145912 0.0132839 0.453051 

-0.0116181 -0.0241067 0.016572 
0.0198336 0.00833629 -0.0254039 
-0.000542327 0.000123415 0.0239125 

-0.12928 0.113653 -4.5744 
-0.179794 0.140384 -6.20934 
0.00122037 0.000992515 0.188821 

-0.0280987 -0.003184 1.66598 
-0.0400149 -0.00394837 2.65757 
-9.83399e-05 0.00776513 -0.132963 

-0.010479 -0.169073 21.8841 
-0.0305479 -0.131094 14.7563 
-7.90057e-05 -0.00247356 -0.174327 

0.0092581 0.167492 1.92013 
0.0337576 -0.0540703 -3.65247 
-0.00473809 -0.00702124 0.360612 

-0.120122 -0.203196 3.97327 
0.11813 0.152741 -6.4526 
0.00240096 -0.0119081 -0.316299 

-0.071464 -0.208023 -41.6907 
0.0376494 -0.251896 -34.492 
-5.47789e-05 0.000431303 0.0724491 

-0.00409796 0.0682142 -0.0343606 
-0.0636652 0.0202491 -0.00740058 
0.00489237 -0.000632361 -0.0145844 

-0.0236058 -0.0231377 0.0130881 
0.021591 -0.00612919 -0.00636575 
0.000949873 0.00215439 0.0216516 

-0.0149188 0.0062353 0.0124071 
-0.00128481 -0.00226311 -0.00326209 
0.000349944 -0.000573323 0.0257925 

-0.0537887 -0.0377638 -0.0676508 
-0.0508237 0.00110404 0.0221618 
-0.00334845 -0.0154065 0.0567435 

-0.00976045 -0.00242557 -0.0291595 
0.00629759 -0.00167879 0.0218079 
-0.000373135 0.000348404 0.0013522 

-0.0383246 -0.0932687 0.0912638 
0.0347351 -0.00345475 -0.310958 
-0.00318549 0.0118133 0.0782638 

-0.00861933 -0.0139822 0.0236158 
0.0193941 0.00664227 0.00793424 
0.00377378 4.73516e-05 0.0174427 

-0.00476654 -0.0254614 -0.00832933 
0.027026 0.000750879 0.00219531 
0.000592575 0.00104094 0.00681168 

-0.024174 0.00396325 -0.0197511 
0.0224523 0.00734063 -0.0973407 
-0.0060983 0.00704597 0.0567751 

-0.37679 -0.395254 -0.913064 
0.109912 0.372439 0.0583621 
0.0201505 -0.0525315 0.800866 

0.0402816 -0.0318747 0.0932982 
0.0211833 -0.00801565 -0.368386 
-0.0539758 0.0072558 0.098891 

-0.144482 -0.14275 -0.790396 
-0.0209935 0.158045 0.965287 
0.080182 -0.00397615 0.0816811 

-0.00131073 -0.0144051 0.0722975 
0.0203768 -0.00833313 -0.0603554 
-0.00201212 0.00196689 0.0332947 

-0.0358408 0.0145884 -0.00769497 
-0.00966856 0.0183232 -0.00990476 
0.00120285 0.00119556 0.014763 

-0.495004 -0.804916 -1.57863 
0.518154 0.846518 0.632653 
-0.0312738 -0.00468795 0.0848321 

-0.0118038 -0.0423687 -0.198374 
0.0785964 -0.129919 -0.386911 
0.0112414 0.0165969 0.0991328 

-0.0409184 -0.0342348 -0.750442 
0.0412885 0.0196253 0.0534709 
-0.00439046 -0.000917149 0.073201 

0.118553 0.0952367 0.0838684 
-0.362267 -0.0321612 -0.169953 
0.0317376 0.00847477 -0.0773166 

-0.154218 -0.0175604 -1.03368 
0.0332941 0.0477969 -1.14814 
0.00222438 0.00271492 -0.0998162 

-0.00817666 -0.00101805 0.103356 
0.000859895 0.00244968 -0.0669604 
0.00027138 -0.000128647 0.0448716 

-0.253781 0.0638526 -0.0453025 
0.105092 0.0730349 -0.405103 
-0.0221073 -0.0254456 0.497489 

-0.0230738 0.000205685 -0.127934 
0.00328577 -0.0234205 0.0855942 
-0.00402626 0.00197533 0.0448465 

-0.101547 -0.117547 0.130412 
-0.120614 -0.0124621 -0.00934016 
-0.0239413 0.0465156 0.244807 

-0.0212766 -0.0127712 0.115087 
-0.00647523 -0.0174144 0.167118 
-0.00161983 -0.00121614 -0.0192252 

-0.00570357 -0.00149271 0.035904 
0.0014607 0.00155686 0.0144645 
-4.35617e-05 -0.000362216 0.0144895 

0.0104765 -0.0305286 0.043754 
0.0613357 0.000873075 0.0144229 
0.00543697 -0.00112617 -0.022995 

-0.0107725 -0.0231736 -0.0235855 
0.0170844 -0.00242658 -0.0308049 
-0.000129069 0.000164267 0.00339728 

-0.228615 -0.00921411 0.68681 
0.0336642 0.195498 0.0200394 
0.0179233 -0.000866159 0.585245 

-0.114338 -0.0235755 0.869316 
-0.000437064 -0.0415148 0.505767 
0.00243175 -0.0342665 0.132711 

-0.0682935 -0.0411067 0.67164 
0.0273319 0.10065 -0.207382 
0.0104544 0.0169884 -0.156943 

-0.0220707 -0.0262679 0.0266788 
0.0233607 0.0101527 -0.0464081 
-0.000422535 -0.00449216 0.0174845 

-0.22068 -0.29762 -2.64731 
0.745345 0.673589 -2.23945 
0.0527195 0.00610765 0.841355 

-0.121029 0.0745471 1.40352 
-0.153027 0.0731257 1.14768 
-0.00717197 0.000767488 0.163284 

0.0584074 0.0445564 0.115282 
-0.0190456 -0.018592 0.0377696 
0.000429349 -0.0256314 -0.0899406 

-0.318857 0.200807 -0.0898374 
-0.450826 0.233467 0.387799 
0.0262459 -0.0734045 0.317448 

0.0478872 0.0169745 -0.29309 
-0.0611074 -0.0302613 -0.192769 
0.00845463 0.0265799 0.189054 

-0.00172636 0.0756387 -0.00125045 
-0.0860103 0.00218317 -0.0265498 
-0.0384539 0.0200552 0.301777 

-0.000243939 1.76375e-05 0.000478354 
0.00221048 -0.00069506 -0.000476075 
0.000129495 0.000310367 0.0128 
