# vtk DataFile Version 3.0
Output file generated by Yade's KinematicLocalisationAnalyser
ASCII
DATASET UNSTRUCTURED_GRID

POINTS 13483 float
582.16 34.59 -0.512443
684.05 74.3008 0.569473
116.71 6.02655 -0.569646
714.937 10.9712 -0.346592
485.461 8.14281 0.330403
307.609 35.4578 -0.477557
152.209 7.13639 0.460873
553.956 10.5094 -0.138491
483.48 25.3616 -0.209536
657.67 11.6897 0.579707
204.858 8.68967 0.138385
250.85 6.31886 -0.252161
616.821 56.0585 -0.138991
603.092 32.0587 -0.0929369
133.774 17.9115 0.524959
215.131 34.7386 0.412973
212.181 12.9458 -0.297552
282.465 9.72044 0.402725
333.894 32.9034 -0.495834
507.698 8.54261 0.351439
401.926 37.8852 0.102876
559.264 54.3748 0.262649
710.399 44.1339 -0.500204
660.014 74.1173 -0.0684997
448.251 17.186 -0.446238
234.702 44.6362 0.136298
478.228 29.62 -0.483958
568.941 20.562 0.338822
43.659 16.2218 -0.352108
651.773 31.2391 0.467525
469.52 5.75665 0.460429
15.9329 23.3825 0.351739
696.045 78.2706 0.265743
481.454 2.32509 0.636896
76.0006 45.198 -0.107798
506.042 32.6137 0.401734
514.277 16.6043 0.451727
336.687 22.783 -0.234673
517.281 25.6668 -0.308603
342.954 33.7664 0.498373
234.959 14.774 -0.301103
423.715 36.0082 0.0974966
615.834 6.89416 0.148511
187.42 6.26724 0.391264
53.7611 7.0999 -0.118781
66.7121 9.05339 -0.298435
629.193 10.2007 -0.647462
22.905 12.1013 -0.330923
575.218 61.8538 0.357058
642.694 53.0105 0.344188
167.93 32.803 0.336569
683.854 58.0457 -0.125544
33.6748 29.0073 0.134798
517.834 3.06183 0.326696
138.265 7.31724 -0.533729
575.104 38.6536 0.47455
489.802 29.8128 -0.17582
170.469 0.950803 -0.277672
31.5999 2.27323 -0.382641
341.802 18.0885 0.288907
583.927 71.6556 -0.133851
450.902 35.6373 -0.185626
390.749 1.03427 0.205521
639.112 8.98327 -0.572543
25.8158 44.1784 0.241348
250.262 31.0237 0.285373
657.5 6.96833 0.378359
631.215 77.9052 0.389809
408.771 8.91049 -0.569013
554.1 3.41117 -0.471296
672.355 42.6521 -0.485195
127.227 7.83144 0.277414
483.975 28.5946 0.126101
466.676 16.3525 -0.127464
288.607 16.7804 -0.348327
20.0201 13.9437 0.309409
706.093 72.3789 0.311026
326.301 39.3207 -0.299669
640.733 45.0399 -0.431927
628.932 13.9696 0.415867
707.024 14.6744 -0.209989
454.261 36.8022 0.191764
90.1417 39.7269 0.323041
647.574 66.3795 -0.2688
610.701 63.2764 0.101765
717.208 55.299 -0.128648
701.126 2.76068 -0.664407
285.517 28.7538 0.452692
601.287 15.8237 -0.0916258
23.9965 5.90397 -0.642641
130.441 39.1835 -0.168512
498.464 15.982 0.241303
703.267 59.0135 -0.514682
191.115 29.3672 0.247729
42.9937 35.2282 0.299895
480.431 1.11051 0.181224
230.664 8.74592 -0.442568
668.385 55.666 -0.33986
691.033 53.1389 0.295937
354.607 21.9945 -0.260538
159.736 27.1476 -0.487872
534.648 39.4678 0.439011
372.888 16.0508 -0.451575
405.787 30.7455 0.108304
370.898 4.65699 0.371538
533.273 11.0754 -0.130899
717.57 17.3934 -0.245822
78.2409 40.1191 -0.417388
329.643 5.02044 -0.217634
547.325 9.60925 -0.37938
353.464 44.6422 0.454198
24.9213 25.4904 -0.519369
29.6215 5.92919 -0.30575
553.665 34.1229 0.522331
492.331 27.1626 0.175205
24.9334 37.8039 0.426568
90.831 31.1999 0.249681
319.644 16.1197 -0.287326
582.189 19.6702 0.20446
464.755 40.5393 0.422323
673.079 9.77314 -0.421263
666.086 6.50294 -0.17556
380.448 37.9913 0.0969106
603.137 46.3485 0.13176
233.595 17.279 0.470755
325.119 3.89309 0.45963
101.182 32.1279 0.395331
114.006 25.3105 -0.293487
529.95 40.2493 -0.0874636
301.545 18.9174 0.489482
647.515 37.1192 -0.14387
635.792 77.8882 0.106955
471.529 22.0328 -0.484831
702.658 41.9569 -0.246664
421.502 23.5787 -0.302533
272.286 24.5325 0.302243
641.867 61.6802 -0.303952
274.583 28.5661 -0.455475
563.783 12.6504 -0.236396
327.298 36.0227 0.210786
493.103 12.8427 0.571498
361.59 32.6113 -0.0994732
423.388 17.0312 -0.105358
313.695 42.5436 0.432002
187.476 30.3363 0.147554
687.67 71.7016 0.144724
715.065 18.6552 -0.412548
5.93185 12.4488 -0.502903
427.338 22.7857 -0.444681
37.3735 23.4914 -0.116557
371.51 32.0225 -0.466132
389.71 25.6067 0.272263
73.7384 12.1026 0.507274
50.696 33.7798 0.42981
222.356 13.5995 0.421548
586.383 54.2191 0.612845
566.339 21.864 -0.438054
73.84 21.1622 0.474594
663.143 75.7756 -0.415658
685.578 2.88115 0.634068
626.377 70.8203 -0.480657
635.369 2.38355 -0.512413
538.648 27.2691 0.40663
560.697 55.4975 0.426782
501.651 19.1523 -0.444499
714.01 6.18279 0.302014
219.979 24.9808 0.166613
126.06 36.0115 0.205806
243.823 6.65322 0.423023
92.8745 4.50173 0.283843
63.0844 10.3502 0.219775
272.677 36.1499 0.347813
15.9787 25.2728 0.43557
544.602 19.8389 -0.523951
578.618 57.191 0.124486
456.017 22.4801 -0.414751
715.614 80.8753 0.359012
401.967 8.72774 -0.109694
429.9 36.7918 -0.413769
526.277 3.32558 -0.20871
22.1646 24.4131 -0.399235
566.089 4.32716 0.485991
535.218 4.30287 -0.31651
203.304 11.1376 0.488918
419.694 16.7727 -0.230543
308.368 6.23097 0.384801
384.07 19.6421 -0.313242
659.633 47.7567 0.157818
189.882 26.1622 -0.46833
692.897 12.7427 -0.433517
662.135 44.8129 0.384254
379.388 10.5665 0.198905
654.937 2.49934 0.497288
585.495 29.2338 0.677358
674.981 21.8683 -0.505778
425.251 45.3232 0.261898
488.158 13.5288 0.480524
457.795 47.1736 0.256359
440.43 9.06824 -0.183584
630.216 71.2339 0.262066
628.554 66.7134 0.303678
190.225 39.4943 -0.328937
705.107 14.1785 -0.265461
561.884 56.8965 0.173979
11.0435 17.0214 0.27128
403.156 26.1839 0.522832
184.914 23.6424 0.399149
91.8053 40.4783 -0.22078
702.398 55.744 -0.460055
622.114 74.4917 0.220946
316.319 25.9128 -0.389636
523.265 10.295 0.335225
81.0804 45.6346 -0.187708
244.917 26.1428 -0.481802
547.015 24.0379 0.408073
480.443 20.3318 0.562714
260.247 0.882907 -0.344013
543.296 41.0819 0.355284
524.657 42.0313 -0.577514
473.639 36.0189 0.412
490.7 2.37958 -0.646512
641.505 20.3055 0.541184
177.202 12.6696 -0.209656
493.074 39.0758 0.462529
553.573 42.6763 0.125728
71.9559 0.976623 0.277417
249.141 4.78211 0.177721
713.543 23.2878 -0.239091
706.762 16.5989 -0.512957
718.008 25.2593 -0.703058
301.048 8.5745 -0.237863
677.764 31.0901 0.661596
403.278 42.9582 -0.330742
444.369 0.801332 -0.44305
616.154 63.3311 0.425666
26.2985 31.5629 0.323839
328.338 42.0069 0.580882
249.988 2.91511 0.370718
700.891 76.7364 0.166217
664.794 85.4681 -0.22528
284.936 11.0773 0.256427
636.107 61.0057 -0.083948
548.969 2.54881 0.273811
533.01 6.55054 0.423605
95.598 18.8264 -0.492432
300.892 1.03247 -0.230825
340.759 2.25559 -0.369753
13.8204 7.625 -0.463391
4.34394 31.3651 -0.298545
159.573 19.2486 0.393199
67.4468 42.1431 0.224941
65.8737 29.302 0.376247
419.331 14.8603 -0.444965
364.466 36.1493 0.441825
681.098 59.217 0.139439
19.5077 4.14125 0.277192
69.7238 7.04579 0.129542
592.065 58.2143 0.142275
292.311 0.925177 0.387941
362.323 16.7025 -0.132267
233.163 4.7097 -0.378048
627.211 49.0554 -0.281289
447.379 7.78083 0.550797
680.402 31.8851 0.352146
600.963 49.3979 -0.30631
642.715 44.4642 -0.0813467
416.58 26.7265 0.589786
101.071 45.7567 -0.306233
533.804 43.4155 0.0733402
677.143 16.4497 0.243151
235.407 30.9405 -0.270273
31.4962 17.9596 -0.23259
334.368 13.9087 0.516867
106.447 41.3118 -0.457659
265.734 42.5352 -0.218313
422.439 2.19019 -0.235692
706.468 66.0622 0.407412
630.427 0.726222 0.673116
330.136 3.4782 0.573994
298.205 26.7556 -0.191282
457.332 43.773 0.225766
80.7083 8.29605 0.487347
195.63 46.0977 0.385744
692.545 56.3851 0.34354
488.191 41.9558 -0.0906367
197.99 41.6182 -0.28132
158.978 43.0797 0.387052
720.598 49.9265 -0.39849
716.756 18.9911 -0.661066
593.836 6.13297 -0.643712
188.526 25.0659 0.111413
540.296 28.2006 0.142389
542.167 27.7643 -0.296542
406.567 5.88878 -0.142637
476.147 0.934923 -0.33803
678.763 62.364 -0.519372
84.3214 31.9057 -0.261947
632.741 45.3776 -0.466651
272.347 15.676 -0.374497
9.46159 2.33807 0.348604
124.65 37.7674 0.18717
66.4442 23.5914 0.534123
642.236 40.0996 0.300873
700.564 85.4344 0.18413
183.726 28.9865 -0.195589
711.341 20.1726 0.419044
44.3835 37.2684 -0.289553
89.7767 29.5419 -0.156651
611.661 32.8153 0.375669
410.104 19 -0.577059
511.086 16.6847 0.138073
235.911 28.915 -0.186711
605.692 10.7217 -0.479532
717.945 19.3558 0.394989
28.8782 32.6157 0.312462
268.205 7.82396 0.202455
220.016 15.2246 0.261064
1.07013 35.9709 0.148916
223.315 14.6577 -0.381751
209.675 10.9995 0.126524
212.058 26.4179 -0.278269
132.229 28.6442 -0.155829
539.371 15.2573 -0.390965
165.383 14.4877 -0.365843
695.054 74.9792 0.237526
172.433 3.86031 0.509601
46.5327 38.3117 -0.445095
662.877 62.7177 -0.535159
279.545 31.4021 -0.389115
645.573 49.7568 -0.515118
712.901 68.2345 0.448501
299.109 9.20406 -0.107295
667.453 33.8419 -0.382901
327.124 2.50608 -0.43787
412.963 24.4219 0.348719
619.675 18.7493 0.42937
104.606 12.1165 -0.483696
477.713 3.60289 -0.679192
683.806 32.2715 -0.197811
87.4115 7.8118 -0.277355
280.007 14.8338 0.203592
420.079 12.1196 -0.215668
713.716 2.42532 0.595835
395.593 2.00685 -0.542287
175.263 39.4525 -0.323125
680.123 14.8217 -0.409944
127.893 37.1246 0.184807
261.278 31.6523 -0.399141
398.104 22.3206 0.213411
565.999 14.7163 -0.300199
384.938 10.227 -0.549291
452.974 29.9925 -0.517007
684.26 73.257 -0.445446
46.7129 11.7386 -0.166976
297.584 39.0604 -0.255053
377.656 28.3561 -0.457402
406.952 21.0174 0.334042
516.644 47.5511 0.356808
676.983 57.1001 -0.222126
633.978 67.2901 0.355286
223.534 34.5414 -0.382734
13.4832 32.1972 0.151656
626.599 67.2362 -0.114655
503.391 44.0764 0.476979
227.268 39.6431 0.112414
651.734 59.2565 -0.120068
149.587 9.51528 0.257194
364.781 21.9829 0.370602
458.812 45.1923 0.122795
410.9 20.2997 0.273098
681.048 77.6861 -0.301639
423.128 4.16213 0.611888
49.0027 25.6473 0.212957
465.619 33.5027 0.340326
430.817 43.335 -0.414859
700.004 69.2029 -0.233466
666.192 31.891 -0.380735
533.478 18.8854 -0.24165
692.88 66.438 0.328013
291.929 2.20281 -0.47514
376.722 30.9117 0.609458
28.1156 39.7039 -0.320351
667.492 38.241 -0.139372
591.097 29.7468 0.623417
459.303 0.718788 -0.508028
124.48 4.73273 -0.347653
423.1 40.501 0.130146
11.907 0.896003 -0.31702
712.475 7.79859 0.092427
368.109 40.9021 -0.531728
[...]
POINT_DATA 13483
TENSORS Strain_matrix float
-2.37163 -1.37052 -6.87336 
0.599121 0.912452 0.616773 
1.86407e-17 1.1902e-17 1 

-1.59662 1.97826 136.15 
0.16014 0.679281 6.63397 
2.50776e-18 2.78712e-18 1 

-0.177613 -0.00788734 -1.29332 
0.0351066 0.00487188 -0.310529 
-9.4889e-18 -1.40778e-17 1 

-1.15867 -0.698492 -4.18186 
0.349782 0.535226 2.34773 
1.5445e-17 6.49385e-18 1 

-0.347722 -0.0288029 -0.262966 
-0.0180164 0.0516526 0.00813641 
2.01237e-18 1.41392e-17 1 

-0.12519 -0.0325747 -1.52357 
0.00985162 -0.00374645 0.497612 
-1.81515e-18 4.22108e-18 1 

-0.16041 -0.0818819 -0.0407409 
0.0481941 -0.0530267 0.00792903 
-7.68265e-18 -1.32567e-17 1 

-0.271503 0.105066 -0.473014 
0.128822 0.0414764 0.640172 
1.17499e-17 7.93117e-18 1 

-0.489846 -0.289262 -0.785656 
0.320522 0.213643 0.0588894 
-2.30314e-18 -8.57723e-18 1 

-0.527447 -0.239388 0.358998 
0.110842 0.0940577 0.0388908 
1.6899e-17 2.06721e-17 1 

-0.106559 0.0346348 0.0200581 
0.0272006 -0.087863 0.110557 
-8.29221e-18 5.02244e-18 1 

-0.118348 -0.0889189 0.231474 
-0.0403403 -0.0989354 0.124975 
1.57427e-17 -5.39017e-18 1 

-0.260091 -0.538485 0.430347 
0.326711 0.263916 0.60269 
1.38783e-17 -9.65448e-19 1 

-0.406903 -0.304356 -0.296192 
0.529728 0.269064 0.282256 
-1.00424e-18 6.57319e-18 1 

-0.290643 -0.0363365 -1.71879 
0.0246501 0.0134987 -1.64438 
-1.03605e-17 -1.58923e-18 1 

-0.154713 -0.0216349 0.813268 
-0.0623231 0.00274271 0.355146 
6.6769e-18 -1.85469e-18 1 

-0.0918713 -0.0348175 0.0696602 
0.0177193 -0.10909 -0.0410404 
2.0073e-18 8.91923e-18 1 

-0.191756 -0.00789717 -0.0281925 
0.00856057 -0.0665079 -0.0372263 
-6.67028e-18 -3.24377e-18 1 

-0.234903 0.0044308 -1.25567 
0.024482 0.0203987 -1.76374 
4.09263e-19 1.00031e-17 1 

-0.127501 0.0595091 0.152511 
-0.138979 -0.050882 0.579641 
-2.75946e-18 9.92261e-18 1 

-0.157061 -0.104982 0.323159 
0.274697 0.00596233 0.00630619 
6.17929e-18 -1.30452e-17 1 

0.162761 -0.673254 0.114243 
0.577155 0.189502 -0.787138 
1.22481e-17 -5.02577e-18 1 

-2.49366 -0.142741 -19.6992 
-0.643781 0.306251 -5.71552 
2.16589e-17 -1.89008e-19 1 

-0.105033 0.0827779 -0.0555361 
-0.370384 0.00803203 0.022502 
4.92795e-18 5.64215e-18 1 

-0.233418 -0.0324026 0.873066 
-0.0516677 -0.0111378 -0.895679 
-2.36777e-17 -7.99741e-18 1 

-0.197721 0.0600734 0.0048232 
-0.0431984 0.0600966 -0.0308009 
-7.42204e-18 2.5414e-18 1 

-0.396369 -0.406631 -0.522464 
0.214103 0.290192 0.836762 
-9.51618e-18 -1.05735e-18 1 

-0.372234 -0.330981 -1.1357 
0.458395 0.194445 -0.452468 
-4.72048e-18 3.85506e-18 1 

-0.125843 0.0884595 0.71562 
0.073289 -0.0825824 -0.422296 
2.3693e-18 -7.10789e-19 1 

-1.31877 -0.312638 1.49978 
0.0201556 0.319259 -1.44794 
-2.88006e-18 -1.01662e-17 1 

-0.226481 0.0451244 0.356921 
-0.117243 -0.187646 0.19944 
1.53826e-17 6.29796e-18 1 

-0.201623 -0.0322723 0.170089 
0.00338367 -0.00990483 -0.0142374 
3.29922e-18 3.53488e-19 1 

0.123646 -0.808681 -1.28903 
0.553603 0.352407 -0.558903 
3.10464e-18 7.56532e-18 1 

-0.268303 0.19651 -14.1022 
0.00645625 0.14587 5.45014 
-3.63501e-18 -2.32915e-17 1 

-0.0654803 -0.0847909 0.197608 
0.0303872 -0.0881816 0.217978 
-7.33876e-19 -5.60891e-18 1 

-0.471493 0.120727 0.744037 
-0.115168 0.234868 -0.385891 
1.89934e-18 -1.56071e-17 1 

-0.180476 0.0110287 0.0125391 
0.0161723 -0.00890822 -1.12547 
2.61153e-18 -1.78566e-18 1 

-0.140327 -0.0119119 -0.259127 
-0.0179092 -0.126388 -0.127751 
-1.01152e-17 3.82605e-18 1 

-0.163757 -0.0669793 0.197363 
0.102844 0.0194387 0.0437344 
6.66104e-18 1.22973e-17 1 

-0.167528 -0.0143295 2.9815 
0.05257 0.0131587 2.78476 
6.63953e-19 -2.31797e-18 1 

-0.141433 -0.00610379 -0.230573 
-0.076681 -0.0440403 0.0462383 
-2.87559e-18 -1.21906e-17 1 

-0.132312 -0.0502417 0.328992 
0.0094884 -0.126746 0.321905 
9.84568e-18 -8.21864e-18 1 

-0.302035 -0.0413518 0.0165169 
-0.100971 -0.148386 -0.05071 
5.1106e-18 1.31886e-18 1 

-0.153751 0.0614625 0.208449 
-0.0262484 -0.0223325 -0.358429 
8.46745e-18 -6.24648e-18 1 

-0.0952807 0.0519614 -0.000899861 
-0.0806856 -0.0773533 0.12445 
3.51182e-18 -3.37157e-18 1 

-0.109878 0.00559709 -0.0597826 
-0.0213602 -0.0379016 -0.245092 
1.07169e-17 -7.13171e-18 1 

-0.734994 -0.119826 0.724297 
-0.124885 -0.0338615 -0.562776 
6.98503e-18 -1.04775e-18 1 

-0.0625074 0.00377873 0.0601285 
0.0436976 -0.173931 -0.0291069 
-6.06221e-18 -3.54406e-18 1 

0.392812 -0.928207 -0.356131 
0.876949 0.515941 -0.176672 
1.40469e-17 -3.2416e-18 1 

-0.293002 0.205069 0.269208 
-0.37561 0.334456 -1.10319 
-2.66176e-19 -2.24148e-18 1 

-0.132957 -0.0770599 -0.0479556 
0.0477487 -0.00920515 -0.14881 
3.45557e-19 -5.75928e-18 1 

-0.0060348 -0.517545 0.579914 
0.372061 0.0455178 0.0317751 
-2.92902e-18 -4.57408e-18 1 

-0.144519 -0.0239385 -0.128496 
0.0334576 0.00701947 0.175647 
-1.08822e-18 -3.56146e-18 1 

-0.171489 0.0660854 0.0917584 
-0.0122797 -0.0413288 -0.125825 
2.83138e-18 -3.361e-18 1 

-0.164005 0.00605175 -0.49384 
-0.0495684 -0.0252373 0.262511 
-1.28565e-18 -9.74592e-18 1 

-1.29242 -1.66882 -6.12906 
0.736035 0.978271 3.6115 
1.46629e-17 4.56586e-18 1 

-0.156293 -0.0251962 0.06677 
-0.0365773 -0.0552647 -0.0271077 
8.51913e-18 -3.8773e-18 1 

-0.115919 0.567918 -0.556485 
0.000980538 0.0457648 -0.44926 
6.25683e-18 3.61722e-17 1 

-0.114 -0.0377514 -0.228847 
-0.0566117 -0.108905 -0.0931924 
-6.39351e-18 -9.76366e-18 1 

-0.115952 -0.110648 -0.224483 
-0.0234618 -0.047822 0.0062762 
7.80665e-18 -4.13293e-18 1 

-0.299097 -0.868173 0.940704 
0.0141865 0.911013 -0.523489 
4.62312e-19 -3.64004e-18 1 

-0.0905976 -0.171969 -0.105601 
0.154648 0.00241673 -0.0285836 
1.93821e-17 5.40057e-18 1 

-0.138715 -0.12924 -0.236101 
-0.0183488 -0.0534989 -0.128689 
-3.88904e-18 -9.13465e-18 1 

-0.313999 -0.222882 2.54193 
0.0273665 0.0340507 0.734306 
1.55306e-17 -1.89935e-17 1 

-0.31231 0.109036 0.297223 
-0.0647494 0.144316 0.753814 
-3.61846e-18 -1.42481e-17 1 

-0.184184 0.043559 -0.180869 
-0.0262072 0.0569791 0.321756 
2.45855e-17 1.1484e-17 1 

-0.649102 -0.272215 0.109989 
0.0879666 0.0289645 0.783662 
3.3718e-18 1.05153e-17 1 

-0.22354 -0.433496 -0.540304 
0.298847 0.243111 2.01271 
3.81685e-19 -3.96192e-18 1 

-0.1684 -0.0279094 0.851875 
-0.00796337 -0.037486 -0.952765 
-9.45887e-18 -2.93551e-18 1 

-0.267495 0.10756 -0.156739 
-0.330731 -0.177701 0.0494628 
4.39604e-18 -9.06973e-18 1 

-0.646314 -0.794162 -1.35621 
0.383634 0.417132 0.611839 
1.86804e-18 -9.14696e-18 1 

-0.13591 0.0299599 -0.0966824 
-0.0617082 -0.033004 -0.00379563 
-5.5497e-18 -3.5106e-18 1 

-0.228608 -0.342327 -0.125942 
0.15479 0.127428 0.578148 
7.30904e-18 -5.38089e-18 1 

-0.307994 0.0843991 -0.0332275 
-0.0524112 0.172549 -0.484248 
-1.84567e-18 1.08569e-19 1 

-0.123685 0.0240135 -0.404852 
-0.0260135 -0.0350436 -0.219263 
2.63464e-18 1.00782e-17 1 

-0.117057 0.0204976 0.397659 
-0.0106008 -0.0708241 0.0656358 
8.37778e-18 1.00854e-17 1 

-0.124764 -0.503007 -0.264929 
0.198349 0.144168 0.0693995 
2.66249e-18 1.08043e-18 1 

-0.141692 0.0804546 -0.676764 
-0.0517339 -0.0271343 0.159799 
1.00926e-17 -1.85598e-18 1 

-3.1521 2.31687 31.3073 
-1.24989 2.16325 10.7042 
-3.11392e-18 -1.07937e-18 1 

-0.421529 -0.323242 0.161187 
0.1688 0.0431773 0.280163 
-4.06163e-18 6.4986e-18 1 

-0.620311 -0.0592319 0.0890069 
0.510953 0.102636 0.555857 
1.26333e-18 -1.29628e-17 1 

-0.0895399 -0.163448 -0.0318331 
0.140439 0.0221535 0.0318945 
-1.86619e-18 -6.76982e-18 1 

-0.0968609 -0.0157865 -0.113132 
0.0055017 -0.0333499 0.043753 
1.11466e-17 1.13623e-17 1 

-0.478739 -0.338593 -1.01798 
0.0754494 0.148507 -0.388173 
1.36898e-17 1.27822e-17 1 

-0.204491 -0.613755 -0.17785 
0.288471 0.217886 -0.0817735 
-3.52906e-18 4.07984e-18 1 

-1.12027 -0.673902 -0.501092 
0.216058 0.51531 0.286773 
-9.42099e-18 9.37061e-18 1 

-1.79094 -0.256819 -5.11627 
-0.136537 0.54305 -0.647621 
1.34551e-17 8.96146e-19 1 

-0.141166 0.0310872 0.0247847 
-0.0073917 -0.0834033 -0.320835 
1.54829e-18 -9.33967e-18 1 

-0.644582 0.0484299 -0.574041 
-0.0182681 0.220939 0.304384 
-2.4168e-18 -2.2542e-17 1 

-0.155184 -0.0181785 -2.14618 
0.00605675 -0.0550074 -1.19124 
-7.56657e-19 9.90459e-18 1 

-0.111794 -0.0687075 0.164473 
-0.00138493 -0.0411705 -0.122824 
5.47536e-18 1.1989e-17 1 

-0.377856 0.234803 -0.473829 
-0.119918 0.0707682 0.0346538 
2.38434e-18 1.02151e-18 1 

-0.254987 -0.445629 6.81537 
0.364024 0.212164 1.2557 
6.83428e-18 4.13043e-18 1 

-0.152494 0.0258365 0.115885 
-0.024803 -0.00662259 -0.0390778 
-3.8144e-18 6.69846e-18 1 

-0.126503 0.0526182 0.241138 
-0.0126284 0.0134509 0.0470619 
2.37549e-18 -7.76983e-18 1 

-0.32996 0.505519 -0.290572 
-0.0230719 -0.0490197 -0.0577307 
-9.24783e-18 1.86746e-17 1 

-0.169898 0.00544938 -0.304233 
-0.00701937 -0.0346875 -0.970541 
-4.40786e-18 6.83678e-18 1 

-0.574269 -0.671674 0.804154 
0.483715 0.291003 0.881374 
4.47821e-18 1.11077e-17 1 

-0.0330549 -0.667281 0.144716 
0.540754 0.128197 0.0123862 
6.89941e-18 -4.46432e-18 1 

-0.110134 0.00798183 -0.247355 
-0.0255483 -0.0370971 0.799708 
9.54607e-18 1.14847e-17 1 

-0.120088 -5.79568e-06 -0.543003 
0.01038 -0.0331609 0.759365 
9.90508e-18 -5.26593e-18 1 

-0.234895 0.0714303 -0.581942 
-0.112411 0.0446319 0.158653 
-2.37303e-18 -9.37777e-18 1 

-0.174916 -0.0111723 -0.368542 
-0.0121074 -0.0138405 0.236551 
-6.37246e-19 3.00037e-18 1 

-0.194536 0.00157576 0.138048 
0.0860072 0.0034263 0.0363718 
2.95455e-18 -1.9697e-19 1 

-0.175415 1.71011e-05 0.0358285 
-0.218208 -0.086156 -0.124134 
4.36234e-18 -2.02537e-17 1 

-0.195116 0.0807766 0.0748226 
-0.141514 -0.0263703 -0.141548 
-7.40473e-18 -3.17345e-18 1 

-1.04004 -0.767676 -0.0626542 
0.380659 0.595951 -0.247187 
9.62734e-18 3.82681e-18 1 

-0.160031 0.0338558 -0.215585 
0.00129503 0.0299555 0.48074 
-2.72057e-18 -4.36523e-18 1 

-0.16095 0.0653774 0.106218 
0.0759776 -0.106703 -0.0703144 
-5.72475e-18 -7.88373e-18 1 

-0.190603 0.0156745 -0.10031 
0.0556579 -0.0746396 -1.52425 
1.0806e-17 6.22308e-18 1 

-0.164299 -0.00747712 2.47313 
0.00269578 -0.0222878 0.660137 
7.37495e-19 9.71859e-18 1 

-0.167457 0.0126311 -1.23674 
0.0258476 -0.0231382 1.06022 
-4.34496e-18 2.82503e-18 1 

-0.0959757 0.132049 -0.0665293 
-0.127104 -0.0955668 -0.0270571 
8.5375e-18 -1.59022e-17 1 

-0.626142 0.215448 -2.78381 
-0.0138789 0.337892 -2.38668 
3.78804e-18 6.56143e-18 1 

-0.258003 0.143338 0.209387 
-0.143893 0.0984574 0.0714088 
-7.17708e-18 -3.15127e-17 1 

-0.151111 -0.0391875 0.870999 
0.0226824 0.0188493 1.29725 
4.54741e-18 -2.3544e-18 1 

-0.220325 0.0458808 0.459552 
-0.0744835 0.0570468 0.449554 
5.32055e-18 -1.00641e-17 1 

-0.157693 0.0517129 -0.113985 
0.00858857 -0.0439686 -0.0560234 
8.72593e-20 -5.10467e-18 1 

-0.765665 -0.367321 0.049775 
0.0588718 0.322409 -0.283955 
-8.55127e-19 -2.43845e-19 1 

-0.337773 -0.338545 0.24183 
0.274959 0.207705 0.330746 
-8.47479e-18 2.55625e-18 1 

-0.381804 -0.101214 -0.298213 
0.124135 -0.0754154 -0.447053 
6.43307e-18 1.35484e-17 1 

-0.452788 -0.261152 0.759064 
-0.0594413 0.131841 -0.020737 
1.74654e-17 3.84591e-18 1 

-0.0803554 -0.0428802 -0.0451067 
-0.00747337 -0.0188896 0.0378812 
1.81534e-18 -1.4207e-18 1 

-0.16628 -0.538783 0.115834 
0.39534 0.213946 0.192901 
1.17285e-19 -3.16668e-18 1 

-0.153882 -0.00700659 1.39873 
-0.0505129 -0.0548185 -0.250293 
-1.64088e-18 5.49588e-18 1 

-0.126694 -0.0261454 0.0223545 
-0.0347759 -0.10469 -0.00350683 
-2.65299e-19 -4.85118e-18 1 

-0.183262 -0.00581236 0.129303 
-0.0480367 -0.0119236 -0.0261651 
1.92963e-18 -5.59283e-18 1 

-0.248822 0.0382478 0.222659 
0.0360012 0.095579 -0.254402 
-4.30389e-19 4.24241e-18 1 

-0.181296 -0.179664 -0.13994 
0.087781 0.0263256 -0.183102 
2.72723e-19 5.09992e-18 1 

-0.160153 0.0461205 -0.366054 
0.0350399 -0.0462549 -0.268537 
-2.14089e-17 1.06814e-17 1 

-1.32032 0.330191 -2.01016 
0.125208 0.570937 1.41262 
9.73979e-18 -9.86613e-18 1 

-0.425215 -0.225142 -0.242799 
0.564525 0.155095 0.872424 
0 5.82867e-19 1 

-0.196911 -0.000916622 -0.528863 
-0.0569235 -0.00483551 -1.45929 
-3.09092e-18 2.81919e-18 1 

-0.14786 -0.782794 0.18066 
0.605801 0.232979 0.0859527 
2.02272e-17 -5.45453e-18 1 

-0.197453 0.0195528 -0.155306 
-0.0212586 0.010417 -0.244977 
-1.84604e-17 1.3278e-17 1 

-0.129948 0.0353249 -0.212621 
0.00764732 -0.00787947 -0.011647 
-9.16158e-18 -2.17587e-18 1 

-0.790667 -0.296799 0.795107 
-0.459623 0.288464 -0.0925432 
-3.29454e-18 2.12772e-18 1 

-0.125094 -0.00528321 0.0335615 
-0.0239022 -0.0504061 0.0806483 
7.23677e-18 -6.85589e-18 1 

-0.148472 -0.125256 0.0792805 
0.180608 -0.00694516 0.100311 
-1.45513e-19 6.6936e-18 1 

-0.0906429 -0.0756813 0.0105633 
0.0562 -0.0790199 -0.0246614 
-2.47652e-17 -2.50258e-18 1 

-0.289974 -0.0661053 -0.574134 
-0.0452844 0.0238284 1.29815 
1.11384e-17 -5.34031e-18 1 

-0.0931521 -0.125121 0.0644834 
0.0769121 -0.0314871 0.0754325 
1.98707e-18 -1.25848e-17 1 

-0.126128 -0.0376324 0.131487 
-3.46661e-05 -0.0417545 -0.0812377 
8.36498e-19 1.72369e-18 1 

-0.0902776 -0.0740921 -0.54744 
0.0414771 -0.0248416 -0.359998 
-8.8376e-18 3.05299e-18 1 

-0.107637 0.0471859 -0.107968 
-0.0233765 -0.0096044 0.0303958 
2.20665e-18 -1.38578e-17 1 

0.0491579 -0.934821 -0.848383 
0.43753 0.319526 0.459335 
1.86142e-19 -1.01797e-17 1 

-1.08943 -0.0572091 0.428073 
-0.368135 0.26064 -0.168264 
-1.26662e-18 7.17749e-18 1 

-0.140336 -0.009131 0.0816913 
-0.0623893 -0.113134 0.246705 
2.60733e-18 -1.48225e-18 1 

-0.15311 0.0315318 -0.163693 
-0.0557359 -0.035077 -0.32422 
3.95096e-18 -6.93951e-18 1 

-0.175988 0.0350709 0.330875 
-0.0998238 -0.00546128 0.059243 
7.29371e-18 5.39831e-18 1 

-0.184243 -0.0858748 0.612536 
-0.00845495 -0.00235121 -0.279793 
-5.52075e-18 3.27641e-18 1 

-0.202505 -0.000177053 0.0545758 
0.0197992 -0.00987666 0.188904 
1.1831e-18 1.14084e-17 1 

-0.162619 -0.0642025 1.91233 
0.0203025 -0.0385242 0.0710847 
-2.21001e-18 -1.14411e-18 1 

-0.125146 0.00188912 0.453361 
-0.0293602 -0.00967773 0.145046 
-3.39084e-18 -4.22113e-18 1 

-0.117125 -0.033642 0.172809 
0.034517 -0.0443536 0.109006 
6.78429e-18 -2.50926e-18 1 

-0.747032 -0.236188 -30.1805 
0.0515337 0.430814 12.0618 
7.46568e-19 -9.5441e-18 1 

-0.315391 0.040517 -0.362688 
0.0043214 0.108727 0.106463 
-2.5047e-17 -1.51475e-17 1 

-0.14719 0.00352422 0.133841 
-0.0123207 -0.00182678 -0.907734 
-4.6987e-18 -6.13431e-18 1 

-1.7829 -2.07457 -23.426 
0.238802 0.90387 5.64736 
8.0503e-19 -2.66153e-18 1 

-1.42005 0.265917 2.24352 
-0.1705 0.296096 -1.28568 
1.47515e-17 -1.21421e-17 1 

-0.129763 -0.235771 2.06884 
0.144134 0.0747638 -2.94107 
-6.72953e-18 7.69427e-18 1 

-0.397882 -0.0961109 1.08821 
0.111064 0.0454308 0.493549 
-7.63794e-18 -1.76449e-17 1 

-0.118515 -0.16358 1.08048 
0.14637 -0.0379759 0.0852979 
5.06226e-18 2.71763e-17 1 

-0.525316 -0.80672 16.5895 
0.084433 0.843152 0.494476 
4.16672e-18 7.54582e-18 1 

-0.391898 -0.0631034 0.00956099 
-0.318731 -0.0515472 0.030328 
2.16468e-18 -1.78947e-17 1 

-1.49748 0.107274 -0.946106 
0.595579 0.353034 -0.0923073 
4.08455e-18 -1.46087e-17 1 

-0.151282 -0.0246086 -0.0740996 
0.0592582 -0.0342316 0.072591 
-2.37103e-17 -6.51999e-18 1 

-0.0941128 0.0209485 -0.330172 
0.000203138 -0.0209043 0.0713375 
-1.49608e-18 3.2319e-18 1 

-0.126872 -0.0481588 0.114476 
0.0164413 -0.0772996 0.0995648 
-7.19715e-18 3.55184e-18 1 

-0.210509 -0.0408394 0.159679 
0.0153934 -0.003154 -0.234164 
-2.5237e-18 -4.99566e-18 1 

-0.113437 0.0100157 0.00182724 
-0.0125872 -0.0381502 -0.0474876 
-1.67645e-18 3.73583e-19 1 

-0.0947807 0.020229 -0.163409 
0.00985123 -0.0149377 -0.00899889 
-5.7517e-18 5.42114e-19 1 

-0.163018 -0.00738147 1.15309 
-0.0434549 -0.0113128 -0.182419 
1.26582e-17 -2.85787e-18 1 

-0.286338 -0.128591 1.70047 
-0.00115021 0.0505132 -1.78962 
-8.52493e-18 -1.70246e-18 1 

-0.281313 -0.595498 0.482729 
0.621076 0.44189 -0.0845581 
-9.684e-18 -1.63402e-18 1 

-0.187817 -0.099585 -0.0326783 
0.0751098 -0.0392688 0.416107 
1.32143e-18 5.47229e-18 1 

-0.0880508 -0.636461 0.858721 
0.595485 0.309654 0.233915 
-1.68253e-18 -9.72129e-18 1 

-0.132951 -0.0493479 0.0063086 
-0.00170803 -0.0722627 -0.156727 
2.18677e-17 -1.00153e-17 1 

-0.242335 -0.0846111 0.116255 
0.0278715 0.078759 1.15129 
5.34664e-18 -4.03264e-18 1 

-0.209126 0.164328 0.160569 
-0.154124 -0.111292 -0.0908023 
5.29045e-18 -6.28241e-18 1 

-0.136979 -0.0139834 0.00611315 
-0.0256366 0.00323738 0.0284378 
-7.26529e-20 1.33681e-17 1 

-0.357679 0.0231458 0.641199 
-0.146562 -0.0251467 0.0210313 
-1.73267e-17 -9.88754e-18 1 

-0.102124 -0.0270315 -0.179999 
-0.0554338 -0.0411212 0.0251806 
-2.66647e-19 -4.85297e-18 1 

-0.127063 0.0257992 0.883867 
0.0195027 -0.0646025 0.211856 
1.55078e-18 -5.08975e-18 1 

-0.261528 -0.0173205 0.00438169 
0.110906 0.0496782 -0.16571 
-5.43385e-18 5.17714e-18 1 

-0.18529 -0.0244223 -0.128022 
-0.0550651 -0.0445285 0.29248 
-4.6707e-18 1.64536e-17 1 

-0.174421 -0.0411672 0.29513 
-0.0355239 0.00866771 -0.144836 
-4.23478e-18 8.76548e-18 1 

-0.451092 -0.856217 5.60503 
0.386599 0.815448 3.23157 
-3.85521e-18 -8.12521e-18 1 

-0.162866 -0.00480746 0.199643 
-0.00924465 -0.0313622 0.169702 
2.53586e-19 -4.43775e-18 1 

-0.697551 -0.171765 -0.37786 
-0.270763 0.0935528 0.199335 
-3.68312e-18 -5.90657e-18 1 

0.382087 -0.926012 -0.0783648 
0.92898 0.469842 -0.0534195 
-1.03375e-17 -4.54189e-18 1 

-0.167685 -0.0676003 -0.320769 
0.0985504 -0.00948102 -0.0847603 
-3.10097e-18 8.33286e-18 1 

-0.355182 -0.0575401 0.918065 
0.0279296 0.0235092 -0.664072 
1.68214e-17 1.30495e-17 1 

-1.10124 -0.472323 -3.17086 
0.588245 0.544377 1.13456 
7.3328e-18 1.16977e-17 1 

-1.72351 -0.579837 0.257335 
0.196244 0.428546 -0.807875 
1.01682e-17 1.50852e-17 1 

-0.416733 -0.252373 -1.14152 
0.0106633 0.389821 -0.974719 
-1.13008e-17 -1.77632e-17 1 

-0.292983 0.0499828 0.240635 
0.00380504 -0.0350222 -0.232276 
8.71491e-18 -8.9039e-18 1 

-0.324123 -0.232481 -0.140611 
0.208909 0.1307 0.104437 
1.64457e-17 -6.01673e-18 1 

-0.188928 0.053603 0.0509973 
-0.120391 -0.0163594 0.173124 
1.28582e-18 5.87193e-18 1 

-0.190591 -0.26477 -0.315193 
0.315243 0.185641 -0.0673234 
-9.21054e-18 2.35388e-18 1 

-0.0673568 -0.193065 -0.215506 
0.162721 -0.0281381 -0.0625023 
7.70809e-18 1.65382e-17 1 

-0.109996 0.0827662 -0.00510975 
-0.000395108 -0.0275236 -0.169287 
2.86599e-18 -1.20315e-17 1 

-0.538754 -0.211665 -0.320594 
-0.144234 -0.00403352 -0.180951 
-6.43856e-18 4.31557e-18 1 

0.184166 -1.43506 1.88459 
-0.0444006 0.669975 0.754133 
-7.72248e-18 3.80528e-18 1 

-0.200207 0.00298775 -0.0576082 
0.00272723 -0.0348717 -0.0252852 
-1.36098e-17 1.33146e-17 1 

-0.238204 -0.0211371 0.23023 
0.025509 0.00947934 0.0791653 
-3.87299e-18 8.27652e-18 1 

-0.101017 -0.0188906 0.103122 
-0.0107334 -0.0238224 0.648995 
-1.72518e-17 4.31294e-18 1 

-0.124005 0.0318971 -0.458436 
-0.0308111 0.00631131 0.0382726 
6.90921e-18 -3.80559e-18 1 

-0.211208 -0.463922 2.29906 
0.432431 0.103821 1.16329 
3.3455e-18 3.72926e-18 1 

-0.0892367 -0.258787 0.183824 
0.118953 0.00451212 -0.0861929 
2.15661e-18 1.57908e-18 1 

-0.143105 0.0436832 -0.133097 
-0.0289199 -0.0167006 0.155334 
-2.44654e-18 1.58557e-17 1 

-0.183644 -0.00497041 -0.517333 
0.00206336 -0.0026843 -1.42425 
-1.08708e-17 -1.64369e-18 1 

-0.0897121 0.117574 -0.190853 
0.0102112 -0.0549917 0.167221 
1.79239e-18 6.32899e-18 1 

-0.130971 -0.00233537 -0.714279 
-0.020162 -0.0120178 -0.966373 
3.04111e-18 -7.10286e-18 1 

-0.242485 0.00954479 0.955343 
-0.0108778 0.0406347 -0.35087 
-2.73514e-18 4.31077e-18 1 

-0.316189 0.0813444 -0.0939563 
0.0237557 0.0917506 0.712807 
-5.91382e-18 -2.22695e-18 1 

-0.158047 0.05091 0.0480644 
0.00820696 -0.081818 -0.300827 
-8.96551e-18 -5.72203e-18 1 

-0.312147 -0.0945171 -1.0284 
0.280153 0.192817 -0.99794 
-7.86039e-18 1.9194e-17 1 

-0.295745 -0.709379 48.1039 
0.00724817 0.521994 -18.198 
-8.51008e-20 6.03703e-19 1 

-0.217271 -0.215081 -0.235049 
0.0180768 0.0893406 -0.429212 
2.45547e-17 -7.32007e-18 1 

-0.442346 0.0797379 -1.14388 
0.0173056 0.0977722 0.0308897 
-7.0065e-18 4.3361e-18 1 

-0.628488 -0.348016 0.522906 