# vtk DataFile Version 3.0
Output file generated by Yade's KinematicLocalisationAnalyser
ASCII
DATASET UNSTRUCTURED_GRID

POINTS 13483 float
602.359 29.0826 0.476664
723.063 74.6905 0.48979
118.479 6.01033 -0.560099
755.979 11.1443 -0.343552
494.896 7.88649 0.338839
312.178 35.3551 -0.471752
154.444 7.04893 0.444102
566.47 10.349 0.146376
491.724 24.7811 -0.210988
697.421 12.2508 0.575713
207.961 8.68095 0.135971
254.434 6.32101 -0.25363
643.701 42.6408 -0.17531
627.932 20.2081 -0.189044
135.741 17.8331 0.518968
218.464 34.7978 0.407681
215.32 12.9734 -0.290557
286.318 9.71523 0.395748
338.682 32.7668 -0.492347
519.249 8.5718 0.343894
408.144 36.9366 -0.0689663
585.927 47.2449 0.272782
751.358 44.8212 -0.498559
686.833 59.144 -0.100805
455.973 16.9895 -0.423104
238.331 44.4992 0.138301
486.969 28.87 -0.519874
582.915 20.7507 0.243808
44.4934 16.0186 -0.379793
692.923 30.6859 0.485086
478.207 5.67709 0.462099
16.1243 23.4774 0.33592
735.828 78.7054 0.252822
490.812 2.65615 0.477575
77.2651 44.8964 -0.100393
517.104 30.7309 0.366402
525.902 16.6112 0.436776
341.413 22.6627 -0.232092
529.07 25.5525 -0.304741
347.904 33.5089 0.480883
238.334 14.7427 -0.300129
431.17 35.798 0.0830648
655.733 6.89703 0.123653
190.252 6.24614 0.348731
54.7055 7.04593 -0.123917
67.752 9.02117 -0.298046
669.257 10.3094 -0.629203
23.0722 12.0601 -0.312624
602.307 50.5949 0.376808
668.62 38.0575 0.341411
170.45 32.6261 0.326977
724.142 58.4556 -0.126348
34.2718 28.5339 0.13029
529.593 3.0218 0.323115
140.251 7.31394 -0.526242
590.987 34.2401 0.475497
499.573 28.124 -0.16963
172.962 0.941064 -0.275815
32.1649 2.35636 -0.318648
346.476 17.9423 0.276385
610.428 58.2673 0.134584
459.04 35.1825 -0.180576
396.835 1.02789 0.202109
679.391 9.1779 -0.613919
26.3356 43.7134 -0.234925
253.842 30.8543 0.285303
698.633 6.96482 0.400451
659.054 63.6566 0.403966
415.104 8.66983 -0.509717
567.16 3.63629 -0.367987
713.203 42.8762 -0.480713
129.1 7.79854 0.276051
493.99 27.068 0.197983
475.009 15.7935 -0.117062
292.493 16.7713 -0.347783
20.2154 13.9645 0.30969
746.277 72.8956 0.321201
331.06 39.2545 -0.290684
665.42 32.3166 -0.493014
669.082 14.158 0.388538
748.115 14.9123 -0.205233
462.454 36.2555 0.180659
91.535 39.0691 0.307148
674.661 51.167 -0.278684
638.236 50.3148 0.099589
758.025 55.9792 -0.126868
742.323 2.76791 -0.667074
289.235 28.7865 0.461195
621.306 7.07598 -0.080601
24.247 5.82019 -0.639382
132.259 38.9897 -0.161807
509.077 15.211 0.216235
743.754 59.6796 -0.511709
193.809 29.1397 0.242546
43.6761 34.8205 0.304651
489.676 1.44094 0.140128
233.957 8.74115 -0.438859
708.679 55.9056 -0.335483
731.624 53.5862 0.289824
359.901 21.4985 -0.282721
162.217 27.043 -0.478269
547.496 38.6628 0.446968
378.521 15.7983 -0.459335
411.976 29.9666 0.121439
376.516 4.56303 0.419009
545.572 10.9027 -0.108238
758.561 17.6509 -0.243198
79.5428 39.7935 -0.417721
334.196 4.99896 -0.213456
559.942 9.66883 -0.366706
358.704 44.2541 0.448381
25.1737 25.3533 -0.528052
29.9827 5.86407 -0.301839
567.072 33.2714 0.477321
502.191 25.4451 0.157657
25.7612 37.4393 0.430226
92.3763 30.9602 0.254457
324.142 16.069 -0.285656
600.134 18.5891 -0.19881
473.853 39.5586 0.359454
714.451 9.74727 -0.418681
707.487 6.4707 -0.184737
386.41 37.4524 0.0963181
629.598 33.8225 0.13804
236.964 17.241 0.47463
329.618 3.88303 0.458098
102.841 31.8427 0.391049
115.783 25.0637 -0.285237
542.79 38.8902 -0.0954614
305.652 19.0238 0.459704
688.808 36.3992 -0.15223
663.511 63.4776 0.103008
479.826 21.6019 -0.438759
743.629 42.5085 -0.253964
428.6 23.5786 -0.252884
276.001 24.4912 0.303247
668.867 46.7038 -0.295659
278.306 28.5361 -0.447096
577.491 12.4301 -0.246135
332.083 35.9647 0.206667
503.333 11.8624 0.520588
366.73 32.1536 0.0969419
430.63 16.9631 -0.10248
318.246 42.3887 0.428703
190.118 30.1358 0.144382
727.206 72.2851 -0.00993152
756.083 18.9126 -0.409904
6.01256 12.4056 -0.497126
434.732 22.6539 -0.433835
37.8518 22.9647 -0.0969539
376.887 31.6511 -0.373074
395.618 25.1255 0.263856
74.8268 12.0988 0.503318
51.4778 33.5481 0.430547
225.599 13.6203 0.417543
611.901 42.9252 0.454984
579.973 21.6054 -0.432424
74.7787 21.0815 0.475662
689.527 61.0575 -0.453814
726.878 2.889 0.635084
654.101 56.7169 -0.496251
675.541 2.41648 -0.484819
551.668 26.7922 0.430736
587.551 47.3631 -0.452063
512.474 18.664 -0.426363
755.102 6.28586 0.291622
223.247 25.0395 0.160054
127.838 35.8495 0.203677
247.345 6.53918 0.395422
94.2104 4.48153 0.278099
64.0929 10.2926 0.219117
276.388 36.0939 0.333788
16.229 25.3717 0.430512
557.595 19.5058 -0.414613
604.075 45.3189 -0.208048
464.214 22.0395 -0.411597
756.629 81.0278 0.354435
408.232 8.69 -0.11057
437.591 36.6033 -0.397184
538.102 3.39497 -0.201266
22.4043 24.4005 -0.402353
579.994 4.34791 0.461618
547.855 4.31251 -0.323246
206.401 11.1164 0.488006
426.855 16.7621 -0.210289
312.568 6.32592 0.36854
389.789 19.274 -0.322316
700.439 47.5696 0.162636
192.574 25.9486 -0.46254
734.114 12.8551 -0.423961
703.001 44.7105 0.360516
384.994 10.4102 0.196572
696.327 2.43834 0.502478
607.177 25.1549 -0.466003
716.204 21.9039 -0.50401
432.264 43.6895 0.266623
497.888 13.0985 0.368555
466.769 46.073 -0.22365
448.048 8.87009 -0.158524
657.932 56.9958 0.263855
656.01 52.535 0.316054
192.803 39.2951 -0.303177
746.214 14.394 -0.258011
589.355 47.5092 -0.277874
11.1933 16.9967 0.262137
409.58 25.4696 0.458762
187.552 23.4719 0.397932
93.1985 39.8831 -0.214677
743.018 56.376 -0.455925
650.176 60.8032 0.220943
320.852 25.8339 -0.38666
535.127 10.3035 0.327361
82.4305 45.1268 -0.179599
248.427 26.0099 -0.479409
560.345 24.0196 0.389071
489.179 19.5556 0.408381
263.865 0.881024 -0.340401
556.537 40.3368 -0.364229
536.103 41.0198 -0.470425
483.411 34.7783 -0.37022
501.645 1.71023 -0.670546
682.983 20.0019 0.732017
179.728 12.5426 -0.214807
502.832 37.7033 0.468175
568.067 41.6715 0.143872
73.0431 0.975191 0.276271
252.661 4.75082 0.18572
754.552 23.6914 -0.263639
747.853 16.8442 -0.501866
759.002 25.6559 -0.702387
305.148 8.63522 -0.231912
718.851 31.2104 0.662141
409.52 42.007 0.315681
452.261 0.800156 -0.434641
643.594 49.9239 0.430842
26.8808 31.2183 0.323706
333.151 41.89 0.570689
253.509 2.8882 0.350661
740.532 77.1484 -0.17638
690.184 72.0664 -0.194583
288.836 11.0621 0.245877
663.06 46.2123 -0.085896
561.775 2.56079 0.277182
545.646 6.48822 0.445566
97.0194 18.5975 -0.49632
305.009 1.04354 -0.228622
345.437 2.25049 -0.370062
13.9793 7.61255 -0.458615
4.39832 31.1686 -0.294236
161.932 19.1261 0.390678
68.2654 42.1667 0.220073
66.7303 29.2429 0.375673
426.486 14.8507 -0.431036
369.632 35.6015 0.479907
721.143 59.6912 0.137387
19.7247 4.12159 0.275204
70.7957 7.0236 0.130608
619.697 46.3407 0.145207
296.341 0.924624 0.375427
367.711 16.464 -0.0978111
236.478 4.70144 -0.380445
652.73 35.3604 -0.263545
455.191 7.80808 0.541381
721.471 32.0694 0.340631
628.002 37.13 0.314813
666.941 30.898 -0.109037
423.415 26.7732 0.558855
102.539 45.4224 -0.305905
546.377 42.5066 0.0737012
718.437 16.4941 0.246354
238.877 30.7976 -0.267039
31.8713 17.5329 -0.21163
338.965 13.856 0.515273
108.008 41.0498 -0.437747
269.311 42.4248 -0.217461
428.988 1.71715 -0.365894
746.751 66.7955 0.384883
670.489 0.766231 0.623756
334.699 3.4564 0.570712
302.235 26.5967 -0.156517
465.787 42.9719 0.228622
81.8741 8.29199 0.475147
198.231 45.8893 0.382279
732.976 56.9129 0.355925
498.076 40.4696 -0.0867778
200.608 41.4725 -0.276783
161.13 42.6745 0.386581
761.568 50.6573 -0.391929
757.768 19.2788 -0.662111
612.162 3.16731 -0.607074
191.195 24.8875 0.106227
553.458 27.7053 0.117484
555.458 27.4779 -0.277767
412.794 5.71215 -0.141448
484.803 0.927562 -0.290099
718.911 62.8607 -0.533279
85.2913 31.3632 0.20866
657.8 30.9981 -0.504183
276.117 15.6469 -0.365272
9.61252 2.34058 0.34755
126.407 37.6137 0.186076
67.3363 23.5249 0.529913
683.514 39.6156 -0.332679
741.269 85.5144 0.171833
186.352 28.7845 -0.193274
752.408 20.4514 0.41788
45.0591 36.9568 -0.272557
91.3262 29.3299 -0.174429
636.439 19.3521 0.403465
416.963 18.7444 -0.543461
522.619 16.6426 0.131812
239.385 28.7807 -0.185253
627.602 4.19123 -0.673835
758.949 19.6351 0.386119
29.5179 32.215 0.306073
271.945 7.79685 0.199828
223.255 15.2598 0.258126
1.06961 35.7309 0.148794
226.572 14.6785 -0.376624
212.807 11.0065 0.125497
215.268 26.4891 -0.265382
133.966 28.4727 -0.171781
551.927 15.1947 -0.389134
167.794 14.3801 -0.361503
734.764 75.4456 0.236534
174.944 3.81357 0.514203
47.2601 37.981 -0.447554
700.298 58.2566 -0.443568
283.254 31.4261 -0.379232
671.848 34.2557 -0.473651
753.086 68.8198 0.458309
303.197 9.25538 -0.104943
708.548 33.8379 -0.396014
331.656 2.5043 -0.431441
419.847 24.336 0.344054
658.518 17.506 0.634114
106.13 12.1162 -0.478702
486.504 3.94111 -0.534861
724.837 32.5014 -0.188455
88.688 7.74979 -0.23972
283.83 14.8339 0.199103
427.258 12.0629 -0.203476
754.797 2.44834 0.593238
401.759 1.99451 -0.5376
177.733 39.2235 -0.318758
721.415 14.8864 -0.414637
129.679 36.9592 0.182627
264.9 31.544 -0.397146
404.437 21.8612 0.218366
579.653 14.5022 -0.328287
390.789 9.88532 -0.510545
461.043 29.4576 -0.482751
723.632 73.5739 -0.385003
47.5769 11.5737 -0.157774
301.886 38.7347 -0.257248
383.31 27.3863 0.338281
413.733 20.8782 0.288028
525.764 45.7094 -0.357364
717.213 57.5903 -0.206932
661.283 52.7599 0.377176
226.922 34.5305 -0.38669
13.6075 32.1528 0.171251
654.112 53.1803 -0.117242
513.358 42.3128 0.4585
230.879 39.5514 -0.0915727
678.738 44.1371 -0.121237
151.704 9.40322 0.2302
370.168 21.6375 0.366346
467.613 43.9993 0.0597362
417.853 20.0689 0.241995
718.947 77.6361 0.292902
430.333 3.94861 0.535628
49.8175 25.4164 0.257944
474.139 32.7614 0.352054
438.544 43.1547 -0.386947
740.081 69.7807 -0.231406
707.263 31.7122 -0.386323
545.689 18.6131 -0.203659
732.95 66.8883 0.418927
295.917 2.21032 -0.465218
382.026 29.8429 0.508429
28.9595 39.282 -0.330051
708.541 38.2339 -0.155803
614.939 20.4874 0.542179
467.539 0.772472 -0.471197
126.336 4.71325 -0.341208
430.674 40.2983 0.130208
12.0765 0.895757 -0.31715
753.563 7.91095 0.0934587
373.814 39.7835 -0.436975
[...]
POINT_DATA 13483
TENSORS Strain_matrix float
-0.968967 -0.0643865 2.6974 
0.0109271 0.451576 0.0943854 
7.35908e-18 -8.14756e-18 1 

-1.04338 0.067453 36.4645 
0.227467 0.441679 -3.54859 
-1.12437e-19 1.27354e-18 1 

-0.154026 -0.0158306 -4.49286 
0.0203283 -0.00639049 -2.28305 
6.061e-19 -2.17339e-17 1 

-1.16659 -0.701003 -4.17157 
0.353282 0.541942 2.35116 
-3.74122e-19 4.94491e-18 1 

-0.293028 -0.0972618 -0.0903151 
0.000149058 0.00726194 -0.143395 
1.4736e-18 -8.58534e-18 1 

-0.109575 -0.0346814 -1.11862 
0.0266407 -0.0139045 0.162526 
-1.41029e-18 8.0563e-18 1 

-0.124859 -0.0479473 0.223159 
0.0213949 -0.0723819 -0.594886 
-1.38672e-17 -5.07145e-18 1 

-0.131958 0.039751 -0.117531 
-0.0194048 -0.0456143 -0.0881489 
1.32432e-17 1.23604e-17 1 

-0.260603 -0.082017 -0.325415 
0.0294028 0.112488 0.280636 
-8.71589e-18 1.76572e-18 1 

-0.420592 -0.0342722 0.155572 
0.0684225 -0.0771558 -0.156067 
1.39725e-17 1.66857e-17 1 

-0.0991859 0.041579 0.00898962 
0.0294777 -0.0909498 0.110524 
1.51212e-18 -2.5706e-18 1 

-0.115927 -0.0672065 0.215121 
-0.0494429 -0.091056 0.0666762 
1.54761e-17 1.56288e-17 1 

-0.379603 -0.384817 1.21635 
0.290668 0.232792 0.15523 
4.1361e-18 -1.52605e-18 1 

-0.369219 -0.224464 -0.0278676 
0.297771 0.176425 0.0788786 
1.18383e-18 -3.28327e-18 1 

-0.27501 -0.0429714 -1.63911 
0.0127342 0.00977683 -1.67498 
4.9889e-18 -3.06522e-17 1 

-0.126985 -0.0576172 0.629315 
-0.0339939 -0.00987086 0.178467 
4.94573e-18 -1.19817e-17 1 

-0.0873635 -0.0334753 0.0692631 
0.0210689 -0.103552 -0.0375225 
8.21057e-18 -1.15903e-17 1 

-0.176348 -0.00983972 -0.0343105 
0.00813339 -0.0669047 -0.0263206 
2.95371e-18 4.63248e-18 1 

-0.201583 0.0185322 -4.45881 
0.0235271 0.0100022 -1.84499 
4.49417e-19 3.05764e-18 1 

-0.122479 0.0394478 0.201202 
-0.12585 -0.0465392 0.558862 
4.642e-18 2.13188e-18 1 

-0.167181 -0.123775 0.310722 
0.232794 0.0119751 0.00141376 
-9.3766e-18 6.79803e-18 1 

-0.241179 -0.41011 -1.71343 
-0.116347 0.36201 2.95627 
-7.01208e-20 -1.40242e-18 1 

-2.5763 0.236053 -38.272 
-0.705515 0.484669 -14.587 
-8.37559e-19 -6.32096e-18 1 

-0.137765 0.00777856 -0.156183 
-0.333432 -0.010933 -0.0675878 
7.97932e-19 -1.25127e-17 1 

-0.193485 -0.0401089 0.884556 
-0.041823 -0.0281063 -0.879623 
-5.66101e-18 -1.15189e-17 1 

-0.211245 0.0675429 0.0236731 
-0.0486291 0.0647765 -0.0443544 
-2.66439e-18 -7.58772e-18 1 

-0.19449 -0.121473 0.0131921 
0.199497 -0.0657611 0.0577153 
2.11206e-17 3.12268e-17 1 

-0.26059 -0.153346 0.0610769 
0.0425818 0.0810326 -0.118381 
-3.8054e-18 4.38785e-18 1 

-0.122208 0.0778465 0.61881 
0.0886711 -0.0876553 -0.544638 
-2.67175e-19 3.95419e-18 1 

-1.34454 -0.269762 1.4918 
0.0229195 0.319008 -1.46126 
-1.49212e-19 -3.83688e-18 1 

-0.208056 0.0748454 0.316723 
-0.129322 -0.197025 0.15861 
-8.93307e-18 -8.13779e-19 1 

-0.192937 -0.0114875 0.199548 
0.0155538 -0.00210052 -0.00708757 
-8.02916e-18 -5.15966e-18 1 

0.0868077 -0.781389 -0.757613 
0.589031 0.299536 -1.01266 
-9.50156e-18 1.12056e-17 1 

-0.197944 -0.0167577 0.0526394 
-0.0604901 0.0994495 -0.0197585 
-2.11864e-18 1.67137e-18 1 

-0.0517809 -0.0159931 0.0959341 
-0.0182189 -0.0548938 0.0713179 
7.76634e-18 -7.79397e-18 1 

-0.153918 0.028792 0.311358 
-0.0638327 0.068415 0.680224 
-6.48349e-19 -3.14089e-18 1 

-0.132792 0.00661071 0.0310158 
0.0118372 -0.0305793 -0.47476 
-8.53342e-18 1.13596e-18 1 

-0.124361 -0.00813238 -0.263813 
-0.0293528 -0.134495 -0.125444 
-1.80193e-17 3.26437e-18 1 

-0.144243 -0.0829932 0.180669 
0.117107 0.019445 0.204599 
6.29529e-18 -7.46108e-18 1 

-0.150728 -0.0112987 3.48535 
0.0404387 0.00632304 3.19468 
-2.75674e-18 -1.02466e-18 1 

-0.139492 0.00366788 -0.189466 
-0.0812376 -0.0456435 0.0773337 
1.49727e-17 -3.98555e-18 1 

-0.0821768 -0.100629 0.191639 
-0.0405766 -0.0817464 0.374863 
-5.9674e-18 -1.02551e-17 1 

-0.312395 0.0221329 0.0834276 
-0.0972404 -0.117069 -0.036204 
1.78954e-17 5.37597e-18 1 

-0.105546 -0.00235244 0.475018 
0.00233511 -0.0550984 0.592747 
4.59737e-18 1.78486e-17 1 

-0.0838463 0.0477982 -0.00128965 
-0.0758191 -0.0889301 0.135124 
-3.09644e-19 -4.75647e-18 1 

-0.101248 0.0041779 -0.0572238 
-0.0181677 -0.0432689 -0.235756 
-9.46519e-18 -1.06242e-18 1 

-0.7567 -0.100749 0.108304 
-0.117681 -0.0153583 -0.528642 
1.99056e-17 7.12412e-18 1 

-0.0670327 -0.0129004 0.0538619 
0.0267287 -0.156791 -0.0140027 
-1.00173e-17 -4.64159e-18 1 

0.20159 -0.818065 -0.405194 
0.754541 0.372666 -0.147211 
1.13429e-17 3.75072e-17 1 

-0.0737059 0.300275 0.808875 
-0.511477 0.22064 -1.65947 
3.60394e-18 -6.44341e-18 1 

-0.0914577 -0.0844557 -0.293525 
0.0429904 -0.0154811 -0.095189 
3.86708e-18 9.77513e-18 1 

0.0207424 -0.527927 0.676666 
0.343768 0.0652743 0.117985 
-5.69047e-18 1.08636e-18 1 

-0.141219 -0.00654773 -0.12928 
0.0145019 -0.000675594 0.16331 
7.51038e-19 2.8754e-18 1 

-0.148795 0.0506535 0.107839 
-0.0170727 -0.0401622 -0.082192 
8.89814e-19 1.73918e-18 1 

-0.15151 0.00559742 -1.48931 
-0.0390053 -0.0435887 -3.29475 
7.6506e-19 3.62091e-18 1 

-0.165985 -0.080741 -3.83033 
0.00423288 0.064966 1.93004 
2.44175e-18 3.46985e-18 1 

-0.167812 -0.0142052 -0.0308497 
-0.0172291 -0.0174444 -0.013478 
-8.18063e-18 2.40607e-18 1 

-0.103884 -0.118064 -0.76363 
-0.00369639 -0.145736 -0.266229 
-2.7118e-19 -1.60856e-17 1 

-0.0624588 0.0246671 -0.019213 
-0.0270469 -0.110928 -0.128745 
-4.47329e-18 -5.17892e-20 1 

-0.102809 -0.0636181 -0.245869 
-0.0341361 -0.0488447 0.0374651 
4.4425e-18 -3.5821e-18 1 

-0.0693722 -2.27556 -4.78322 
-0.00263723 1.04222 0.68496 
4.62646e-22 1.49227e-18 1 

-0.0651352 -0.167932 0.0201048 
0.135558 -0.00343098 0.0376385 
-3.41522e-18 -4.32773e-18 1 

-0.121483 -0.0885111 -0.269301 
-0.0142631 -0.0540201 -0.125623 
-1.01123e-17 -9.98055e-18 1 

-0.423358 -0.0130898 1.05983 
0.097387 0.0578103 -0.20374 
-5.95196e-19 -1.33547e-17 1 

-0.226768 -0.0149444 0.143425 
-0.0251101 0.0662215 -0.423514 
5.0024e-18 6.49234e-18 1 

-0.188886 0.0374523 -0.0963828 
-0.0509958 0.0558006 0.287795 
-9.31e-18 7.78655e-18 1 

-0.546105 -0.354472 0.311019 
0.143799 0.0221131 0.765963 
1.49267e-17 -1.10675e-17 1 

-0.238255 -0.412111 -1.01832 
0.24987 0.272509 2.46535 
3.47117e-18 9.95474e-18 1 

-0.138186 -0.00342523 -0.218242 
-0.0518308 -0.067084 0.284769 
-1.92542e-19 6.81483e-18 1 

-0.188408 0.0699354 0.0398947 
-0.141992 -0.0849554 -0.230549 
1.52744e-18 -1.08427e-17 1 

-0.637449 -0.819368 -1.28248 
0.392272 0.428681 0.598833 
9.14034e-19 5.87593e-18 1 

-0.125429 0.0365458 -0.0830051 
-0.0622871 -0.035665 0.00416638 
-8.49334e-19 -1.84975e-18 1 

-0.259485 0.0351243 0.104711 
-0.0425925 0.0317434 0.5732 
-1.09961e-17 2.67793e-18 1 

-0.206618 -0.0243196 0.107998 
-0.0227013 0.0918351 -0.607564 
9.82735e-18 -5.88464e-18 1 

-0.110963 0.0106102 -0.489727 
-0.0234447 -0.0404409 -0.22008 
-8.62592e-18 1.21095e-18 1 

-0.121844 0.0189984 0.319952 
-0.00869596 -0.0642292 0.0277091 
-5.51645e-19 -1.14673e-17 1 

-0.236504 -0.672963 -2.23633 
0.204261 0.0854988 -0.58118 
-4.62707e-18 -5.21542e-18 1 

-0.123148 0.0797179 -0.639116 
-0.0490607 -0.030777 0.147872 
1.06593e-17 -2.95234e-18 1 

-0.858921 -1.31862 3.41015 
0.148427 0.681607 -0.732785 
-6.8889e-18 -1.11066e-17 1 

-0.347106 -0.327916 0.0894792 
0.254454 0.0501954 0.300067 
2.72165e-18 6.58927e-18 1 

-0.626997 -0.0608698 0.0786603 
0.51103 0.110331 0.567707 
4.59663e-18 6.97802e-18 1 

-0.0821856 -0.159288 -0.00497273 
0.124768 0.00717118 0.119164 
9.03766e-18 7.35672e-18 1 

-0.0856954 -0.00842469 -0.111749 
0.00881113 -0.0229345 0.0910463 
-6.82491e-18 8.73778e-19 1 

-0.489956 -0.321897 -1.02967 
0.0541414 0.142568 -0.37555 
-7.13705e-18 -8.80743e-18 1 

-0.272832 -0.547168 -0.173398 
0.235425 0.203923 -0.082948 
-7.23102e-19 -3.15353e-18 1 

-1.07479 -0.726804 -0.421862 
0.22366 0.49332 0.2831 
4.7938e-18 -5.12604e-18 1 

-1.80714 -0.253907 -4.97656 
-0.134144 0.5479 -0.607122 
1.44695e-19 2.66239e-17 1 

-0.135332 0.0274777 0.00507282 
0.000902423 -0.0773079 -0.292457 
-2.2375e-18 7.90243e-19 1 

-0.317267 0.235186 -0.291857 
0.0705767 0.118913 -0.0733953 
-1.93933e-18 -1.15067e-17 1 

-0.1371 -0.0159295 0.602819 
0.00523182 -0.0545906 2.08504 
-1.14172e-18 -2.02763e-19 1 

-0.101391 -0.0647754 0.161814 
-0.00654237 -0.0433482 -0.127005 
-1.17004e-18 8.82975e-19 1 

-0.240131 0.115743 -0.242469 
0.0517308 0.0248215 0.0576277 
4.47018e-18 -2.72098e-18 1 

-0.265731 -0.457749 1.88159 
0.357893 0.242914 -1.7081 
2.72136e-18 -7.66257e-18 1 

-0.144787 0.00452088 0.0965174 
-0.0219906 -0.00958655 -0.0648602 
4.71926e-19 1.22701e-18 1 

-0.120368 0.0472259 0.302995 
0.00891838 0.00930341 0.07608 
1.73114e-18 -7.68385e-18 1 

-0.172927 0.0579886 -0.253945 
0.00197862 0.0245933 -0.00391226 
9.89292e-19 -9.25694e-18 1 

-0.163473 0.00782587 -0.290806 
-0.0074166 -0.0348135 -0.933415 
-7.76165e-18 -8.33591e-19 1 

-0.488492 -0.71548 0.207977 
0.480659 0.316677 0.315369 
3.73708e-18 4.13508e-19 1 

-0.00388809 -0.678788 0.164386 
0.554588 0.14461 0.0196073 
2.86841e-18 9.27112e-18 1 

-0.0945321 -0.0114551 -0.0154635 
-0.0293699 -0.0639623 0.229841 
-1.9614e-17 1.0959e-17 1 

-0.105294 -0.0233517 -0.805868 
0.0155283 -0.0259212 -0.0349119 
-5.09924e-18 6.25976e-18 1 

-0.224954 -4.69234e-05 -0.782336 
-0.0505412 0.0193623 -0.32307 
1.48941e-17 -7.67698e-18 1 

-0.13809 -0.00990369 -0.325701 
-0.00723433 -0.0121921 0.297106 
-7.36523e-18 -1.68009e-17 1 

-0.16585 0.0495346 0.382467 
0.0752482 -0.0334394 0.183918 
-1.4593e-17 -4.72732e-18 1 

-0.152892 0.00901071 0.350112 
-0.0480218 -0.0721527 0.733913 
0 -6.49616e-18 1 

-0.15669 0.00554301 0.0745069 
-0.0368145 -0.0453433 -0.0557774 
-9.53108e-18 7.51206e-18 1 

-1.06558 -0.751973 -0.0703453 
0.381527 0.599941 -0.248768 
-7.32173e-18 1.73781e-17 1 

-0.127607 0.0214805 0.390721 
-0.0275902 0.0094902 0.564361 
-2.49969e-18 -1.98693e-18 1 

-0.146376 0.0633802 0.105863 
0.0697655 -0.109762 -0.0728697 
-3.87412e-19 2.67841e-18 1 

-0.180444 0.0270945 0.00808782 
0.0325378 -0.0703435 -0.500069 
-5.0501e-19 -3.5703e-18 1 

-0.142998 0.0156589 0.798111 
-0.00944875 -0.0236384 0.844892 
-3.4616e-18 2.58294e-18 1 

-0.131453 0.025717 -4.3657 
0.00311634 -0.0306808 -2.4741 
-2.93229e-18 -5.93076e-18 1 

-0.0871375 0.096349 -0.059816 
-0.0844887 -0.0925595 -0.0995977 
-5.56929e-18 -1.34351e-17 1 

-0.506234 0.185021 -0.245818 
-0.129392 0.282081 -1.57603 
-1.48825e-18 -1.33942e-17 1 

-0.194215 0.13616 0.124717 
-0.0925506 0.0385554 -0.0423348 
3.08262e-18 7.68128e-18 1 

-0.118152 -0.00836114 -1.23115 
0.0119193 0.00646295 0.262944 
-3.09338e-18 6.4359e-19 1 

-0.111598 0.0590173 0.135756 
-0.0693985 -0.00648359 0.134636 
2.04992e-17 1.04658e-17 1 

-0.142307 0.0655304 -0.101456 
0.0033791 -0.0442022 -0.0570487 
-6.38398e-20 -5.10719e-18 1 

-0.205449 0.0281341 0.0808061 
-0.043073 -0.0314306 -0.0555165 
-4.23367e-20 3.6833e-18 1 

-0.230745 -0.155985 0.394535 
0.167961 0.129915 0.71885 
-1.21898e-18 -1.18067e-17 1 

-0.388625 -0.107582 -0.300863 
0.134324 -0.0704698 -0.443135 
6.63114e-18 -1.21896e-17 1 

-0.455677 -0.232506 0.752439 
-0.0766962 0.123339 -0.0590986 
-5.13752e-18 1.53342e-17 1 

-0.0849382 -0.00452646 -0.0400784 
-0.0196708 -0.00418978 -0.0616046 
-3.37701e-18 -2.25604e-18 1 

-0.23743 -0.465822 0.225112 
0.347369 0.143924 -0.0790943 
1.20357e-18 1.44428e-17 1 

-0.137456 -0.00289539 1.30568 
-0.0506472 -0.0563116 -0.21362 
-3.20469e-18 -3.30919e-18 1 

-0.112105 -0.0283522 -0.0713369 
-0.040084 -0.120659 -0.0264046 
-2.22825e-18 4.28371e-18 1 

-0.174202 -0.012623 0.122179 
-0.0410932 -0.0125557 -0.0309377 
-7.44759e-18 -7.77331e-18 1 

-0.209019 0.0286851 0.267267 
0.0394821 0.0730518 -0.104457 
-5.56261e-18 -8.04707e-19 1 

-0.0809926 -0.0658378 0.242157 
0.0288508 -0.0110573 -0.0868725 
1.42967e-18 -1.7321e-18 1 

-0.127652 0.0496016 -0.267487 
0.0251772 -0.0267301 -0.372304 
-6.7614e-18 1.36187e-17 1 

-1.29961 0.374533 -1.94185 
0.127694 0.562547 1.36738 
3.53635e-18 1.48899e-18 1 

-0.440447 -0.0406129 -0.5196 
0.514936 0.085196 1.08213 
-1.14935e-17 8.86415e-18 1 

-0.164991 -0.035692 -0.343017 
-0.00594192 -0.0148475 -0.539293 
4.84354e-18 -6.41057e-18 1 

-0.131417 -0.797471 0.191679 
0.595881 0.238044 0.0925497 
-4.32626e-18 4.81011e-18 1 

-0.143753 0.0271553 -0.339567 
-0.0382024 0.00734834 -0.242502 
1.38418e-19 -1.52721e-17 1 

-0.122185 0.0302952 -0.193951 
0.0104318 -0.00943147 0.00536984 
3.21583e-18 5.045e-18 1 

-0.778207 -0.247208 0.812239 
-0.475548 0.29024 -0.0617955 
-6.38015e-18 1.14028e-17 1 

-0.118609 -0.00495519 0.0341451 
-0.016737 -0.0518003 0.0609697 
1.87308e-18 -1.91489e-18 1 

-0.172911 -0.127448 0.080598 
0.182888 -0.017013 0.151918 
-8.92937e-18 9.29137e-18 1 

-0.0788931 -0.0604195 0.0136136 
0.0460309 -0.0763575 -0.0389425 
-2.53343e-18 1.57073e-18 1 

-0.208073 -0.00627014 0.162918 
-0.0301405 -0.0348906 1.27586 
2.81099e-17 1.67967e-17 1 

-0.0919302 -0.0535086 0.102852 
0.0706184 -0.0194909 0.0491854 
1.00515e-17 -8.80025e-19 1 

-0.114916 -0.0345353 0.103015 
-0.0126573 -0.0319068 -0.139031 
-8.40065e-18 6.94323e-19 1 

-0.0714903 -0.0569551 -1.26338 
0.0413909 -0.0236745 -0.612056 
-7.39111e-18 8.1122e-18 1 

-0.0974957 0.031062 -0.136487 
-0.0243853 -0.0165035 0.00365805 
4.83916e-18 -2.93438e-18 1 

0.0687377 -0.885111 -1.3039 
0.432158 0.268944 0.654238 
-1.2754e-17 3.19265e-18 1 

-1.07914 -0.0864749 0.40094 
-0.386581 0.325912 -0.339274 
-1.05333e-17 1.167e-17 1 

-0.12629 -0.00993818 0.0958679 
-0.0544567 -0.110795 0.177709 
4.50695e-18 -6.11123e-18 1 

-0.128609 0.0501006 -0.253125 
-0.0622398 -0.0396662 -0.370435 
-2.84388e-18 6.67577e-18 1 

-0.143875 0.0216999 0.264299 
-0.0753623 -0.0103209 0.0596552 
-7.88332e-18 -1.79811e-17 1 

-0.12994 -0.0443292 -0.151427 
-0.0111149 -0.00107574 -0.002966 
-2.6263e-18 1.91621e-18 1 

-0.203741 0.0399745 0.0767444 
0.0115324 -0.0261834 0.209877 
-9.35091e-18 -1.18084e-17 1 

-0.147975 -0.0692474 0.853297 
0.0270936 -0.038619 0.328457 
6.53551e-18 5.05131e-18 1 

-0.120477 -0.0107661 0.334869 
-0.0115137 -0.013646 0.183065 
2.00153e-18 -5.98184e-18 1 

-0.107324 -0.0278184 0.159595 
0.023352 -0.0450214 0.10605 
-6.9577e-18 -1.41348e-17 1 

-1.83295 0.367001 -2.07667 
-0.562809 0.722182 -1.4976 
-1.02803e-17 -2.41213e-18 1 

-0.295385 -0.00991556 -0.282472 
0.0558728 0.098157 0.0476573 
5.98914e-18 1.20128e-17 1 

-0.144898 -0.0314215 0.200235 
-0.00234981 -0.00193605 -0.212271 
5.5501e-18 1.02447e-17 1 

-1.88347 -1.64871 -1.35072 
0.263743 0.695121 1.88114 
-1.22852e-18 -1.02311e-17 1 

-1.4218 0.254913 2.18187 
-0.174068 0.292606 -1.1499 
1.53427e-17 -7.99734e-18 1 

-0.158062 -0.168652 2.31039 
0.0789786 0.078999 -2.88317 
-1.08861e-17 2.20904e-18 1 

-0.386996 -0.105591 1.07655 
0.12796 0.0655128 0.686385 
-1.38306e-17 -2.58516e-19 1 

-0.129795 -0.0966773 0.557799 
0.0742803 -0.0174197 0.11552 
2.79716e-18 1.44647e-17 1 

-0.401036 -0.540724 1.92926 
-0.0336655 0.632793 -5.63037 
-5.28799e-18 4.26451e-18 1 

-0.270128 -0.0350197 0.246194 
-0.0235058 -0.0237188 0.417632 
2.58508e-18 -6.2042e-18 1 

-1.56096 0.0637041 -0.990492 
0.583112 0.389758 -0.0579221 
1.11516e-18 -9.19645e-19 1 

-0.140545 -0.0181206 -0.077075 
0.051216 -0.0318777 0.0712357 
-2.50939e-18 7.05938e-18 1 

-0.0937804 0.0199689 -0.106483 
-0.00290537 -0.0217948 0.0705965 
3.78443e-19 -4.82758e-18 1 

-0.0792933 -0.0410508 0.216067 
0.00965016 -0.0834189 0.361197 
-1.56145e-18 1.93419e-17 1 

-0.17961 -0.0336495 -0.045678 
0.00843085 -0.000144741 -0.319784 
1.3095e-17 -9.18753e-18 1 

-0.105265 0.00785888 -0.00850831 
-0.012419 -0.0426622 -0.0418643 
1.63975e-18 -4.43477e-18 1 

-0.0836799 0.0112445 -0.182678 
0.0200051 -0.0193446 -0.115929 
-5.01066e-18 1.83358e-18 1 

-0.164226 -0.00952504 0.793787 
-0.0172617 0.0146314 0.0147318 
1.15693e-17 -1.84072e-17 1 

-0.185176 -0.0150386 -0.155204 
-0.0530106 0.0182396 0.439703 
-2.04857e-19 -1.42454e-17 1 

-0.364654 -0.185342 -0.753464 
0.518318 0.230983 -0.170216 
8.03479e-18 9.38517e-18 1 

-0.145881 -0.0711964 0.0306804 
0.014709 -0.0745154 0.430833 
1.48659e-17 2.53036e-18 1 

0.118584 -0.676444 0.0279948 
0.678449 0.278432 1.00579 
-1.27586e-17 -1.3626e-17 1 

-0.126207 -0.0277226 -0.00339667 
-0.0173564 -0.0652849 -0.138092 
-1.03904e-18 5.68737e-18 1 

-0.22341 -0.0755684 -0.256206 
0.0112202 0.0686586 1.19841 
5.07509e-18 7.61264e-19 1 

-0.165591 0.0692443 -0.0142841 
-0.0306959 -0.0909514 -0.0350975 
3.85312e-18 -7.51827e-18 1 

-0.117961 -0.0113846 -0.021212 
-0.0376334 -0.0066876 0.0900389 
4.6412e-18 4.96911e-18 1 

-0.319663 -0.0278286 0.593826 
-0.132883 -0.050778 0.143089 
3.59158e-18 1.30654e-17 1 

-0.0951404 -0.0126165 0.0175559 
-0.0303403 -0.0472692 0.0163781 
3.5598e-18 -6.995e-18 1 

-0.117655 0.0276723 0.570348 
0.0271348 -0.0620432 0.133399 
-2.00103e-19 -2.19112e-18 1 

-0.228753 -0.0334424 0.0209087 
0.102706 0.0565174 -0.176787 
-7.08355e-18 1.04832e-17 1 

-0.160507 -0.0100914 -0.0743835 
-0.0573939 -0.0462744 0.24737 
-2.20791e-17 -5.2492e-18 1 

-0.17479 -0.0102781 0.313513 
-0.0473495 0.00203039 -0.179011 
6.25391e-19 -6.94879e-18 1 

-0.20687 -0.880952 2.00265 
0.499965 0.942325 1.34956 
-2.76611e-19 1.46301e-18 1 

-0.147065 -0.00450668 -0.180431 
-0.0134301 -0.0374663 0.32149 
2.7512e-19 -3.12458e-18 1 

-0.70655 -0.179825 -0.385074 
-0.264303 0.10231 0.20036 
1.06652e-17 7.70733e-18 1 

0.42607 -0.944612 -0.116311 
0.984399 0.539275 -0.0521512 
8.16722e-19 1.68109e-17 1 

-0.173229 -0.0666621 -0.213022 
0.114726 -0.0169448 0.199892 
-7.60295e-18 -6.51681e-18 1 

-0.311698 -0.0733285 -0.583036 
0.040997 -0.0237019 -0.0409368 
1.81887e-17 8.76955e-18 1 

-0.471491 -0.367895 0.804836 
0.0285574 0.0751201 0.342058 
1.41294e-17 -1.30273e-17 1 

-1.70476 -0.616783 0.250347 
0.206387 0.432758 -0.809939 
1.17258e-17 -8.95211e-18 1 

-0.372697 0.0697599 0.531686 
-0.0106469 0.252941 -0.278641 
9.02226e-19 -4.13157e-18 1 

-0.14999 0.16236 0.0866897 
-0.141481 0.0183048 0.167343 
8.15448e-18 -4.01981e-18 1 

-0.217491 -0.0678316 -0.0203306 
0.103633 0.0621812 -0.0601547 
-1.25184e-18 -9.39845e-18 1 

-0.162978 0.01916 0.0134786 
-0.0749174 -0.0417782 0.169695 
5.78508e-18 3.48176e-18 1 

-0.252886 -0.229625 -0.29853 
0.26901 0.190319 -0.207852 
-1.60477e-18 1.85819e-17 1 

-0.0794831 -0.121364 -0.227374 
0.0861737 -0.0543192 -0.0852035 
1.4574e-19 -1.70031e-18 1 

-0.106359 0.07428 -0.00457273 
0.00232336 -0.0260994 -0.171062 
-2.29736e-18 4.13526e-18 1 

-0.543269 -0.220944 -0.330755 
-0.132965 0.00442273 -0.175338 
-1.34319e-17 -1.60485e-18 1 

-0.18658 -0.709041 -0.404472 
0.0172057 0.325323 -0.899759 
1.07177e-19 3.10812e-18 1 

-0.190274 0.0105432 0.0513865 
-0.000334651 -0.0384121 -0.100859 
4.44543e-18 -4.08499e-18 1 

-0.1715 -0.0433025 -0.297134 
0.0168677 -0.042439 0.0470644 
7.30163e-18 1.11126e-17 1 

-0.0940369 -0.0205797 0.0374473 
-0.00640671 -0.0280494 0.644477 
1.23031e-17 -5.5217e-18 1 

-0.115004 0.0177192 -0.479394 
0.00614808 0.0139909 -0.0225045 
3.71996e-18 3.32082e-18 1 

-0.20391 -0.501704 2.36338 
0.439094 0.124902 1.12664 
4.10699e-18 9.19013e-18 1 

-0.149553 -0.181544 0.226777 
0.026337 0.00584936 -0.112259 
-1.28337e-17 2.66137e-17 1 

-0.120739 0.0438453 -0.0497167 
-0.0182845 -0.0166121 0.232375 
8.46904e-18 -9.3259e-18 1 

-0.161725 0.0178536 -0.141115 
-0.0151256 -0.0282105 -1.36763 
-1.44268e-17 1.57383e-18 1 

-0.0971893 0.0932873 -0.00627544 
-0.0187255 -0.0612567 0.144178 
5.4445e-18 1.31722e-17 1 

-0.120134 0.000396498 -1.06084 
-0.0200097 -0.0230985 -3.4317 
-4.56141e-18 2.98857e-18 1 

-0.207796 0.0540648 0.460004 
0.00729772 0.0275846 0.0454042 
2.24797e-19 -5.18588e-21 1 

-0.302054 0.0380208 -0.299474 
0.0218477 0.136055 -0.141391 
1.38406e-18 3.44619e-18 1 

-0.145966 0.0370112 0.0746054 
0.00374933 -0.10385 -0.260688 
1.21292e-20 -4.20294e-17 1 

-0.223657 -0.199246 0.595814 
0.340088 0.170161 0.257334 
-9.43464e-18 5.27812e-19 1 

-0.203784 -0.0741772 3.69452 
-0.00755063 0.114125 -6.01738 
3.14686e-18 5.40304e-18 1 

-0.203138 -0.0082756 -0.900509 
0.0150856 0.0277083 0.433482 
-1.13242e-17 5.52321e-18 1 

-0.177449 0.791661 71.6306 