# vtk DataFile Version 3.0
Output file generated by Yade's KinematicLocalisationAnalyser
ASCII
DATASET UNSTRUCTURED_GRID

POINTS 13483 float
552.362 40.6511 -0.491678
644.555 75.334 0.4847
114.406 6.02067 -0.578857
674.436 10.9467 -0.366054
468.916 9.26148 0.367728
302.758 36.2857 -0.481766
149.541 7.29408 0.465394
532.208 10.5014 -0.123041
470.264 28.314 -0.154866
619.091 11.8649 0.595924
201.521 8.73114 0.140144
246.912 6.34268 -0.246292
583.861 64.1624 -0.139685
570.909 39.5075 -0.10082
131.327 17.9874 0.527252
211.516 34.8979 0.411056
208.8 13.0223 -0.300038
278.32 9.94172 0.412231
328.982 34.2588 -0.468005
490.459 8.33074 0.429033
393.529 37.9281 -0.0962286
525.78 60.3952 0.294648
669.768 45.4228 -0.546663
627.975 81.0325 -0.1551
439.137 16.9872 -0.399736
230.995 44.8164 0.137936
464.823 33.4583 -0.521564
544.345 22.2737 0.247673
42.4637 16.5355 -0.32059
613.156 32.1526 0.477961
456.006 6.18846 0.363841
15.2014 24.1024 0.407807
655.759 78.8263 0.269039
465.351 2.42759 0.717419
74.6302 45.3339 -0.111204
488.894 33.5552 0.410285
495.712 16.6435 0.512421
331.108 22.9179 -0.239692
499.478 26.0614 0.389372
336.499 35.8314 0.459921
231.45 14.7747 0.282744
414.98 36.7448 0.09778
579.378 7.46087 0.15021
184.345 6.2677 0.411212
52.4339 7.16435 -0.115421
65.2789 9.14699 -0.299338
591.62 10.082 -0.6642
22.4606 12.5561 -0.34541
541.517 69.8646 -0.184652
609.789 60.2548 0.334901
164.544 33.0999 0.302814
644.274 58.3347 -0.139663
32.6357 29.5663 0.135956
500.782 4.4783 0.589523
135.798 7.34915 -0.534148
545.124 42.193 0.442161
475.343 33.293 -0.155611
167.479 0.933589 -0.280174
30.486 2.26832 -0.38482
335.838 18.1332 0.283442
550.501 79.9358 -0.133386
438.399 41.1368 -0.177737
383.465 1.02997 0.205505
601.919 9.04596 -0.564294
25.2695 45.1062 0.250824
246.388 31.1337 0.288945
618.935 7.51829 0.381583
598.918 85.5407 0.376405
401.487 8.88105 -0.59263
532.356 3.67625 -0.610188
633.017 43.1897 -0.491281
124.851 7.86336 0.276682
470.392 31.7536 -0.174227
453.454 19.0807 -0.213181
284.447 17.0283 -0.350072
19.6024 14.2922 0.296914
665.766 73.6165 0.316139
321.18 40.4031 -0.303537
608.072 51.2033 -0.362676
591.531 13.681 0.359831
666.863 14.8768 -0.250921
441.718 42.0858 0.184633
88.8113 39.989 0.302427
615.069 73.7794 -0.262938
577.406 71.1397 0.107948
676.614 56.1288 -0.217936
661.723 2.65314 -0.695351
281.074 28.9669 0.449254
571.686 22.9509 -0.116553
23.51 6.35158 -0.653557
128.149 39.3286 -0.174451
482.094 15.6074 0.287829
663.177 59.827 -0.521156
187.7 29.4802 0.244418
41.9422 35.6283 0.304686
464.374 1.09004 0.161465
227.041 8.70043 -0.45065
628.957 56.1929 -0.348913
651.417 53.5194 0.314678
347.94 22.3344 -0.281253
156.891 27.2631 -0.434839
511.502 46.1772 -0.399124
366.128 16.4954 -0.462211
397.63 30.763 0.10406
364.527 5.89816 0.413816
514.062 11.0951 -0.227334
676.693 17.5535 -0.25565
76.8852 40.2404 -0.425716
323.676 5.07608 -0.201769
525.394 9.7251 0.372999
347.417 45.9902 0.536075
23.8974 26.0776 -0.515974
29.0974 6.04697 -0.308361
526.131 40.1966 0.413185
476.624 28.3102 -0.209348
23.9464 38.4958 0.42903
89.3652 31.2354 0.212315
314.98 16.9878 -0.287361
553.917 23.9182 0.159108
451.223 45.8993 0.360391
634.209 10.0752 -0.443137
627.456 6.46841 -0.247791
373.744 38.3664 -0.0987156
570.217 54.0837 0.127999
230.059 16.6387 0.546082
319.592 4.20147 0.445954
99.0977 32.2484 0.390583
111.817 25.3855 -0.295145
508.014 45.5939 -0.0846251
297.241 19.3281 0.480077
608.796 38.0669 -0.122695
603.528 85.4815 0.103437
457.248 26.3009 0.35829
663.171 42.8128 0.333728
413.452 24.2171 -0.325474
267.874 24.5734 0.301098
609.133 69.0744 -0.30246
270.168 28.6516 -0.447962
541.158 12.7852 -0.263543
322.279 37.1431 0.211135
476.377 13.1662 0.571159
354.807 32.9046 -0.107126
415.261 17.5508 0.119391
308.587 43.5386 0.437211
184.034 30.4572 0.143918
647.978 71.7682 -0.14972
674.3 18.9035 -0.476498
5.88537 12.3961 -0.517474
419.161 23.6065 -0.42717
36.3203 23.9943 -0.112516
364.764 32.3773 -0.465838
382.539 25.791 0.322027
72.2399 12.2264 0.504958
49.5406 34.131 0.428421
218.883 13.6691 0.42366
551.549 60.8746 0.392631
540.622 23.2239 -0.673942
72.2956 21.329 0.47672
631.049 82.6088 -0.430328
646.623 2.81465 0.633036
593.643 78.6718 -0.471655
598.324 2.41329 -0.542784
517.578 29.2308 -0.488174
526.843 61.5656 -0.470172
484.674 19.3252 -0.542702
673.556 6.16096 0.316054
216.476 25.0768 0.169594
123.769 36.1937 0.200698
239.993 6.74317 0.441841
90.9534 4.50217 0.284747
61.6781 10.4416 0.222811
268.184 36.2496 0.369211
15.635 25.8688 0.439367
522.608 20.8397 -0.434012
544.869 65.3087 0.188807
443.979 25.5948 -0.377345
674.761 82.4113 0.359817
394.699 8.69019 -0.108459
420.785 38.3286 -0.469791
507.458 3.29944 -0.211937
21.1548 25.1321 -0.42484
543.354 4.29804 0.517745
515.014 3.90022 -0.325035
199.953 11.1751 0.48884
412.058 17.2741 -0.252136
304.025 6.47039 0.358328
377.033 19.7844 -0.291543
620.489 48.4184 0.145592
186.494 26.2865 -0.473059
653.484 12.8649 -0.45953
622.954 45.4267 0.397631
372.357 10.6158 0.193921
617.912 2.22736 0.562162
556.268 32.353 0.595515
635.835 22.1399 -0.535501
415.557 46.0932 0.290947
471.945 14.8974 0.525379
444.796 53.2768 0.252353
431.744 9.97994 -0.218181
597.49 78.9127 0.263115
595.697 74.6021 0.299155
186.895 39.5943 -0.330805
665.005 14.3171 -0.24133
527.508 63.1269 0.242277
10.7754 17.0567 0.299342
395.313 26.0986 0.540489
181.554 23.7341 0.407345
90.4255 40.9036 -0.228639
662.318 56.5243 -0.472315
589.318 82.119 0.218385
311.525 26.8123 -0.393439
505.037 10.6355 0.36107
79.6593 45.7547 -0.19241
241.099 26.2937 -0.502338
525.546 27.1842 0.413293
466.229 23.8813 0.583498
256.255 0.880353 -0.345442
515.172 52.461 -0.357889
505.274 45.0781 -0.613092
460.519 40.3903 0.37618
473.43 2.45376 -0.645407
603.524 20.8637 0.439332
174.244 12.5838 -0.21506
479.583 42.6405 0.449249
525.686 49.014 -0.140574
70.5623 0.987734 0.311287
245.248 4.83903 0.179469
672.879 23.5575 -0.303881
666.518 16.7924 -0.524364
677.158 25.4706 -0.708761
296.677 8.66596 -0.230828
638.539 31.5556 0.663189
395.126 42.8258 0.358732
434.429 0.761676 -0.503311
582.946 71.4475 0.431374
25.2736 32.2001 0.319258
323.081 43.1816 0.582268
246.082 2.97764 0.398313
660.504 77.678 -0.0736848
632.562 90.7588 0.221452
280.766 11.3652 0.26143
603.344 68.6855 0.0803594
527.534 2.56507 0.331008
513.479 7.37593 0.471139
93.8656 18.7938 -0.467877
296.504 1.07736 -0.231942
334.617 2.2438 -0.37604
13.7424 7.65847 -0.450733
4.05703 31.1712 -0.252001
156.882 19.2497 0.404417
66.2136 42.3213 0.230685
64.4354 29.508 0.383256
411.019 14.7295 -0.464391
357.649 36.4227 0.454784
641.447 59.5351 0.144326
19.4467 4.22653 0.273922
68.2928 7.20338 0.142559
558.176 65.5847 -0.130341
287.954 0.94697 0.38387
355.532 17 -0.152337
229.499 4.68573 -0.381424
594.298 57.0925 -0.287629
437.295 7.48575 0.513435
641.086 32.4557 0.358567
567.922 57.0864 -0.299352
609.844 50.1545 -0.0857926
408.49 27.1024 0.628992
99.2252 46.5905 0.310755
508.627 52.0994 0.0888233
638.442 16.6465 0.220754
231.692 31.1951 -0.276479
30.3865 18.5836 -0.206203
328.254 14.0522 0.506024
104.369 41.7488 -0.407907
261.521 42.7949 -0.220487
414.928 2.20438 -0.259931
666.341 66.8165 0.44538
593.611 0.705301 0.680866
324.2 3.5503 0.591707
293.657 27.2562 -0.202542
444.926 49.3156 0.227544
78.9708 8.6204 0.516103
192.309 46.1907 0.389062
652.889 56.7003 0.351802
475.004 45.6739 -0.0916898
194.635 41.6622 -0.284166
155.485 44.5018 0.45852
679.698 50.6023 -0.456388
675.984 19.17 -0.680232
565.468 12.1583 -0.640348
185.152 25.1995 0.112778
518.817 30.7143 0.158865
520.771 31.0712 -0.282876
399.294 5.87901 -0.144494
460.841 2.22705 -0.326043
639.251 62.7835 -0.519186
82.904 31.9719 -0.260778
600.512 53.9168 -0.495885
268.196 15.6926 -0.380727
9.37393 2.33133 0.350941
122.405 38.068 0.19297
64.9512 23.7012 0.561861
603.195 40.3863 0.328677
659.894 86.4089 0.189414
180.261 29.087 -0.203232
670.894 20.3643 0.465317
43.3506 37.6512 -0.297018
88.1983 29.6097 -0.15091
579.817 41.319 0.486874
402.527 19.1954 -0.588427
493.831 17.1301 0.127947
232.175 29.1645 -0.187075
575.474 15.1494 -0.56711
677.094 19.5096 0.419175
27.8533 33.2497 0.308927
264.175 7.76549 0.203559
216.56 15.2898 0.263086
1.37306 36.5689 0.144593
219.848 14.726 -0.381701
206.3 11.068 0.128829
208.595 26.4882 -0.278671
129.832 28.741 -0.156726
518.462 16.5768 -0.391193
162.6 14.4466 -0.365064
654.897 75.4523 0.244799
169.474 3.79141 0.519228
45.4207 38.7058 -0.456754
626.309 65.2693 -0.529579
275.09 31.547 -0.390676
612.546 56.5831 -0.442573
672.305 69.5615 0.451494
294.741 9.30437 -0.096824
628.394 33.9667 -0.386002
321.422 2.37873 -0.513794
404.949 24.696 -0.391985
583.897 19.842 0.674108
102.846 12.621 -0.544698
462.881 4.32527 -0.698473
644.394 32.7963 -0.189425
85.5449 7.86322 -0.278421
275.83 14.9883 0.202144
412.201 12.1986 -0.212848
673.226 2.40141 0.608844
388.301 1.98766 -0.54939
171.917 39.8938 -0.314599
641.277 14.7186 -0.472899
125.61 37.2754 0.181028
257.249 31.6679 -0.405339
390.517 21.9202 0.248203
543.031 15.2239 0.43145
377.686 10.239 -0.563757
440.695 35.3163 0.461394
643.343 74.2463 0.399429
45.509 12.1187 -0.210877
292.808 39.5918 -0.254847
370.861 28.6892 -0.459698
399.322 21.0771 0.342339
499.78 53.7351 -0.356151
637.49 57.5364 -0.23191
601.466 74.9975 0.361391
219.912 34.6392 -0.378538
12.4886 33.0894 0.193425
593.713 75.0572 -0.118224
489.625 49.6841 0.5003
223.613 39.7882 0.114642
618.973 66.4657 0.109598
146.979 9.65549 0.267625
358.002 22.3309 0.374372
445.63 51.2621 0.106701
403.248 20.4868 0.288582
643.764 80.4378 -0.295018
415.649 4.34916 0.642065
47.8423 25.979 0.161347
452.287 38.3818 0.344627
420.917 45.2417 -0.430082
660.029 70.0582 -0.231717
627.212 32.4222 -0.367745
513.668 21.1619 -0.20112
653.059 66.9258 0.326621
287.552 2.26604 -0.463757
369.968 31.249 0.610574
27.1402 40.3459 -0.318237
628.254 38.7608 -0.149874
560.75 35.7951 0.665331
446.96 0.799138 -0.437631
122.114 4.74845 -0.351993
413.989 41.1894 0.139914
11.8037 0.894538 -0.318213
672.097 7.81789 0.162697
361.326 41.1266 -0.52628
568.782 21.7576 0.535773
[...]
POINT_DATA 13483
TENSORS Strain_matrix float
-2.17307 -3.41121 -2.00025 
0.843687 1.27066 -0.0448368 
1.21203e-17 3.87317e-18 1 

0.212433 2.78977 -2.95098 
0.189383 0.66564 1.83675 
4.62881e-18 -2.37375e-18 1 

-0.188934 -0.00284503 -2.45143 
0.0236552 0.0206091 0.165987 
-1.75506e-18 2.94362e-18 1 

-1.24557 -0.596101 -3.65069 
0.372811 0.46837 1.94128 
9.58587e-18 -1.01507e-17 1 

-0.568414 -0.16993 -1.54343 
-0.213817 0.276861 0.289469 
2.3576e-18 -3.75941e-18 1 

-0.135356 -0.0462461 -1.53412 
0.0317618 -0.00601599 0.589841 
-5.3083e-19 -2.13628e-18 1 

-0.190966 -0.0803803 -0.798717 
0.0660732 -0.027671 -0.64642 
-5.04741e-18 4.09585e-18 1 

-0.294552 0.0612799 -0.540361 
0.193376 0.0101463 0.57089 
8.44819e-18 -1.23643e-17 1 

-0.592429 0.223305 -0.519725 
0.204797 0.216261 0.236328 
-2.24325e-18 6.55506e-18 1 

-0.49888 -0.220789 -0.271622 
0.10541 0.0222248 0.149341 
-1.05927e-17 -1.9969e-17 1 

-0.114994 0.012046 0.041215 
0.0366665 -0.0792837 0.0949686 
-6.25848e-18 1.71166e-17 1 

-0.131234 -0.0976579 0.205811 
-0.0479992 -0.0956076 0.156469 
-4.70043e-18 -6.40968e-18 1 

-0.185896 -0.592251 0.518466 
0.343889 0.253919 0.428901 
-3.40094e-18 -4.49962e-18 1 

-0.321168 -0.540263 -0.288412 
0.581164 0.407644 0.229566 
6.28901e-18 2.23992e-18 1 

-0.297795 -0.0367342 -1.71712 
0.0248345 0.0115707 -1.6716 
-1.43893e-18 -4.37936e-18 1 

-0.158849 -0.0157722 0.823488 
-0.0687847 0.00636366 0.320844 
-1.23029e-17 3.43935e-17 1 

-0.0946582 -0.0355057 0.0709101 
0.0200899 -0.110521 -0.0406087 
-3.93953e-18 4.54561e-19 1 

-0.207376 -0.0242779 0.00834642 
0.0542804 -0.0669846 -0.0210053 
-1.42045e-18 4.03223e-18 1 

-0.250216 0.01281 -1.05665 
0.0510298 0.0762338 1.32864 
-7.20782e-19 -3.47032e-18 1 

-0.172649 0.0572444 0.351013 
-0.171899 -0.101944 0.669187 
-6.37538e-18 -7.56942e-18 1 

-0.238199 -0.0722522 0.0747 
0.142198 0.0514725 -0.233873 
-7.67707e-18 7.04501e-18 1 

-0.850012 -3.4615 6.42393 
0.393013 0.959456 1.75404 
7.70032e-20 5.34402e-18 1 

-4.91667 0.70612 -3.61855 
-2.05118 0.772024 -2.56173 
-5.59906e-18 7.76601e-18 1 

-0.0894491 0.106883 -0.106742 
-0.409842 0.0104119 -0.0138723 
9.24976e-18 7.60868e-18 1 

-0.625255 0.0542568 -0.458867 
-0.100511 0.293922 0.50678 
1.71141e-17 9.75466e-18 1 

-0.213236 0.0534726 0.0231593 
-0.0381672 0.064455 -0.044155 
7.91055e-18 -1.27496e-18 1 

-0.444097 -0.265041 3.42577 
0.0875503 0.246501 1.04614 
1.01675e-17 -4.83935e-18 1 

-1.02599 -0.570534 -2.45004 
0.23938 0.781191 -0.665059 
7.328e-18 -1.43152e-17 1 

-0.120071 0.115789 0.639481 
0.102521 -0.0959498 -0.504463 
2.46861e-18 -8.77727e-18 1 

-1.27072 -0.423396 1.21704 
-4.41931e-05 0.288176 -1.30245 
-2.11253e-17 2.65376e-17 1 

-0.593162 -0.285382 -0.188554 
0.0793157 0.00418767 -0.957675 
5.39564e-18 -4.12187e-18 1 

-0.329232 0.0572196 0.274983 
0.0501728 0.0576688 0.132283 
-1.3595e-18 -2.55715e-18 1 

0.166438 -0.858099 -1.31149 
0.638629 0.426949 -0.339365 
9.27154e-18 -7.35951e-18 1 

-0.457556 1.30682 -101.353 
0.00358159 0.200298 36.7911 
-1.20149e-18 2.56624e-17 1 

-0.0830629 -0.0907036 0.17558 
0.0294745 -0.0933256 0.249658 
6.6739e-18 -5.45565e-18 1 

-0.895652 0.429048 -0.0890712 
-0.204131 0.378328 -0.450085 
-2.72775e-18 1.21425e-17 1 

-0.334656 0.0800651 -0.0749045 
-0.0366674 0.0937127 0.371599 
-8.07681e-20 1.69613e-18 1 

-0.271148 -0.0433862 -0.423525 
0.116121 -0.070395 -0.271348 
-1.58396e-17 8.07208e-18 1 

-0.4971 -0.144012 -0.914057 
0.116392 0.0751252 1.12058 
-1.31216e-17 1.05808e-17 1 

-0.411182 0.305157 0.502707 
-0.0407734 0.209636 0.473357 
5.18816e-18 -1.00473e-17 1 

-0.161434 -0.00982076 0.270438 
0.0375867 -0.0684369 -0.33987 
-7.02733e-18 8.61007e-18 1 

-0.154835 -0.115753 0.153925 
0.132818 -0.151627 0.540838 
5.66849e-18 3.96289e-18 1 

-0.283102 -0.00715477 -0.063186 
-0.198344 -0.197308 -0.0510024 
-4.15335e-18 7.83652e-18 1 

-0.177169 0.0691863 0.187776 
-0.0310263 -0.0159207 -0.349153 
-8.95672e-18 -1.33372e-17 1 

-0.108106 0.0363739 0.0512779 
-0.0903515 -0.0679798 0.117504 
-5.09023e-18 -5.38357e-19 1 

-0.116691 -0.00211106 -0.0640856 
-0.0118422 -0.034435 -0.260881 
-9.904e-19 -2.68551e-18 1 

-0.657648 -0.193025 -1.65696 
-0.21011 -0.0604598 -1.65643 
-2.42042e-17 -3.76281e-18 1 

-0.0650329 0.0249539 -0.211187 
0.0810685 -0.166801 0.0381768 
1.62301e-18 8.12429e-18 1 

-0.00846603 -1.02361 -2.03917 
0.482662 0.456104 -1.28535 
-5.42445e-18 -2.92981e-18 1 

-0.322647 0.283489 0.501297 
-0.35856 0.350894 -1.44313 
-9.11234e-18 1.67927e-18 1 

-0.344682 -0.174142 -0.0883907 
0.186779 0.194426 0.511593 
4.72912e-18 -6.06297e-20 1 

0.0110442 -0.502022 0.500075 
0.386728 0.068015 0.0522877 
-3.59494e-18 -1.49696e-17 1 

-0.147702 -0.0220607 -0.126758 
0.018753 0.00541293 0.176376 
1.1985e-17 0 1 

-0.337779 0.0273626 0.821922 
-0.0238829 -0.0685236 -1.63267 
-1.88761e-17 -1.73643e-17 1 

-0.171212 0.00116343 -0.641564 
-0.047558 -0.018224 0.359422 
-1.45595e-17 -2.75262e-18 1 

-2.08998 -2.48994 8.53417 
0.690718 1.10927 1.56351 
8.05493e-18 7.27348e-18 1 

-0.24051 0.0750296 -0.429286 
0.000442287 0.0824581 0.413115 
1.15285e-18 -2.18466e-18 1 

-0.123427 -0.541765 -0.668253 
-0.00415836 -0.000817583 -0.581626 
-1.8067e-18 1.47385e-16 1 

-0.0997098 0.106519 -0.211379 
-0.127104 -0.0940038 -0.206606 
3.92735e-18 -8.64938e-18 1 

-0.138974 -0.0649141 -0.223423 
-0.0400939 -0.00518843 -0.0246426 
-2.55026e-18 -1.47348e-18 1 

-0.255376 -1.57659 -0.793531 
0.0046657 0.998862 -0.0176814 
-3.38505e-19 7.78858e-18 1 

-0.153498 -0.298265 -0.569759 
0.18838 0.042397 -0.32658 
6.33983e-19 2.31404e-17 1 

-0.139191 -0.138824 -0.226949 
-0.0211877 -0.0591759 -0.134096 
2.77856e-18 6.80463e-19 1 

-0.312284 -0.228768 2.63665 
0.0212686 0.0563467 0.876749 
8.02236e-18 -1.47538e-18 1 

-0.439709 0.146786 0.216504 
-0.122283 0.116338 0.489782 
-6.07118e-18 -6.19445e-18 1 

-0.196438 0.0658684 -0.235077 
-0.023134 0.0741623 0.324742 
4.80369e-18 -8.78724e-19 1 

-0.660009 -0.290474 0.0801542 
-0.0841462 -0.0285489 0.788275 
1.69275e-17 -4.60272e-18 1 

-0.283695 -0.385235 0.269577 
0.300704 0.190793 0.316882 
-5.09972e-18 -1.27012e-18 1 

-0.186346 -0.0271573 3.99556 
0.00229634 -0.0637159 0.366209 
9.79754e-19 2.51446e-18 1 

-0.355344 0.116434 0.156248 
-0.215806 -0.271708 -0.85181 
-9.14222e-18 -8.09276e-18 1 

-0.684935 -0.772782 -1.24105 
0.377989 0.41195 0.601606 
6.15639e-18 1.52917e-17 1 

-0.145301 0.0234123 -0.114585 
-0.0591165 -0.0289897 -0.0123377 
3.0813e-18 3.1669e-18 1 

-0.393861 -0.45758 -0.730175 
0.0264919 0.113221 0.810369 
-4.95972e-18 3.87982e-18 1 

-0.378505 0.0688468 -0.215321 
-0.056883 0.241625 -0.923272 
-1.90585e-18 -4.1191e-18 1 

-0.11613 0.00500095 -0.23548 
-0.0206855 -0.0376579 -0.208112 
1.07345e-17 7.1784e-18 1 

-0.116645 0.0145119 0.00245609 
0.000240683 -0.0566335 0.159589 
-4.5411e-18 4.75844e-19 1 

-0.133453 -0.553284 -1.60363 
0.21201 0.139907 -0.417047 
4.08913e-18 0 1 

-0.148417 0.0344311 -0.625367 
-0.0219575 -0.0257493 0.111656 
-7.08922e-18 -1.94954e-18 1 

-2.22595 0.173845 13.607 
-0.426867 1.04086 0.353348 
-6.20207e-19 -1.20244e-17 1 

-0.364408 -0.117033 0.772391 
0.0500419 -0.00208787 0.83034 
-7.06499e-19 9.47519e-18 1 

-0.73617 -0.243389 0.225285 
0.593264 0.198156 0.591881 
-9.40252e-18 1.81011e-18 1 

-0.102583 -0.198165 0.0318328 
0.154307 0.0235507 0.145214 
-8.85431e-18 -6.54259e-20 1 

-0.118468 -0.0247348 -0.0191722 
0.0661366 -0.0017509 0.118656 
1.56851e-18 1.9285e-18 1 

-0.477834 -0.280824 -1.0188 
0.0597456 0.150928 -0.382981 
1.51829e-19 -8.95793e-18 1 

-0.148688 -0.605327 -0.16957 
0.300909 0.203126 -0.0894567 
1.27034e-17 4.61558e-18 1 

-1.43535 -0.545315 -0.536325 
0.233652 0.477771 0.466982 
5.40243e-18 -2.31167e-17 1 

-1.92659 -0.126225 -3.75956 
-0.112178 0.576804 0.601914 
1.32026e-18 2.05661e-17 1 

-0.145671 0.00634159 0.0250209 
0.00578674 -0.0816925 -0.315895 
-1.00152e-18 -1.00903e-17 1 

-0.846826 -0.383499 -0.18755 
0.452866 0.296572 -0.128378 
-1.79877e-17 1.18152e-17 1 

-0.193014 0.0295329 -11.8216 
0.0138279 -0.0224436 -1.76988 
3.75429e-18 3.22795e-18 1 

-0.140063 -0.0757792 0.12376 
-0.00979237 -0.0344963 -0.150418 
-3.25675e-18 -7.97904e-18 1 

-0.402494 0.306375 -0.5883 
-0.151413 0.0525237 0.136746 
1.80228e-17 1.03507e-17 1 

-0.261801 -0.413864 5.41136 
0.398134 0.268911 -1.89166 
7.13374e-18 -1.45993e-18 1 

-0.146966 0.0242536 0.12353 
-0.0278369 -0.00898784 -0.0441005 
-7.49116e-18 -6.70016e-18 1 

-0.136267 0.0634934 0.222758 
-0.0260619 0.0161786 0.0924268 
-1.45034e-18 -6.34525e-18 1 

-0.511987 0.493479 -0.985861 
-0.215225 0.402835 -0.289563 
-2.73785e-18 -6.27701e-18 1 

-0.181025 0.00948894 -0.380342 
-0.0137255 -0.0403587 -1.05722 
3.25929e-18 -5.19105e-18 1 

-0.540093 -0.711214 0.754315 
0.489645 0.285935 0.819139 
1.80095e-17 -4.04416e-18 1 

-0.0563856 -0.72509 0.078629 
0.556974 0.138173 0.00308101 
1.98045e-18 -8.714e-18 1 

-0.140742 -0.00595838 -0.660205 
0.0231223 -0.0290991 0.6633 
-9.08864e-18 -2.05393e-18 1 

-0.152904 0.0670709 -1.59044 
-0.00248631 -0.0185591 1.09787 
-2.70397e-18 -2.91092e-18 1 

-1.07347 0.626922 7.58466 
0.292439 0.571946 0.673011 
4.45631e-18 6.96299e-18 1 

-0.211816 -0.0021705 -0.070411 
-0.0331735 -0.0226067 0.427829 
1.18694e-19 -1.40949e-17 1 

-0.202816 -0.071235 0.162431 
0.0989627 0.0152815 0.0397065 
-1.06328e-17 -9.93721e-18 1 

-0.189315 -0.236333 -0.819546 
0.0249121 -0.202286 -0.605341 
8.02966e-19 -1.05433e-17 1 

-0.274215 0.00204254 0.935205 
-0.0872097 -0.0969886 -0.559221 
9.44292e-18 -5.3293e-18 1 

-1.10305 -0.733509 -0.0443289 
0.394029 0.596853 -0.22462 
-1.04477e-17 4.57088e-18 1 

-0.171279 0.0337224 -0.142866 
-0.00459689 0.0325885 0.395117 
4.35389e-18 -4.45669e-18 1 

-0.20749 0.0484066 0.0561962 
0.0852016 -0.121197 -0.113432 
1.09337e-17 -6.01854e-18 1 

-0.249988 0.0644497 0.275095 
-0.0953015 0.00458724 -0.164439 
-2.4864e-18 -6.88541e-18 1 

-0.15952 -1.90676 -63.3292 
-0.00602263 0.645581 14.3859 
-1.01342e-18 -1.03568e-17 1 

-0.17813 0.0170589 -2.03907 
0.0330638 -0.0100653 -1.26603 
-2.33995e-18 -4.42334e-18 1 

-0.145735 0.249797 0.142823 
-0.28545 -0.0480908 -0.0530597 
-1.16764e-17 -3.46644e-18 1 

-0.775092 -0.449534 -1.87433 
-0.173838 0.369016 -1.67795 
1.06324e-17 -8.23415e-18 1 

-1.06062 0.0224462 -0.0753634 
-0.355423 0.400564 0.302542 
-4.04408e-18 7.52887e-19 1 

-0.149916 0.00300713 0.288045 
0.0338888 0.0439537 -0.226118 
4.00881e-18 -8.75771e-18 1 

-0.231736 0.152659 0.625816 
-0.14237 0.0839463 0.782755 
-6.43745e-18 6.53498e-18 1 

-0.135327 0.0898185 -0.0683542 
-0.0521484 -0.0294403 -0.0915979 
5.17434e-18 -1.4653e-18 1 

-0.570218 -0.624858 -0.305256 
0.242359 0.242669 -0.260713 
-9.14835e-18 -1.60471e-17 1 

-0.47856 -0.35267 -0.151978 
0.152357 0.287455 0.217151 
-9.12039e-18 -1.01274e-17 1 

-0.408336 -0.0732341 -0.289205 
0.0928113 -0.0842964 -0.435604 
1.57419e-18 -1.62954e-19 1 

-0.531523 -0.350995 0.934144 
-0.0589002 0.176058 0.262244 
-1.42611e-17 -1.28287e-17 1 

-0.101186 -0.0329989 -0.551536 
0.0275002 -0.00676286 -0.0634541 
1.38923e-17 8.18416e-19 1 

-0.159316 -0.597198 0.125915 
0.410892 0.241576 0.15253 
-1.80177e-17 1.12382e-17 1 

-0.19182 -0.02293 1.22579 
-0.0087969 -0.0110111 0.484865 
-7.06419e-19 5.63973e-18 1 

-0.186105 -0.116651 0.00847652 
-0.0270687 -0.107798 -0.208187 
1.13855e-17 2.4252e-17 1 

-0.166021 -0.00149234 0.414 
-0.0554302 -0.0152053 0.17004 
-4.02243e-18 8.68149e-18 1 

-0.254042 0.0747868 0.249869 
0.0136936 0.11992 -0.451361 
7.62937e-18 -4.00439e-18 1 

-1.1494 -0.197355 -0.407814 
0.554894 0.52151 0.359137 
1.25412e-17 2.16082e-18 1 

-0.197585 0.169376 -0.378969 
0.0163586 -0.00275346 0.646237 
-3.89357e-18 -1.77374e-17 1 

-1.3875 0.18876 -3.34028 
0.177201 0.602377 2.88652 
-8.07309e-18 8.62059e-18 1 

-0.433757 -0.23808 0.0527787 
0.530901 0.164073 0.849252 
-3.30648e-18 -4.45248e-18 1 

-0.118079 0.140901 -0.0202434 
-0.160622 0.0750375 -0.165183 
1.08572e-17 1.88985e-20 1 

-0.130008 -0.861412 0.12652 
0.665299 0.252856 -0.0125715 
9.72422e-18 -1.77882e-17 1 

-0.227588 -0.0363133 -0.128363 
0.0229484 0.0131867 -0.187086 
1.4488e-18 -1.22419e-17 1 

-0.112583 0.00382144 0.108032 
-0.000192249 -0.00821266 0.106723 
2.0292e-18 -8.42897e-18 1 

-0.784335 -0.204968 0.732197 
-0.47221 0.32455 -0.177555 
1.14718e-17 7.4636e-18 1 

-0.12756 0.00562269 -0.16872 
-0.026836 -0.0365461 -0.141528 
9.76872e-18 1.218e-17 1 

-0.282312 -0.284187 -0.0742936 
0.23213 -0.0110703 0.0506758 
-1.27256e-17 2.56468e-18 1 

-0.0916823 -0.110472 0.0106347 
0.0981617 -0.0746736 -0.0132549 
1.25776e-17 -2.43437e-18 1 

-0.312118 0.135243 0.358829 
-0.107574 -0.00460269 -0.638574 
1.04779e-17 1.19747e-17 1 

-0.0783179 -0.129538 0.00576471 
0.100078 -0.0464781 0.0824186 
3.93885e-18 -1.15628e-17 1 

-0.213439 -0.032802 0.342176 
0.0495816 -0.0280782 0.086241 
-3.64581e-18 9.19738e-19 1 

-0.0965427 -0.0785612 -0.712463 
0.0226282 0.0113368 0.322103 
-6.54381e-18 3.23685e-17 1 

-0.0968399 0.0473809 -0.187512 
-0.0239166 -0.00628395 -0.0679152 
3.69561e-18 3.3758e-19 1 

0.0363033 -0.971497 -1.02169 
0.537071 0.35327 0.303849 
-2.9171e-18 -6.76858e-18 1 

-1.09965 -0.0844486 0.415064 
-0.434508 0.285522 -0.306498 
-2.88688e-18 1.19535e-17 1 

-0.157686 -0.0122393 -0.0860699 
-0.073901 -0.11711 0.105335 
-1.87263e-17 -1.55035e-17 1 

-0.167271 0.029604 -0.152419 
-0.0200742 -0.017636 -0.200005 
1.39345e-18 -1.50443e-18 1 

-0.181228 0.0432943 0.351367 
-0.122362 -0.000436109 0.0634353 
-8.20935e-18 -7.24284e-18 1 

-0.187465 -0.0733724 0.414784 
-0.00524565 -0.00647713 -0.225444 
3.01971e-18 4.20081e-18 1 

-0.223585 0.0293771 0.066878 
0.000582656 0.00877253 0.190096 
1.69351e-18 1.36372e-18 1 

-0.17143 -0.0767624 0.327626 
0.0282615 -0.036015 1.45003 
-3.63093e-18 4.52781e-18 1 

-0.131203 -0.00201248 0.79187 
-0.0334034 -0.00655382 0.265999 
-3.10605e-18 1.84391e-17 1 

-0.121998 -0.0237494 0.173154 
0.0385684 -0.0411607 0.102877 
-2.17707e-18 -2.9505e-18 1 

-2.39895 0.295882 21.4118 
-0.590143 0.816887 10.6695 
5.59359e-18 -9.25719e-18 1 

-0.76294 -0.479837 8.15294 
0.144941 0.301237 -4.16304 
6.8449e-18 -2.11314e-18 1 

-0.151042 0.00753483 0.178253 
-0.0119969 -0.00161908 -0.997769 
4.227e-18 3.97458e-18 1 

-1.87426 -2.0373 20.645 
0.124058 0.824437 -2.57259 
4.60784e-18 5.92233e-18 1 

-1.39072 0.254604 1.79262 
-0.192522 0.28461 -0.943815 
-7.74908e-19 -8.2422e-18 1 

-0.113995 -0.205536 1.70761 
0.141721 0.056759 -2.9678 
-3.69566e-18 9.59689e-18 1 

-0.443376 -0.130303 1.02685 
0.129299 0.0593303 0.533885 
-1.89066e-17 5.01613e-18 1 

-0.651314 -0.315793 0.260192 
0.223077 0.21887 -0.098615 
1.2777e-17 4.18195e-18 1 

-0.573711 -0.954542 -36.691 
0.223607 0.63395 -1.83833 
-3.14122e-18 -7.39931e-18 1 

-0.422308 -0.167106 0.516236 
-0.186932 0.0485725 0.195203 
-3.04912e-18 -1.05917e-17 1 

-1.67284 0.034986 -0.997092 
0.596627 0.388739 -0.0343016 
8.79103e-18 4.30819e-18 1 

-0.15495 -0.0354132 -0.0639042 
0.0585724 -0.02994 0.0425145 
-6.67041e-18 -1.64112e-17 1 

-0.109092 0.0418607 -0.14073 
-0.0426572 -0.0164762 0.0801374 
-8.55716e-18 -7.6765e-18 1 

-0.156756 -0.0472444 0.097729 
0.033375 -0.0676054 -0.00758554 
-9.6446e-19 -9.46516e-18 1 

-0.211376 -0.0210247 0.184493 
0.0128591 -0.00389716 -0.201219 
-5.68847e-18 -8.82553e-18 1 

-0.129171 0.00661412 -0.0384646 
-0.0107795 -0.031074 -0.0687768 
-2.03024e-18 5.89377e-18 1 

-0.101311 0.025665 -0.112659 
-0.00641539 -0.0355953 0.0833783 
3.68342e-18 -6.17004e-19 1 

-0.306322 -0.0781023 0.711052 
0.035995 0.00584611 -0.0662285 
2.08924e-17 9.86044e-18 1 

-0.605197 -0.162713 -1.57164 
0.0567147 0.221202 0.340799 
8.06758e-18 2.36413e-17 1 

-0.220848 -0.566255 0.681543 
0.713752 0.420648 -0.249458 
-1.5454e-17 -5.14434e-18 1 

-0.572906 0.00551725 -0.499314 
0.46423 0.249526 0.401971 
2.16822e-17 2.17836e-18 1 

-0.0790562 -0.613539 0.150814 
0.546444 0.330108 0.221808 
-9.40696e-18 -4.56792e-18 1 

-0.130724 -0.0491912 0.01405 
-0.00213937 -0.0737879 -0.138243 
3.65676e-18 1.47896e-17 1 

-0.26654 -0.169741 1.38177 
0.088906 0.0925027 1.37421 
-9.30128e-18 -1.36063e-19 1 

-0.263596 0.207137 0.056225 
-0.252207 -0.129817 -0.0985443 
4.53033e-18 -8.22353e-18 1 

-0.11573 -0.0203524 -0.199323 
0.00654186 0.0276768 0.500002 
5.73784e-18 -2.84053e-17 1 

-0.438807 -0.0301916 0.543181 
-0.177472 -0.0757908 -0.0446214 
-3.87817e-18 4.89179e-18 1 

-0.319068 0.0743845 0.320718 
-0.19343 0.0880408 0.0115708 
-7.27435e-18 1.1639e-17 1 

-0.128103 0.0169813 0.704997 
0.0226551 -0.0591491 -0.0610136 
-6.81225e-18 1.00941e-17 1 

-0.430299 0.121032 0.308131 
0.138901 0.106266 -0.155505 
-5.92011e-18 1.61027e-17 1 

-0.195213 -0.00432621 -0.561735 
-0.0287982 -0.0453862 0.280492 
1.20979e-17 1.00569e-17 1 

-0.264892 0.0168793 0.0655113 
-0.115139 0.0432253 -0.269268 
5.18443e-18 1.51451e-17 1 

-0.0667656 -0.983456 0.922307 
0.548327 0.729265 0.830263 
-8.99471e-18 5.75345e-18 1 

-0.162886 -0.00760611 0.00614673 
-0.0157773 -0.0227144 0.139238 
1.30094e-18 -1.24877e-17 1 

-0.729346 -0.294709 -0.0874899 
-0.196893 0.0347402 -0.279277 
-3.59805e-18 1.11659e-17 1 

0.357736 -0.926327 -0.0663411 
0.9235 0.45731 -0.0644599 
-5.93195e-18 -1.16382e-17 1 

-0.201482 -0.0312318 -0.243415 
0.102017 0.0130663 0.112492 
-1.52943e-17 -3.46169e-17 1 

-0.772239 -0.63539 -0.555857 
0.124943 0.343963 -0.104317 
-1.86538e-17 1.63478e-17 1 

-1.13882 -1.13988 -1.59251 
0.937012 0.918191 1.93232 
-6.50426e-19 -5.05887e-18 1 

-1.43019 -0.628005 0.706496 
0.266104 0.479564 -1.49597 
1.97869e-17 -2.17127e-18 1 

-0.501313 -0.444779 -2.20708 
0.0782927 0.410392 -0.751488 
7.22043e-18 -3.0696e-17 1 

-0.326848 0.322509 1.74839 
-0.248157 0.0299794 -0.620216 
-1.58165e-17 -6.25577e-18 1 

-0.240726 -0.144499 -0.617608 
0.199182 0.0279873 -0.475738 
1.03341e-17 -1.67062e-17 1 

-0.466843 0.320602 -0.0552544 
-0.388138 0.169415 0.0171145 
-3.73973e-18 -5.62315e-19 1 

-0.138157 -0.240192 -0.0244386 
0.265625 0.153475 -0.100567 
6.40033e-18 -2.66166e-18 1 

-0.0235579 -0.147252 -0.195729 
0.138205 -0.0695369 -0.0465246 
4.05593e-18 -1.22907e-18 1 

-0.11117 0.0971944 -0.0012804 
-0.00606733 -0.0279376 -0.174635 
-1.298e-18 3.95045e-18 1 

-0.517145 -0.245257 -0.219496 
-0.0916128 0.00704711 -0.218883 
8.19313e-18 -1.53974e-17 1 

-0.334645 -0.81496 20.5287 
0.214648 0.553129 3.42426 
3.64244e-18 3.90204e-18 1 

-0.243719 -0.0103436 -0.0271486 
-0.0146422 -0.0408331 -0.0377892 
7.28118e-18 -6.81945e-18 1 

-0.250845 -0.088352 1.6466 
0.0493147 0.0235321 0.609143 
-4.14714e-18 2.24798e-18 1 

-0.110479 -0.0419154 0.0109437 
-0.00388707 -0.0213174 0.359178 
3.11547e-18 -5.71169e-18 1 

-0.134501 0.0136735 -0.28218 
0.040307 0.0153901 0.44431 
-9.74878e-18 -5.10344e-18 1 

-0.20317 -0.45962 3.3389 
0.474826 0.127348 2.33495 
5.178e-18 -1.17033e-17 1 

0.00278803 -0.227745 -0.220443 
0.132322 0.00518362 0.185345 
3.29209e-18 -5.98421e-18 1 

-0.152007 0.0327957 -0.123257 
-0.0173876 -0.0113748 0.128947 
4.53491e-18 -1.36756e-17 1 

-0.278147 0.0112507 -0.0923522 
0.0183053 0.00236671 -1.30476 
8.15676e-18 -5.11768e-18 1 

-0.109127 0.0864606 -0.170596 
0.0210499 -0.0455444 0.189934 
-1.54003e-18 -7.43123e-18 1 

-0.146621 0.00793644 -0.186221 
-0.0389995 -0.0167566 -2.80271 
2.94155e-18 -2.78194e-18 1 

-0.56016 -0.00785481 -1.26017 
-0.0128786 0.227708 -0.651927 
7.10987e-18 -6.12402e-18 1 

-0.354903 0.219052 -4.30026 
-0.105602 0.165665 2.32998 
8.3589e-18 6.26329e-18 1 

-0.161203 -0.0226127 0.0248369 
0.00779047 -0.0759188 -0.28402 
1.91195e-18 2.59005e-17 1 

-0.575514 0.022908 -0.611959 
0.319297 0.376774 3.7223 
1.07562e-18 1.73108e-18 1 

-0.539962 -0.605237 48.6518 
0.0309889 0.464681 -14.9057 
-1.81559e-18 -5.97632e-19 1 

-0.17481 -0.199969 -0.778766 
-0.0263049 0.0622819 0.24428 
7.33933e-18 -2.10064e-17 1 

-0.53522 -0.465248 -14.6433 
0.00886858 0.141746 0.00414751 
-3.89244e-18 -2.45171e-17 1 

-0.64265 -0.671366 0.398547 
0.483711 0.336593 0.323502 
-8.25957e-18 -2.62922e-17 1 

-0.132488 -0.0155225 0.217729 
0.0288914 -0.0270026 -0.192575 
7.33592e-18 -9.43189e-18 1 
