# vtk DataFile Version 3.0
Output file generated by Yade's KinematicLocalisationAnalyser
ASCII
DATASET UNSTRUCTURED_GRID

POINTS 13483 float
638.011 27.6864 0.436109
833.401 46.6063 0.542002
124.586 6.07533 -0.443646
875.689 5.88982 0.265969
519.368 7.73575 -0.273296
326.469 34.7572 -0.464128
162.385 6.89093 0.425983
595.694 10.0435 0.144894
516.038 22.9122 0.1492
772.876 12.2421 0.408336
218.381 8.86224 -0.0866549
266.592 6.28759 -0.263748
691.275 28.1167 -0.15779
667.732 13.7987 0.0693251
142.273 17.1331 0.385459
229.687 34.4354 0.403401
225.85 12.8788 -0.288552
299.614 9.56455 0.38944
353.601 32.4976 -0.335099
546.202 8.5226 0.347619
426.52 36.3914 0.0978514
620.001 43.9209 -0.255668
872.314 32.5098 -0.454523
745.464 41.5767 -0.47955
476.792 16.1567 0.286717
249.97 44.0001 0.131358
511.042 27.2525 -0.493834
613.932 19.3753 0.230708
46.9847 15.5166 -0.391751
769.311 31.702 0.257082
501.561 4.92077 0.319202
17.3313 22.8912 0.299515
846.809 45.507 0.25781
515.133 2.48427 0.481789
81.1404 44.1843 -0.100053
543.191 29.9034 0.35697
552.883 16.477 -0.405628
356.949 22.5518 -0.196434
556.244 25.1319 -0.341787
363.972 33.1142 0.455235
250.112 14.6143 -0.298674
451.179 35.391 0.0729743
720.718 6.95923 0.136725
200.159 6.23913 0.366163
57.7119 6.93011 -0.129779
71.2148 8.93617 -0.292178
738.991 9.09506 -0.498591
24.4612 11.704 -0.297653
642.351 43.6157 0.362329
722.266 22.7064 0.359617
179.225 32.1518 0.28695
828.568 33.7273 0.152285
36.2968 27.9335 0.117689
556.96 2.95674 0.326082
147.565 7.50735 -0.480602
622.893 33.282 0.431884
524.887 26.3827 -0.1564
181.637 0.937144 -0.269021
34.0788 2.40002 -0.292955
362.122 17.7278 0.271673
654.429 44.32 -0.137832
480.599 33.2604 -0.188006
415.004 1.02725 0.195867
751.007 7.90752 -0.368232
27.6438 42.8606 -0.234883
266.187 30.2894 0.298214
773.237 7.62889 0.19294
714.041 43.229 0.38275
434.057 8.6619 -0.492288
596.626 3.49944 -0.346021
806.424 29.7366 -0.481514
135.795 7.62586 0.284951
518.844 25.3601 0.147816
497.13 14.8479 -0.147657
305.994 16.6862 -0.338231
21.4854 13.5844 0.274825
853.259 35.4311 0.308168
345.783 38.4087 -0.28609
719.82 19.5346 -0.342107
738.64 12.8451 -0.240503
862.58 11.3154 -0.316242
484.145 34.227 -0.15837
96.1073 38.3612 0.28367
732.423 32.8913 -0.217243
687.339 36.8637 0.111623
879.708 40.528 0.122176
854.535 0.682756 -0.510537
302.584 28.6995 0.436205
656.013 6.30808 -0.114402
25.2914 5.20216 -0.476833
138.222 37.9333 -0.152929
534.888 14.469 0.221807
845.407 25.2276 -0.531769
203.529 28.6514 0.219917
46.1333 34.1604 0.280983
514.034 1.15723 0.12821
245.345 8.91566 -0.367738
810.079 38.6429 -0.268747
832.373 25.2636 0.243467
376.252 20.8152 -0.255522
170.737 26.6772 -0.465899
575.705 37.8049 0.425777
395.857 15.5432 -0.449048
430.901 29.2957 -0.0949911
393.954 4.51102 0.411491
573.797 10.8464 -0.0897895
880.387 11.3188 0.157077
83.6376 39.1596 -0.400134
349.444 4.8393 -0.182463
588.936 9.46531 -0.345534
375.362 43.4626 0.44375
26.8638 24.6573 -0.477458
31.716 5.74871 -0.328101
597.296 31.7305 -0.443258
528 24.1136 0.151013
27.376 36.789 0.417261
96.9668 30.4696 0.234079
338.958 15.8224 -0.294421
633.441 18.6795 -0.150047
496.75 37.4891 0.312801
791.441 7.79583 -0.358812
783.367 6.51961 -0.221051
403.944 36.8858 0.0957093
674.445 24.62 0.125269
248.644 17.0534 0.490706
344.499 3.71338 0.461121
108.158 31.3205 0.364885
121.456 24.1941 -0.264644
570.837 38.1224 0.0788756
319.501 18.8315 0.45773
764.035 34.6744 0.122794
718.254 42.477 0.1171
503.038 20.3808 -0.415515
837.21 10.1272 0.298873
448.428 23.1346 -0.23279
288.952 24.1391 0.299055
720.776 29.8106 -0.26956
291.291 28.161 -0.424259
607.566 11.8799 -0.207882
346.814 35.0997 0.201077
529.203 11.2867 0.472098
383.571 31.3502 0.0993631
450.601 16.5591 -0.107818
332.787 41.6076 0.30697
199.597 29.5678 0.130563
836.752 44.2753 -0.184655
876.708 13.4169 -0.234366
6.26351 12.1573 -0.473117
454.776 22.2444 -0.413835
40.042 22.3928 -0.0751179
393.944 31.0974 -0.330155
413.574 24.7805 0.25354
78.4649 11.9325 0.488985
54.2067 32.9074 0.425863
236.56 13.445 0.398468
655.71 37.4748 0.484001
610.119 20.5353 -0.464324
78.5919 20.965 0.25413
748.227 45.2068 -0.40646
823.626 2.43253 0.450288
706.008 39.3982 -0.463342
745.749 2.37262 -0.388818
580.178 26.3151 0.428533
621.772 44.0803 -0.447249
538.838 17.9405 -0.415687
873.567 3.76713 0.303492
234.369 24.6697 0.140158
133.723 34.8238 0.199117
259.259 6.40097 0.370628
99.1535 4.17332 0.271725
67.4555 10.136 0.208382
289.228 35.67 0.317839
17.4893 24.7607 0.376696
586.49 19.2509 -0.39109
642.091 38.5789 0.230261
486.231 20.9783 -0.380222
865.002 40.9137 -0.365965
427.026 8.59175 -0.104868
457.812 35.7447 -0.380359
565.718 3.4286 -0.192677
23.9444 23.8535 -0.383827
610.613 4.52115 -0.334189
576.029 4.34884 -0.286225
216.53 11.3328 0.483066
446.633 16.3769 -0.190927
326.832 6.28349 0.335225
407.52 18.97 -0.321242
796.604 40.896 0.109235
201.83 25.6357 -0.430014
847.871 6.60274 -0.376896
795.584 37.0086 0.375796
402.694 10.1395 -0.165457
770.441 2.40894 0.462034
642.033 24.6776 0.134108
799.918 17.5742 -0.370858
452.984 42.473 -0.29675
523.297 12.4776 0.350503
489.717 43.7363 -0.219795
468.667 8.58486 0.126375
709.584 38.371 0.310349
707.162 34.7596 0.349956
202.091 38.7442 -0.226141
860.519 10.8935 -0.104364
623.903 44.4179 -0.241211
11.9024 16.6484 0.228449
428.183 25.1559 0.36264
196.785 23.0138 0.395322
97.7928 39.2031 -0.201606
843.621 22.3947 -0.472747
702.777 43.4682 -0.227661
335.434 25.2795 0.345166
562.43 10.1315 0.319216
86.5513 44.2657 -0.167362
260.35 25.7284 -0.482388
589.119 23.4176 0.38956
512.803 18.4142 0.40593
276.273 0.888113 -0.343305
585.28 39.3072 -0.364923
564.042 40.2452 -0.462246
508.055 32.6765 0.374936
526.471 0.799597 -0.513636
757.204 19.0202 0.368768
188.89 11.9748 -0.18435
527.826 36.1229 0.444802
598.307 39.2108 0.131344
76.7226 0.947185 0.272619
264.759 4.71141 0.176387
875.607 15.2801 0.218718
862.3 13.3546 -0.509646
881.904 17.7352 -0.62736
319.142 8.55443 -0.228449
806.774 22.0952 0.419766
428.454 41.0935 -0.181776
472.977 0.811583 -0.399393
694.2 34.5859 0.591776
28.6141 30.431 0.298775
347.941 40.9046 0.55919
265.627 2.84849 0.323934
849.729 41.6666 -0.190728
768.374 46.6362 -0.250495
302.282 10.9201 0.220431
713.833 28.1671 -0.105736
590.721 2.65352 0.283933
573.728 6.41397 0.416277
101.773 18.2177 -0.48944
318.981 1.03171 -0.223477
361.364 2.27631 -0.358327
14.6942 7.59121 -0.400334
4.62391 30.6065 -0.25687
170.358 18.8003 0.367378
71.8211 41.461 0.213419
70.2635 28.7017 0.364009
446.259 14.5108 -0.426641
386.551 34.8527 0.470294
826.147 35.7317 0.164092
20.5384 4.01287 0.27009
74.3574 6.91411 0.121689
666.647 36.8739 -0.174746
310.121 0.915135 0.354584
384.448 16.102 -0.0933532
248.063 4.67959 -0.390617
698.859 20.9373 -0.225071
476.26 8.30214 0.415651
809.645 19.9822 -0.408806
673.751 28.0497 0.353185
718.744 17.6809 -0.0827965
442.879 26.4489 0.4804
107.576 44.6819 -0.30614
574.546 41.5899 0.0731851
797.233 13.3244 -0.172576
250.565 30.2584 -0.251733
33.8405 16.9966 -0.18297
354.402 13.7197 0.497523
113.342 40.1888 -0.461369
281.932 42.0268 -0.203233
448.503 1.09041 -0.22853
850.545 30.6785 0.388361
738.383 0.766713 0.491996
350.02 3.21901 0.521943
316.038 26.3831 -0.151061
488.488 40.6109 0.214347
85.8864 8.01099 0.429332
208.572 44.7736 0.377659
834.979 27.5587 0.450483
522.915 38.6037 -0.0819985
211.024 41.2341 -0.264837
169.621 42.0702 -0.161854
882.966 37.1816 -0.388982
879.026 12.6318 -0.419135
645.896 3.50429 -0.441056
200.44 24.4489 -0.091058
582.087 27.2616 0.108475
584.126 27.0184 -0.26895
431.68 5.68774 -0.137119
508.849 0.928167 -0.285695
824.171 37.9194 -0.471994
89.581 30.8294 0.222275
704.863 17.9326 -0.433295
289.183 15.5028 -0.338167
10.2674 2.31065 0.349896
132.259 36.6407 0.189801
70.7997 23.0872 0.487227
756.655 36.2184 -0.339331
854.489 48.5843 0.17044
195.739 28.2095 -0.171443
871.413 13.359 0.426017
47.4815 36.2254 -0.266658
95.8855 28.8486 -0.164875
678.088 12.8518 0.435114
436.308 18.21 -0.480642
549.533 16.4896 0.127602
251.157 28.2786 -0.180298
663.551 4.43923 -0.408705
881.684 12.7416 0.473103
31.3737 31.5307 0.272784
284.826 7.69584 0.190343
234.15 15.0525 0.247443
1.07341 35.2686 0.147304
237.553 14.5259 -0.365244
223.342 11.0269 -0.106734
226.176 26.1921 -0.275294
140.308 27.6488 -0.131934
580.613 14.9363 -0.34264
176.424 14.0805 -0.354153
844.305 43.1113 0.280226
183.727 3.80082 0.509089
49.9644 37.1212 -0.386361
803.322 47.1581 -0.426295
296.353 31.0818 -0.376367
728.744 22.8824 -0.422556
859.365 29.9057 0.625541
317.167 9.1688 -0.108223
793.881 28.9909 -0.345242
346.831 2.6006 -0.375775
439.244 23.8525 0.350769
725.215 15.9435 0.435561
111.261 11.9258 -0.44747
510.557 3.89517 -0.480839
813.439 17.4133 -0.218312
93.2838 7.69168 -0.209617
297.1 14.6605 0.201813
447.045 11.6801 -0.202624
872.548 2.43518 0.624355
420.053 1.94048 -0.527309
186.713 38.6062 -0.292476
799.983 10.1395 -0.390518
135.564 35.9536 0.181164
277.472 31.2042 -0.390355
422.728 21.5478 0.217714
610.018 13.6983 -0.331792
408.706 9.73759 -0.479819
482.357 27.3895 -0.349962
834.084 45.6893 -0.460763
50.2924 11.0024 -0.107771
315.909 38.3584 -0.256661
400.831 26.9147 0.345667
432.364 20.9158 0.2629
551.981 43.8133 0.356437
818.671 35.6167 0.231648
712.944 34.0063 -0.37322
238.298 34.0121 -0.386933
14.61 31.0993 0.169312
705.55 35.8362 -0.141938
538.752 40.8358 0.431067
242.31 39.0088 -0.0902269
736.511 30.0033 0.13513
159.594 9.22214 0.208525
387.059 21.2479 0.315891
490.305 41.6532 0.10206
437.409 19.5245 0.208639
830.032 48.19 0.293945
450.025 3.41316 0.4355
52.5592 24.8909 0.207193
497.024 31.2755 0.358702
459.413 41.9762 -0.378594
846.493 36.0037 -0.250738
791.147 27.9803 0.227347
574.064 18.3234 -0.189601
838.55 37.1447 -0.478272
309.634 2.2044 -0.461642
399.554 29.2901 0.476632
30.6613 38.5603 -0.306802
797.035 29.9319 -0.151218
650.927 19.5835 0.510132
489.566 0.771461 -0.475319
133.216 4.5115 0.279246
450.804 39.8407 0.108308
12.7567 0.902912 -0.317537
871.013 6.59701 0.169819
390.951 39.0163 -0.403407
[...]
POINT_DATA 13483
TENSORS Strain_matrix float
-0.109353 -0.0982826 0.310478 
0.0521141 -0.0323129 -0.295306 
2.64649e-18 -2.1752e-18 1 

-0.384705 -0.0984676 -1.46363 
0.154452 0.165903 4.9816 
6.11096e-19 -6.65625e-18 1 

-0.0896179 0.0084011 0.143113 
-0.02214 -0.0458342 0.272488 
9.39402e-18 -1.28092e-17 1 

-0.714628 -0.0832434 0.347462 
-0.265047 0.222815 0.321209 
1.74223e-18 3.67805e-18 1 

-0.13735 0.000136172 -0.00244899 
-0.0107954 -0.0039983 -0.280567 
8.57301e-18 -2.34094e-17 1 

-0.0783285 -0.0140132 -0.527583 
0.00883913 -0.0200935 -0.189424 
1.44459e-18 9.01159e-18 1 

-0.0710189 -0.0224462 -0.000303213 
0.00148986 -0.0906392 0.0106623 
3.11458e-18 -2.59549e-18 1 

-0.077439 0.00676897 -0.0915494 
0.0248479 -0.0597606 -0.0258001 
9.24727e-20 -1.23682e-17 1 

-0.0984514 -0.0380069 -0.0258722 
0.058034 -0.00225333 -0.0642633 
-8.87223e-18 1.05438e-17 1 

-0.257665 0.0505628 0.0164212 
0.0212496 -0.00634077 0.0169398 
-4.3357e-18 -1.22845e-18 1 

-0.0712348 0.0281657 -0.107203 
-0.00524199 -0.0663356 -0.0354465 
4.77135e-18 7.99341e-18 1 

-0.0867404 -0.0460139 0.201969 
-0.0691728 -0.0974324 0.0490312 
-1.78922e-17 1.69764e-17 1 

-0.11553 0.0896841 0.344389 
0.0239807 -0.00991323 0.158576 
-8.79159e-18 -2.06561e-18 1 

-0.132568 -0.0278163 -0.239781 
0.0211978 -0.0412728 0.186186 
-4.29803e-18 7.13533e-18 1 

-0.118964 -0.0172082 -0.507864 
0.0058403 -0.0455679 -0.131865 
2.66615e-18 -8.87706e-18 1 

-0.0741304 -0.0218425 0.370331 
-0.0533957 -0.0230176 0.0908241 
1.30765e-18 4.08515e-19 1 

-0.0635665 -0.0373595 0.067234 
0.00741754 -0.111848 -0.0558247 
-2.78181e-18 -5.67953e-18 1 

-0.1359 -0.0109076 -0.0498994 
0.0129386 -0.0704163 0.00791443 
3.68892e-18 2.80171e-19 1 

-0.143295 -0.0265355 0.195598 
-0.0165632 0.0134682 0.177231 
1.21343e-17 1.24773e-17 1 

-0.0963673 0.0277818 0.140613 
-0.0749719 -0.0754093 0.258437 
3.69362e-18 6.52045e-18 1 

-0.0502062 -0.0428932 0.0874217 
0.118351 -0.0412591 -0.00194718 
-6.05178e-19 -2.5959e-18 1 

-0.100534 -0.0478699 0.0473398 
-0.000306066 -0.109371 0.308355 
-4.52515e-18 -1.5765e-17 1 

-0.360681 -0.023737 0.884833 
0.0809293 0.12161 -0.852346 
-7.58434e-18 1.00469e-17 1 

-0.13407 0.0253928 -1.95592 
0.0451951 -0.000547212 -0.981202 
-3.03079e-18 9.96501e-18 1 

-0.0508487 -0.0471802 -0.14893 
0.0799979 -0.0466807 -0.050289 
8.5488e-18 4.62322e-18 1 

-0.137398 0.0744814 -0.0690367 
-0.0522454 0.0401145 0.0220416 
9.467e-18 -8.57497e-18 1 

-0.10969 -0.00762804 0.8015 
0.014716 -0.0367838 -0.97809 
2.76016e-18 -1.7557e-18 1 

-0.0974287 0.00205862 -0.0299302 
-0.0463253 -0.0230223 0.0160387 
1.01171e-17 4.83673e-19 1 

-0.0807404 0.0273114 -0.033443 
0.0604676 -0.0693209 -0.906226 
5.2904e-18 3.39259e-18 1 

-0.284623 -0.0329616 0.327959 
0.0175767 0.0661069 -0.154862 
4.89014e-18 -1.16677e-17 1 

-0.073684 -0.0116632 -0.271817 
0.00133571 -0.149695 0.384865 
3.50125e-18 4.60691e-18 1 

-0.121368 0.000103369 0.087222 
0.0119591 -0.0387559 0.048688 
2.49224e-18 -1.2589e-17 1 

-0.3146 -0.259546 -0.514723 
0.23205 0.129039 -0.686223 
1.6403e-18 1.80532e-17 1 

-0.120003 0.0471603 -0.98813 
0.00448508 0.0668684 -0.722514 
-1.00705e-18 4.82198e-17 1 

-0.0402206 -0.033655 0.0205915 
-0.00946974 -0.0617455 0.0456806 
-1.21201e-17 -4.57995e-18 1 

-0.114781 -0.0219323 -0.245201 
0.00616639 -0.00631694 0.285689 
6.81739e-18 6.30458e-18 1 

-0.0827144 -0.00395746 0.127844 
0.00986103 -0.0472172 -0.550879 
-9.56423e-18 1.14667e-18 1 

-0.0241226 -0.0281809 -0.106441 
-0.0148283 -0.116464 -0.0945234 
-5.26701e-19 -6.88862e-18 1 

-0.0912655 -0.0289332 0.0720435 
0.0922371 -0.0486066 0.071584 
1.16632e-17 -1.48946e-18 1 

-0.0777164 -0.0237696 -0.176253 
0.00541419 -0.0216388 0.138717 
-4.16546e-18 5.8407e-18 1 

-0.0839359 0.014713 0.0354089 
-0.0751441 -0.0553037 -0.0380302 
-3.26458e-18 1.135e-17 1 

-0.061386 -0.0245572 -0.144886 
-0.0147119 -0.0428085 0.415514 
2.44789e-18 1.59279e-17 1 

-0.25434 0.00477711 0.0805702 
-0.0479262 0.00216649 0.0069484 
-1.04302e-17 -1.14384e-17 1 

-0.0652094 -0.0160648 0.169336 
0.00227137 -0.0725331 -0.564675 
-3.15774e-18 -5.36898e-18 1 

-0.0682942 0.0314181 -0.00368806 
-0.0422333 -0.101836 0.153823 
-7.46081e-18 3.79685e-18 1 

-0.0737739 0.00437989 -0.0520796 
-0.0137575 -0.052389 -0.174634 
-1.14787e-18 5.17736e-18 1 

-0.199675 0.0331402 -0.564658 
0.0138306 -0.0575958 -0.791358 
-6.8119e-18 1.07353e-18 1 

-0.0494329 0.00313169 0.0361734 
-0.0113495 -0.126313 -0.0183492 
7.26809e-18 -5.76758e-18 1 

-0.13017 0.0234565 -0.320422 
0.0365148 0.0254359 -0.167838 
1.95367e-17 4.12102e-18 1 

-0.111682 0.0354563 0.0252964 
-0.0190927 -0.0362752 -0.0956455 
5.19328e-20 -3.8084e-18 1 

-0.0635571 -0.0460436 -0.056331 
-0.00308733 -0.0381979 -0.200823 
8.55436e-20 6.88626e-18 1 

-0.128116 -0.0832806 0.333839 
-0.112841 -0.0366819 -0.156122 
0 5.73472e-19 1 

-0.106276 -0.0188906 -0.131767 
0.0182195 -0.00391881 0.184707 
4.03407e-18 1.62664e-18 1 

-0.107913 0.0380063 0.077799 
-0.0193303 -0.0551475 -0.0025419 
6.58869e-18 6.79865e-18 1 

-0.0928173 -0.00146528 0.712562 
-0.00329352 -0.0695592 -1.14386 
-2.12241e-19 4.10975e-18 1 

-0.115047 -0.019838 -0.711224 
-0.014836 -0.0133306 -0.214106 
6.96584e-18 -1.93781e-18 1 

-0.135591 -0.0486661 0.0146979 
0.0407623 -0.0199759 -0.0777094 
5.08082e-18 1.01616e-17 1 

-0.0835725 -0.212002 0.114439 
-0.00422414 -0.0483694 0.0795165 
4.28669e-20 -1.11913e-16 1 

-0.0504581 0.00154084 0.0503102 
0.00785825 -0.123039 -0.0487764 
9.91434e-18 -2.88109e-18 1 

-0.08218 -0.01339 -0.20361 
-0.0719486 -0.060004 -0.00735033 
-1.03183e-17 5.68739e-18 1 

-0.0713568 0.22131 0.0897093 
0.037396 0.0389588 0.0990681 
4.77949e-18 -3.57577e-18 1 

-0.0864808 -0.0509617 -0.19657 
0.0469851 0.0105028 0.0844965 
2.52094e-18 -1.60531e-18 1 

-0.089002 -0.0874212 -0.298196 
-0.0105665 -0.0448912 -0.0904727 
-2.2202e-18 2.1128e-17 1 

-0.132124 0.0489224 0.193278 
0.00758722 -0.0378022 0.370478 
1.22612e-17 2.53423e-18 1 

-0.100473 -0.0192309 -0.116942 
-0.00987647 0.0413103 -0.335294 
-2.32297e-19 -4.31623e-18 1 

-0.138437 0.0133682 0.0105666 
0.0400136 0.0012604 0.0582235 
-2.72551e-18 7.8737e-18 1 

-0.172238 -0.0275854 -0.036113 
0.0810989 -0.0862719 -0.10169 
-1.16747e-17 1.31207e-18 1 

-0.117926 -0.0143543 -0.0926858 
0.0560823 0.0333769 0.300864 
1.83324e-17 -1.22829e-17 1 

-0.104356 -0.00413925 -0.526294 
-0.0338771 -0.0751835 -1.07437 
-4.70611e-18 -1.75956e-18 1 

-0.122842 -0.0290927 0.0728003 
-0.0232939 -0.0915451 0.0616329 
9.93234e-18 -6.97948e-18 1 

-0.358981 0.171406 -0.179531 
-0.118111 0.209496 0.674686 
1.25483e-17 4.13133e-18 1 

-0.0552396 -0.00428358 0.060981 
-0.00430191 -0.0809733 0.107114 
8.64847e-18 -7.88272e-19 1 

-0.0965657 -0.0160942 0.132847 
0.0170946 -0.0454439 0.204619 
-4.32106e-18 -5.51875e-18 1 

-0.0795447 -0.0300934 0.135097 
-0.0336455 -0.053816 -0.333775 
1.02337e-17 -5.42312e-18 1 

-0.0946469 -0.0031173 -0.527808 
-0.0148559 -0.0470158 -0.186558 
7.91074e-19 7.81946e-18 1 

-0.0623897 0.0188593 -0.0211663 
-0.0285372 -0.0912458 -0.0711614 
-6.46201e-18 -1.80153e-18 1 

-0.273596 -0.309757 -0.684302 
0.0281292 0.0866043 -0.229507 
-4.476e-18 -1.98376e-17 1 

-0.097561 0.0898395 -0.608756 
-0.077556 -0.039084 0.229806 
1.0018e-17 -5.19861e-18 1 

-0.205554 -0.051993 -0.0152818 
0.0685684 -0.0130573 0.370251 
9.20966e-18 6.30989e-18 1 

-0.11865 -0.00464056 0.157126 
0.05091 -0.0565309 0.0393313 
-1.8939e-17 -1.16907e-18 1 

-0.426903 -0.162989 0.769791 
0.250074 0.0319593 0.0160419 
-4.38995e-18 9.83349e-19 1 

-0.0486712 -0.0442749 0.0470422 
0.0466714 -0.0195437 0.015321 
5.98854e-18 -1.34226e-17 1 

-0.049774 0.00101657 -0.0640113 
0.00189972 -0.0347946 0.126993 
8.83135e-18 6.3192e-18 1 

-0.113833 -0.0197225 -0.187352 
-0.0365086 -0.015384 -0.051346 
-3.24074e-18 5.53991e-18 1 

-0.134266 -0.0108705 -0.259834 
-0.0323054 -0.0177065 -0.338116 
1.22794e-18 1.76635e-17 1 

-0.364776 -0.172683 -0.366063 
0.00707067 0.223236 0.100314 
6.12019e-18 -2.07969e-17 1 

-0.451511 7.44933 0.899318 
0.00631287 0.192523 -0.0567228 
-1.67345e-18 1.38999e-16 1 

-0.0886889 0.000845547 0.054272 
0.0530339 -0.0706777 -0.0635417 
9.72087e-19 2.09766e-18 1 

-0.116688 0.0302198 -0.0917471 
-0.00232978 -0.0480977 -0.051985 
-5.15283e-18 -8.00604e-18 1 

-0.103141 0.0108192 -0.165087 
0.0154742 -0.0797876 -0.0627406 
-5.18518e-18 -1.17635e-17 1 

-0.0910324 -0.0292208 0.191866 
-0.0209505 -0.0511346 -0.0832759 
8.70159e-18 5.17952e-19 1 

-0.0972764 -0.0250639 -0.0383017 
0.0438957 -0.0574465 0.230949 
1.71679e-18 -6.05394e-18 1 

-0.245593 -0.176224 0.786721 
0.109706 0.0186881 0.942898 
-8.09596e-18 -5.58089e-18 1 

-0.105319 -0.00918409 -0.0589907 
0.0215199 -0.0203823 0.135641 
-9.10099e-18 -7.16461e-18 1 

-0.0842128 0.0333888 0.330679 
0.0084574 -0.00293299 -0.0844893 
5.38244e-18 -1.30801e-17 1 

-0.111113 0.102473 -0.0909374 
0.000752269 0.0923635 -0.330017 
-9.74817e-18 -7.51166e-18 1 

-0.0986574 0.0281831 0.0334803 
-0.0271958 -0.0466224 -0.0982331 
-7.54618e-18 7.88466e-18 1 

-0.493011 0.264037 0.0871158 
-0.0939828 0.133662 0.43161 
1.1294e-17 1.0498e-17 1 

-0.28745 -0.13811 0.056729 
-0.0435619 0.076158 -0.0914455 
-3.82257e-18 -7.22814e-19 1 

-0.0419737 0.0169224 -0.0917127 
-0.0378128 -0.0549576 0.0533591 
-7.94287e-19 5.10081e-18 1 

-0.0759676 -0.0160522 -1.32486 
0.000857412 -0.0314432 -0.0924432 
-6.77646e-19 4.5885e-18 1 

-0.134979 -0.0114847 -0.168982 
-0.0108407 -0.0143197 0.0194161 
6.82683e-19 -2.85264e-18 1 

-0.0872252 0.00505361 -1.86389 
-0.00299322 -0.0430894 0.836513 
-1.23454e-18 8.73557e-18 1 

-0.0790189 -0.0116619 0.0787444 
-0.00532 -0.0443378 0.101847 
2.59563e-18 1.02741e-17 1 

-0.0917358 -0.0202124 0.0236331 
0.0184596 -0.0823851 0.285176 
-1.45483e-18 1.63775e-17 1 

-0.104159 -0.00418917 0.212875 
0.0345956 -0.0503456 0.0432811 
1.45669e-18 -4.39607e-18 1 

-0.834381 -0.314396 -0.222705 
0.158349 0.358476 -0.378059 
-1.94943e-17 6.89301e-18 1 

-0.0748841 -0.00527041 -0.235504 
-0.0172641 -0.0116591 0.452202 
-2.26479e-18 -8.8382e-19 1 

-0.109586 0.0360533 0.0932374 
0.0215718 -0.0992752 -0.0259706 
9.27571e-20 -1.34034e-17 1 

-0.119861 0.0157648 -0.359788 
0.0123219 -0.0657869 -0.0726151 
-2.20917e-19 -2.22758e-18 1 

-0.103285 0.0312149 1.52841 
0.0327147 -0.0277086 1.03427 
1.5213e-18 1.4606e-18 1 

-0.0806252 0.0111225 -0.0333197 
-0.00301815 -0.0455195 -1.47231 
3.07666e-19 3.95139e-19 1 

-0.0686655 0.0315979 -0.0185153 
-0.00326939 -0.118898 -0.0175376 
-7.63803e-18 -8.30543e-18 1 

-0.147873 -0.0150645 0.641093 
0.0348176 -0.00122734 0.127048 
5.30591e-18 4.92631e-18 1 

-0.122379 0.0150823 -0.00385383 
-0.0182466 -0.0403656 0.146681 
-6.62697e-18 -2.01408e-18 1 

-0.0862323 -0.0128517 -0.478848 
0.00587193 -0.0109513 0.177304 
1.61865e-18 -6.10107e-19 1 

-0.0698611 0.064386 0.00954403 
-0.0639383 -0.01014 0.0888629 
-2.95428e-18 1.7001e-18 1 

-0.0760806 0.0222254 -0.0353026 
0.0490782 -0.0541173 -0.0555965 
-1.23288e-17 -1.75454e-18 1 

-0.131077 0.0371966 0.116368 
0.025547 -0.0273659 -0.0697697 
-1.33172e-17 -8.12728e-18 1 

-0.115607 0.0443943 -0.0110211 
0.00796289 0.00265244 0.183301 
-1.05286e-17 -1.89319e-18 1 

-0.194315 0.0997155 -0.258493 
-0.00331126 -0.064829 -0.066414 
1.28419e-17 -4.4635e-18 1 

-0.293726 0.116772 -0.0479391 
-0.11216 0.0105632 0.73393 
-3.70001e-18 9.36868e-18 1 

-0.061223 -0.00143799 0.0427939 
-0.0477245 -0.0135626 -0.117521 
3.41799e-18 -4.32658e-19 1 

-0.0844191 0.0213084 0.0218571 
-0.0314083 -0.0420652 0.117839 
-4.77549e-18 -6.70019e-18 1 

-0.0771281 0.000712787 0.690607 
-0.0121044 -0.0625959 -0.365183 
4.90883e-18 -2.08762e-18 1 

-0.0814011 0.035074 -0.201178 
-0.0201564 -0.125716 -0.0820202 
9.13071e-18 -1.07477e-17 1 

-0.123002 -0.0120168 0.0284597 
0.0140547 -0.0319658 -0.0585224 
-5.91129e-18 -3.52988e-18 1 

-0.132854 0.0478384 0.126029 
-0.0550375 0.0218304 -0.0779533 
6.47457e-18 2.34282e-17 1 

-0.0723534 -0.05483 0.0405827 
0.00343587 -0.0309475 -0.184961 
-1.32468e-17 4.53386e-19 1 

-0.0892691 0.0263203 0.0227917 
0.00396939 -0.0373671 -0.326935 
-9.51006e-18 7.39671e-18 1 

-0.100005 -0.0282134 -0.220068 
0.0281728 0.00406844 0.0274198 
-5.00421e-18 1.01088e-17 1 

-0.208903 0.0352709 0.346395 
0.0102268 0.0967787 0.288513 
-2.04825e-18 5.67704e-18 1 

-0.100808 0.0120292 -0.27157 
-0.018742 -0.0309345 -0.0578715 
7.28826e-18 3.62636e-18 1 

-0.321544 0.325205 -0.328656 
0.102817 -0.0160832 -0.238054 
-4.33059e-18 -6.75872e-18 1 

-0.109907 0.0173718 -0.326332 
-0.0399569 -0.000960699 -0.141726 
6.87616e-18 -6.85402e-19 1 

-0.0635224 0.0120081 -0.140793 
-0.0184404 -0.0200718 0.1955 
4.28807e-18 -1.00441e-18 1 

-0.152711 -0.00972431 0.0934026 
0.0354649 0.0040406 -0.0146008 
4.5224e-18 -4.94114e-18 1 

-0.0897762 -0.0172519 0.0880284 
-0.000449721 -0.0492208 0.261331 
4.5641e-18 1.03669e-17 1 

-0.101295 -0.072423 -0.0335136 
0.0569555 -0.05727 0.137913 
-1.07582e-17 3.8441e-18 1 

-0.0603114 -0.0445499 0.0150213 
-0.0160429 -0.0790254 -0.0626901 
3.62219e-18 -1.58781e-17 1 

-0.128217 -0.0378066 -0.0178946 
0.036572 -0.0442803 -0.105496 
5.12055e-19 5.87914e-18 1 

-0.0589093 -0.0417707 0.0356999 
0.0759521 -0.0246309 0.0475563 
-9.63589e-19 5.50622e-18 1 

-0.0837775 -0.0225625 0.0936843 
-0.0183673 -0.0399644 -0.119681 
1.83979e-19 1.05131e-19 1 

-0.054485 -0.0315579 -0.108353 
0.0312751 -0.0257029 0.012405 
2.37268e-18 2.12743e-17 1 

-0.0558611 0.028639 -0.164088 
-0.0162464 -0.0270379 0.0539296 
-1.46197e-18 -1.6374e-17 1 

-0.389457 -0.307586 -0.938159 
0.0856301 0.171122 0.535253 
-7.96403e-19 7.05148e-19 1 

-0.394792 -0.099399 0.541433 
-0.136403 0.00260918 0.481188 
1.81831e-17 -1.33111e-17 1 

-0.0741948 0.012551 0.284613 
-0.0470625 -0.116554 -0.103547 
5.81445e-18 1.03368e-17 1 

-0.0979238 0.0346675 -0.0827254 
-0.0419877 -0.0474383 -0.375069 
-7.21737e-18 6.8327e-18 1 

-0.0727551 0.00741484 0.150069 
-0.0408495 -0.0257347 0.046726 
-1.42169e-17 -2.63805e-18 1 

-0.0811851 -0.0416214 -0.00201617 
0.00773234 -0.0132904 0.0125527 
4.01573e-18 -3.31602e-18 1 

-0.158911 0.0384683 0.0844299 
0.00771938 -0.0367366 0.12296 
2.79731e-18 6.57594e-18 1 

-0.0968319 -0.0484926 0.580195 
0.0205408 -0.0513842 0.0243452 
-8.54263e-18 1.16706e-18 1 

-0.0731648 -0.00313123 0.215644 
0.00764538 -0.0373977 0.00160528 
-9.85611e-19 -2.27923e-18 1 

-0.0701406 -0.0244503 0.156619 
-0.00116175 -0.0653487 0.00696544 
-6.27822e-19 -4.31426e-18 1 

-0.133645 -0.0104279 -1.00839 
-0.0107663 -0.00862856 -1.98465 
-5.42385e-19 -2.2279e-18 1 

-0.13387 -0.021511 0.918897 
0.0423267 -0.0147212 -0.540267 
6.78195e-19 -1.08787e-18 1 

-0.101241 -0.0382265 0.0951728 
-0.0117276 -0.0257474 -0.048558 
2.84945e-18 9.46693e-19 1 

-0.135968 0.0453278 -1.7301 
0.0554267 0.0749855 -1.00807 
-6.19704e-18 6.79224e-18 1 

-0.206915 0.115665 -1.07571 
-0.0127556 -0.14401 0.566442 
-1.34833e-17 6.28254e-18 1 

-0.123853 0.00783084 0.284791 
-0.00995692 0.00538035 0.960876 
-1.4298e-18 -4.78133e-18 1 

-0.146273 0.0116267 -0.017226 
-0.0131179 -0.0475054 -0.115156 
-2.39089e-18 -1.53017e-18 1 

-0.0889201 -0.0597089 0.501067 
0.0311683 -0.0316988 -0.0223134 
1.9411e-18 -1.58714e-17 1 

-0.112493 0.00219456 1.68569 
-0.00621575 -0.0362879 0.457856 
2.26917e-18 2.06687e-18 1 

-0.132435 -0.0429258 0.0484884 
0.046545 -0.0586002 0.363801 
5.78819e-18 -4.8977e-18 1 

-0.715334 -0.171063 -0.231938 
0.348481 0.136417 -0.00727177 
1.59011e-18 -7.95054e-20 1 

-0.0898152 0.0190295 -0.0269843 
0.0191688 -0.0449138 0.0542668 
7.83361e-18 2.76974e-18 1 

-0.083284 -0.00146089 -0.0957289 
-0.0234169 -0.0205388 0.084641 
-2.73775e-19 -1.43205e-17 1 

-0.0402175 -0.0612554 -0.0316747 
0.00395323 -0.0999723 0.114191 
-1.6703e-17 -5.03873e-18 1 

-0.0885627 0.0134681 -0.193451 
-0.0120176 -0.0854926 0.212178 
-4.75004e-18 3.32746e-18 1 

-0.0726347 0.00196419 -0.0509798 
0.000257851 -0.0555102 0.0168601 
1.82053e-18 1.97481e-18 1 

-0.0558877 0.00122014 -0.153772 
0.0160141 -0.021451 -0.0577803 
2.73394e-19 -6.36568e-18 1 

-0.105563 0.0143813 0.31983 
0.00128902 -0.0297346 0.0948634 
-4.23213e-18 -4.60337e-18 1 

-0.133404 -0.0419629 -0.264304 
-0.00090102 -0.00890715 0.230149 
-7.5303e-18 1.6925e-18 1 

-0.100666 0.0415343 -0.107633 
-0.0667914 -0.0240182 -0.0152527 
5.43193e-19 1.13143e-17 1 

-0.12096 -0.00289703 0.0843261 
-0.0419151 -0.0773638 0.11513 
-1.67536e-18 -5.36116e-18 1 

-0.156975 -0.0443958 -0.161009 
0.0523855 -0.00677391 -0.087446 
3.92545e-18 9.07651e-18 1 

-0.101386 -0.0200606 -0.00946766 
0.0043635 -0.051585 -0.140174 
-3.45952e-18 -5.18928e-18 1 

-0.147265 -0.0353724 0.141333 
-0.0151256 0.0305498 0.195277 
7.40809e-18 -8.89965e-18 1 

-0.116337 0.0730336 -0.0398628 
-0.0325327 -0.0859198 -0.0507423 
8.45569e-18 -4.88063e-18 1 

-0.0612433 -0.023512 -0.0799373 
-0.0369867 -0.0629726 -0.0740471 
-7.43414e-19 9.66439e-18 1 

-0.119953 0.0354282 0.135966 
-0.137542 -0.0633858 -0.0904895 
7.04902e-18 -1.17484e-18 1 

-0.0591058 -0.00845339 -0.0196702 
-0.0301968 -0.0596603 0.00772422 
3.52565e-18 -4.3184e-18 1 

-0.0814819 0.00564923 -0.167444 
0.0136734 -0.0678589 1.00847 
-3.25899e-18 8.74536e-18 1 

-0.182389 -0.0398784 0.00992318 
0.115541 0.0330879 -0.238022 
7.67911e-18 -6.87287e-19 1 

-0.111861 -0.00792514 0.1138 
-0.061528 -0.0524687 0.13359 
2.6086e-19 4.17376e-18 1 

-0.125239 -0.0122752 0.252166 
-0.0231388 -0.0247211 -0.13128 
1.59432e-18 2.70256e-18 1 

-0.209087 -0.0479537 0.0630862 
0.137196 0.0632813 -0.169794 
3.69474e-18 -1.56819e-18 1 

-0.0682179 0.0312066 -0.365931 
-0.000848013 -0.0780903 0.0373912 
-5.58949e-18 -2.11216e-18 1 

-0.196719 0.0714593 0.0463686 
0.0222982 -0.0493186 -0.722482 
-3.55877e-18 -1.16601e-17 1 

-0.0990345 -0.0380482 -0.0147897 
0.0693316 -0.0368669 0.0167833 
2.10739e-18 1.00023e-17 1 

-0.104543 -0.0935905 -0.116306 
0.0652247 -0.0647871 -0.0920445 
9.62186e-18 -6.72395e-18 1 

-0.22921 -0.0651207 -0.493931 
0.0479899 -0.0475118 0.227163 
-3.09057e-18 -9.26543e-19 1 

-0.193473 0.0151125 0.592424 
-0.0555857 0.0591357 0.16909 
6.53022e-18 -1.84805e-17 1 

-0.197931 0.126766 -0.987173 
-0.192324 0.00630718 -1.12017 
-8.23971e-18 -7.28228e-18 1 

-0.107882 0.0142549 0.0828171 
-0.0195949 0.0179403 -0.206209 
-1.43336e-19 6.88011e-18 1 

-0.0954456 0.0813176 0.0304615 
-0.0762351 -0.0584376 -0.195537 
1.05208e-17 6.4482e-18 1 

-0.0526503 0.0028567 -0.141575 
-0.0196841 0.0488485 -0.1947 
-6.4844e-18 5.47121e-18 1 

-0.0902775 -0.0408921 -0.073975 
-0.0488336 -0.0689928 0.290605 
-1.08794e-18 -6.24382e-18 1 

-0.138736 0.0504257 -0.037448 
-0.00760173 -0.00482308 0.200601 
-5.41471e-18 -4.73089e-19 1 

-0.147985 0.0172516 0.0737885 
-0.0599311 -0.00250999 0.148023 
4.7066e-18 1.03361e-17 1 

-0.0803161 0.0153998 0.0145212 
0.0194478 -0.0197276 -0.0563089 
-1.21106e-17 1.20188e-17 1 

-0.196744 -0.0112286 -0.261296 
0.0663658 -0.0824358 0.229584 
2.48028e-18 -4.99758e-19 1 

-0.188369 -0.137813 -0.329933 
-0.0304159 0.0725423 0.231386 
8.07267e-19 -1.7475e-17 1 

-0.119264 0.0107053 0.0916124 
0.0269083 -0.0527169 -0.00807496 
1.16884e-17 -2.78807e-18 1 

-0.0765206 -0.00194836 -0.100163 
-0.0333781 -0.0548778 -0.169671 
4.17348e-18 3.8588e-18 1 

-0.0663205 -0.0246063 0.0243732 
0.0172302 -0.0459237 0.667558 
3.32448e-18 1.3552e-18 1 

-0.0674688 0.010546 -0.389494 
0.00293927 -0.00909929 0.0103135 
1.31975e-18 9.87753e-19 1 

-0.223206 -0.113253 0.274464 
0.150361 0.00419952 -0.34871 
-1.13768e-17 1.0715e-17 1 

-0.0647403 0.0256353 0.156308 
-0.00330794 0.0374777 0.153005 
-2.50609e-19 -1.81691e-18 1 

-0.066012 0.0308885 0.18223 
-0.0503164 -0.0443911 0.132539 
2.26424e-18 -2.88691e-18 1 

-0.117566 -0.0238205 0.0123593 
0.0301144 -0.0439167 -0.578241 
2.54998e-18 -8.9023e-19 1 

-0.0445045 0.0577886 0.0977918 
-0.0166727 -0.0324874 0.120414 
-3.50964e-18 -1.24098e-18 1 

-0.0745807 0.00315809 -1.65396 
-0.0136367 -0.0331375 -1.76307 
-1.69365e-18 1.99823e-18 1 

-0.137889 0.025331 0.215772 
0.00898387 -0.0287048 -0.231656 
6.58931e-19 1.05429e-17 1 

-0.0737152 -0.0357649 -0.253914 
0.0152062 -0.0405302 0.046404 