# vtk DataFile Version 3.0
Output file generated by Yade's KinematicLocalisationAnalyser
ASCII
DATASET UNSTRUCTURED_GRID

POINTS 13483 float
614.388 28.1145 0.578822
763.525 69.0052 0.474471
119.801 6.06308 -0.475952
794.57 8.00559 -0.27913
502.641 7.90638 0.276517
315.837 35.1232 -0.469494
156.583 6.98355 0.434621
575.996 10.3041 0.152508
499.054 23.8448 -0.198456
730.111 12.1597 0.544769
210.726 8.82618 0.122478
257.738 6.30261 -0.257462
662.141 32.3376 -0.204625
642.102 14.9165 -0.17444
137.118 17.2642 0.424994
221.711 34.6986 0.407358
218.069 12.9871 -0.287272
289.837 9.70052 0.3975
342.487 32.7734 -0.48055
527.834 8.58845 0.34895
412.821 36.8619 0.0981389
597.996 46.5406 0.279898
791.917 39.5445 -0.476726
708.037 46.0754 -0.479112
461.461 16.3301 -0.358249
241.528 44.3163 0.138325
493.985 27.8694 -0.493662
593.161 20.3399 0.233059
44.9917 15.9507 -0.390544
726.162 29.844 0.547868
485.367 4.98623 0.314907
16.3469 23.3866 0.323412
776.639 72.218 0.254846
498.548 2.61305 0.477243
78.0843 44.7925 -0.10028
525.498 30.756 0.388545
534.556 16.6262 0.42988
345.349 22.6612 -0.228985
537.874 25.5411 -0.314993
351.871 33.5132 0.476016
241.664 14.6944 -0.30528
436.57 35.6971 0.079455
684.908 7.0677 0.159128
192.808 6.25497 0.3442
55.237 7.06702 -0.131679
68.5104 8.98133 -0.298156
699.851 9.9395 -0.668757
23.3798 12.0405 -0.307415
618.027 45.9381 0.453851
688.239 26.7528 0.391075
172.708 32.4996 0.32278
763.233 53.4178 -0.121497
34.7138 28.475 0.125626
538.357 3.0017 0.322197
142.151 7.42757 -0.510367
601.981 33.8845 0.493529
507.443 27.2377 -0.17267
175.271 0.935509 -0.271883
32.5212 2.36437 -0.313119
350.414 17.9216 0.274318
627.885 50.2287 0.137106
464.695 33.844 -0.184828
401.619 1.02634 0.200799
710.553 9.35627 -0.37563
26.5943 43.5808 -0.234884
257.171 30.7107 0.284887
731.28 7.01184 0.497876
680.1 51.0439 0.402097
419.994 8.7254 -0.502601
576.789 3.67177 -0.351383
750.873 39.4864 -0.477145
130.78 7.72597 0.282726
501.62 26.2216 0.165809
481.038 14.9575 -0.165701
296.025 16.7479 -0.347289
20.4546 13.9056 0.29669
786.758 65.707 0.32666
334.624 39.0377 -0.299461
685.677 22.1087 -0.379575
700.285 13.5254 -0.229115
785.605 13.6891 -0.33062
468.142 34.6902 0.184122
92.5044 38.9703 0.299665
695.327 38.0242 -0.230991
658.22 40.8773 0.100847
798.83 49.4579 -0.131037
778.996 2.76755 -0.677973
292.775 28.8168 0.458465
631.433 6.79287 -0.123348
24.4336 5.60833 -0.605009
133.636 38.33 -0.158101
517.454 15.0399 0.216563
783.447 52.7597 -0.510036
196.345 29.0344 0.227857
44.2399 34.7037 0.300463
497.413 1.37503 0.132976
237.04 8.94235 -0.379761
747.198 52.3938 -0.294581
770.787 47.9118 0.256885
363.995 21.1127 -0.268919
164.46 26.936 -0.476869
556.679 38.5144 0.431017
383.034 15.7085 -0.450669
417.001 29.8676 -0.0904911
381.09 4.52682 0.411322
554.628 10.989 -0.0938474
799.154 13.1363 -0.196405
80.4145 39.7005 -0.413362
338.076 5.00051 -0.210732
569.371 9.61352 -0.362335
363.262 43.9104 0.451939
25.5403 25.2029 -0.514506
30.3306 5.8401 -0.309637
577.702 32.4836 -0.292879
510.31 24.8032 0.138428
26.0966 37.3267 0.426444
93.3296 30.9089 0.248059
327.907 16.0532 -0.276622
611.005 18.7165 -0.1907
480.231 38.1961 0.317
747.862 8.51687 -0.402788
739.871 6.16355 -0.252862
390.905 37.2539 0.095803
646.632 27.4561 0.184807
240.156 17.1248 0.48896
333.47 3.8918 0.455856
103.901 31.7424 0.385921
116.966 24.5997 -0.296034
551.907 38.7588 -0.0947318
309.21 18.9515 0.45932
722.395 36.0076 -0.116489
684.417 49.9185 -0.122695
486.452 20.7064 -0.427065
781.655 35.4688 0.294636
433.788 23.5075 -0.252588
279.435 24.4353 0.294773
686.771 33.4131 0.331528
281.758 28.4711 -0.440437
587.456 12.444 -0.200848
335.767 35.7754 0.210471
511.725 11.5513 0.483065
371.041 31.6762 0.0970664
435.749 16.8749 -0.102068
321.895 42.1597 0.430346
192.572 29.9814 0.137587
767.623 66.3985 -0.146921
796.996 15.491 -0.243567
6.05824 12.3825 -0.491311
439.915 22.5304 -0.43309
38.3219 22.8972 -0.0943475
381.264 31.3447 -0.331683
400.289 25.0666 0.260756
75.6268 12.0591 0.500959
52.1105 33.415 0.428904
228.457 13.5449 0.421339
629.812 40.1735 0.433881
589.668 21.5393 -0.514766
75.5799 21.0179 0.472856
710.71 48.9989 -0.473138
762.101 2.90867 0.63267
674.001 44.9058 -0.4831
706.629 2.44999 -0.459114
560.865 26.6855 0.424814
599.603 46.783 -0.456088
520.834 18.4903 -0.434134
793.555 4.43474 0.279478
226.285 24.9117 0.154369
129.143 35.26 0.200514
250.591 6.49432 0.389579
95.1425 4.47001 0.277587
64.823 10.2186 0.215917
279.778 36.0208 0.331729
16.4448 25.2688 0.412822
567.014 19.5385 -0.408221
618.024 41.0425 0.186561
470.309 21.2705 -0.382506
797.629 73.4014 0.353286
413.101 8.72025 -0.110725
443.086 36.4022 -0.386975
546.969 3.41575 -0.193079
22.7119 24.2996 -0.389188
589.821 4.5547 0.472472
556.916 4.3592 -0.310252
208.96 11.3195 0.488419
431.963 16.703 -0.20973
316.254 6.3201 0.364919
394.486 19.164 -0.321838
737.214 45.8595 0.135215
194.823 25.9207 -0.447528
771.205 11.627 -0.436251
739.154 42.2798 0.375741
389.691 10.2934 -0.155522
728.211 2.35658 0.492534
618.208 25.9732 -0.493872
750.422 20.9254 -0.411798
437.859 43.5113 0.26351
506.091 12.8953 0.383071
473.176 44.3428 -0.229848
453.343 8.6216 0.124975
677.79 44.5914 0.267173
675.371 40.2163 0.303917
195.072 39.1795 -0.281103
783.632 13.1421 -0.310031
601.801 47.0665 -0.243018
11.2686 16.9816 0.249729
414.474 25.4005 0.389329
189.914 23.3681 0.400596
94.1779 39.7909 -0.209238
782.533 49.4984 -0.46649
671.133 49.7094 0.239232
324.609 25.6291 -0.382216
543.845 10.2652 0.314049
83.3084 44.9826 -0.176512
251.683 25.9 -0.476534
569.679 23.8498 0.387097
496.187 18.9944 0.380423
267.162 0.886759 -0.345862
566.144 39.8646 -0.382455
545.261 40.9255 -0.473232
490.802 33.4541 -0.327803
509.619 1.6671 -0.664692
715.443 19.5646 0.499007
182.127 12.4015 -0.203346
510.362 36.9665 0.463349
578.484 40.1588 0.131589
73.8508 0.972845 0.276543
255.94 4.72225 0.185453
795.182 19.0909 0.155465
784.932 15.5815 -0.530104
800.016 20.7816 -0.702824
308.792 8.60873 -0.232176
754.03 29.8768 0.406779
414.61 41.6338 -0.311189
457.585 0.802595 -0.410489
663.28 39.5756 0.436356
27.243 31.0999 0.321512
336.644 41.7165 0.580316
256.792 2.85982 0.340618
781.194 70.1622 -0.188451
717.967 56.6259 -0.217897
292.381 11.0428 0.244456
681.151 33.1837 -0.105882
571.279 2.56732 0.270555
554.673 6.50762 0.436915
98.0009 18.6087 -0.504255
308.67 1.03769 -0.227627
349.387 2.24604 -0.371121
14.1179 7.62073 -0.45195
4.49472 31.2013 -0.278105
164.208 19.0324 0.387105
69.0029 42.0442 0.218256
67.4867 29.1379 0.370634
431.569 14.7971 -0.431532
373.996 35.1575 0.476778
760.31 54.9701 0.142972
19.923 4.12547 0.271269
71.582 6.99348 0.132864
638.038 39.9472 -0.164325
299.943 0.920242 0.370075
371.964 16.3351 -0.0953285
239.599 4.71306 -0.388417
668.501 24.3706 -0.250243
460.783 8.34128 0.43224
757.329 28.8883 -0.428044
645.465 30.7525 0.337801
684.488 20.4587 -0.164092
428.612 26.7511 0.551714
103.712 45.2651 -0.30524
555.559 42.3033 0.076276
751.799 15.2424 0.216367
242.051 30.6041 -0.263681
32.2818 17.4669 -0.208219
342.907 13.8354 0.51479
109.188 40.8164 -0.406076
272.636 42.3401 -0.215264
433.976 1.65319 -0.337788
786.928 59.6575 0.383368
700.274 0.734818 0.480364
338.585 3.45396 0.567443
305.797 26.5284 -0.15553
472.066 41.2018 0.229064
82.7409 8.27097 0.468457
201.271 45.3764 0.377601
772.186 51.281 0.364303
505.505 39.4598 -0.0858203
203.683 41.4271 -0.286885
163.327 42.5184 0.374843
802.474 44.268 -0.423172
798.577 14.8946 -0.663339
622.522 3.11263 -0.632094
193.518 24.7935 0.116861
562.673 27.615 0.113765
564.693 27.4011 -0.274564
417.674 5.74522 -0.135531
492.435 0.921049 -0.312359
758.313 58.2541 -0.51978
86.1718 31.2756 0.212046
673.499 21.3378 0.4266
279.594 15.6079 -0.35973
9.75016 2.34548 0.345767
127.721 37.0791 0.188092
68.0809 23.4433 0.520725
716.618 37.9852 0.332842
782.783 78.1046 0.179561
188.755 28.6688 -0.19586
792.331 16.9092 0.460916
45.6201 36.8314 -0.270521
92.2616 29.2855 -0.171302
650.93 13.1179 0.611421
422.06 18.73 -0.527479
531.242 16.6179 0.121667
242.562 28.5864 -0.184189
638.443 4.16483 -0.506025
799.873 14.9655 0.365951
29.9132 32.1079 0.29541
275.407 7.75164 0.196315
226.138 15.2117 0.253553
1.07083 35.7233 0.144712
229.457 14.5722 -0.376261
215.601 11.0946 -0.102933
218.285 26.4668 -0.265276
135.397 27.8549 -0.138594
561.289 15.111 -0.358786
170.094 14.266 -0.35504
775.334 69.0363 0.231453
177.286 3.79782 0.513858
47.8639 37.8378 -0.43956
738.328 55.3227 -0.426371
286.746 31.3847 -0.378548
692.695 25.2066 -0.525134
793.341 61.3611 0.449439
306.834 9.22193 -0.106489
742.945 33.7801 -0.012978
335.528 2.51371 -0.424372
425.015 24.33 0.346241
687.698 16.2382 0.430291
107.072 12.0218 -0.476757
494.139 3.81221 -0.535292
761.48 29.1409 -0.211288
89.5999 7.73641 -0.235205
287.337 14.8142 0.197882
432.311 12.0086 -0.206071
792.998 2.62956 0.465046
406.579 1.9947 -0.533123
180.015 39.0595 -0.316685
754.545 13.3655 -0.412211
131.002 36.3432 0.178588
268.263 31.4704 -0.396239
409.121 21.8554 0.22162
589.807 14.4433 -0.3011
395.526 9.81828 -0.501679
466.574 27.8481 -0.338115
764.037 67.8186 -0.369285
48.0849 11.4947 -0.16143
305.563 38.6274 -0.256487
387.86 27.1494 0.345126
418.602 21.2397 0.250487
533.98 45.0811 0.356473
755.834 53.4174 0.19324
680.347 39.9106 0.373633
230.121 34.3715 -0.384386
13.8594 31.9177 0.182167
673.631 41.2461 0.123622
520.959 41.6644 0.450769
234.083 39.38 -0.0917652
699.294 34.7092 -0.16758
153.829 9.32696 0.219149
374.453 21.5391 0.345052
473.858 42.277 0.104359
423.02 20.05 0.237308
759.734 72.4188 0.293169
435.402 3.90094 0.526581
50.4259 25.2869 0.245955
480.578 31.895 0.349155
444.197 42.9034 -0.375862
780.381 62.9584 -0.240363
741.17 31.3957 -0.305415
554.866 18.4881 -0.196308
773.118 60.6857 0.438199
299.506 2.20502 -0.464725
386.552 29.5946 0.504434
29.3084 39.1661 -0.322563
744.52 36.8013 -0.139937
626.291 20.002 0.553744
473.6 0.77527 -0.471296
128.206 4.57849 0.26858
436.13 40.1985 0.122
12.2379 0.897962 -0.316606
790.685 6.8905 -0.1175
378.219 39.3875 -0.435973
627.781 7.81028 -0.363695
[...]
POINT_DATA 13483
TENSORS Strain_matrix float
-0.32188 -0.0327687 0.941222 
0.0510194 0.121909 -4.4634 
-1.2308e-17 -1.83265e-17 1 

-0.62216 -0.355501 11.9303 
0.200299 0.444209 3.74103 
1.24428e-17 -1.13413e-18 1 

-0.125394 0.00700013 -0.521223 
0.00780721 -0.0317135 -0.0386437 
-1.938e-17 9.14511e-20 1 

-1.0213 -0.285324 -2.68763 
0.0785644 0.459927 0.518921 
6.83766e-18 7.04309e-18 1 

-0.315546 -0.059622 0.0844559 
-0.0335675 0.0215623 -0.31995 
-4.39065e-18 1.04628e-17 1 

-0.106874 -0.0335138 -0.347614 
0.0215158 -0.0152611 -0.142155 
1.26292e-18 -1.02164e-17 1 

-0.104008 -0.0500765 0.0660613 
0.0234699 -0.0818457 0.0539022 
-9.06395e-18 -2.26599e-18 1 

-0.102383 0.01261 -0.0902449 
0.0258925 -0.0578761 -0.0351112 
-4.38975e-18 -1.14088e-17 1 

-0.15103 -0.0537127 -0.00150849 
0.0555328 0.0215333 0.289126 
-4.85701e-18 7.0955e-18 1 

-0.371968 -0.0188479 0.535197 
0.0745398 -0.0707555 -0.168651 
3.72014e-18 -1.96702e-17 1 

-0.0838026 0.0321375 -0.059637 
0.0143997 -0.0756881 0.0931655 
4.05955e-18 -6.05243e-18 1 

-0.108995 -0.0601268 0.208075 
-0.048666 -0.094535 0.0640692 
1.04245e-17 -6.10601e-18 1 

-0.452339 -0.103687 1.06809 
0.125495 0.185185 -0.23839 
-5.97938e-19 -4.46081e-18 1 

-0.336684 0.00629694 0.268902 
0.0153954 0.0313861 -0.0974789 
9.17782e-19 -3.67113e-18 1 

-0.153839 -0.0182475 -0.250927 
-0.00939833 -0.0381323 -0.408125 
5.80895e-19 -1.27797e-18 1 

-0.109154 -0.0314376 0.527767 
-0.0434221 -0.0220191 0.0245705 
-6.12579e-18 5.42388e-19 1 

-0.0839247 -0.0436274 0.0621812 
0.017065 -0.102565 -0.0332242 
-1.23483e-18 2.99061e-18 1 

-0.168323 -0.014307 -0.0263402 
0.00716986 -0.0691454 -0.0212585 
-8.26574e-19 -1.37762e-18 1 

-0.2335 0.0105206 0.401676 
0.00860871 0.00583285 1.22496 
5.48017e-18 -3.97954e-18 1 

-0.104509 0.01856 0.191972 
-0.106795 -0.054065 0.554468 
7.2391e-19 -1.62833e-17 1 

-0.0723425 -0.0588666 0.0987435 
0.144516 -0.0336716 0.00654089 
-7.94709e-18 -7.33456e-18 1 

-0.171851 -0.0348712 -0.38765 
-0.0703171 0.0263299 0.178692 
4.18915e-18 -1.01555e-17 1 

-3.0476 -0.712307 -3.64084 
-0.866534 0.184975 -2.00907 
-1.48993e-17 -1.57691e-17 1 

-0.171661 0.0636538 -0.639098 
-0.0903551 -0.0241652 0.0817725 
3.54026e-18 7.77775e-18 1 

-0.126082 -0.068708 0.70163 
0.0236683 -0.0311753 -0.0124734 
-6.73096e-19 7.36285e-18 1 

-0.208661 0.0664868 0.0244418 
-0.0472736 0.0639459 -0.0436029 
-8.83723e-18 1.11262e-17 1 

-0.142671 -0.044139 0.281355 
0.0752232 -0.00275917 -0.440757 
-1.70116e-18 1.4008e-17 1 

-0.140499 -0.0479602 -0.303922 
-0.0340632 -0.0298929 0.0952509 
-1.19593e-17 -1.2038e-17 1 

-0.10842 0.0705911 0.57362 
0.07386 -0.0855565 -0.786632 
-2.16742e-18 -2.65398e-19 1 

-1.00747 -0.248495 1.02127 
0.0955207 0.219246 -1.07632 
1.91292e-18 -7.08551e-18 1 

-0.0895291 -0.00603911 -0.28356 
0.000956374 -0.139828 0.350786 
-1.80006e-18 7.05022e-18 1 

-0.174704 -0.0226065 0.173996 
0.0155835 -0.0147447 0.000892613 
-7.31608e-18 -8.77929e-18 1 

0.0217433 -0.773852 -0.648961 
0.550597 0.259524 -0.910852 
4.0084e-18 -7.92871e-18 1 

-0.165417 0.192153 -0.964439 
-0.0299398 0.134076 -0.639224 
-3.0073e-19 -1.81363e-18 1 

-0.0494689 -0.0145184 0.0846428 
-0.0188983 -0.0530631 0.0664661 
1.73767e-17 -5.98219e-18 1 

-0.168584 -0.0207169 -0.499437 
-0.0329138 0.039312 -0.174995 
4.7187e-18 1.96628e-18 1 

-0.11484 0.0066956 0.0475935 
0.0113083 -0.0294452 -0.142195 
-3.42498e-18 -1.1913e-18 1 

-0.118096 -0.0125619 -0.256629 
-0.0257133 -0.131914 -0.112334 
7.44281e-18 -1.37104e-17 1 

-0.106362 -0.0454772 0.159643 
0.101725 -0.0332902 0.150055 
-7.67231e-19 3.98001e-18 1 

-0.118235 -0.0108477 2.30169 
0.00717362 -0.0175695 2.57522 
7.65067e-18 1.35114e-18 1 

-0.109579 0.00133043 0.0224295 
-0.0704249 -0.0541187 -0.0371904 
-4.56377e-18 1.33769e-17 1 

-0.0700862 -0.0796504 0.164051 
-0.0561755 -0.0812396 0.333586 
7.49699e-18 1.14051e-18 1 

-0.29986 -0.104362 0.114318 
0.00531723 -0.0978305 0.0372026 
6.42542e-19 -3.99294e-18 1 

-0.102584 -0.00314841 0.307574 
0.00527433 -0.0570473 -0.349966 
-1.65763e-20 5.96746e-19 1 

-0.0839937 0.0498438 -0.00136418 
-0.0802331 -0.0901099 0.152852 
9.54043e-18 -1.14447e-18 1 

-0.0944313 0.00179249 -0.0584009 
-0.0136788 -0.0476147 -0.222329 
-1.53594e-18 8.28447e-18 1 

-0.479725 -0.0231426 1.83859 
-0.0786341 0.0209165 2.41552 
-8.24381e-18 -1.17919e-17 1 

-0.0589526 -0.0133612 0.0489291 
0.0241095 -0.149344 -0.00320492 
3.96751e-18 1.99563e-18 1 

-0.207618 -0.163398 -0.314926 
0.188559 0.0254144 -0.298379 
5.29228e-19 2.64614e-17 1 

-0.170176 0.16279 0.405953 
-0.0816123 -0.019022 -0.925287 
5.9519e-19 1.37196e-18 1 

-0.0830095 -0.0819717 -0.258118 
0.0383974 -0.0202793 -0.0942068 
-1.08988e-17 -1.10077e-17 1 

-0.00741349 -0.433894 0.598306 
0.228838 0.025371 0.155544 
2.43864e-17 1.33199e-17 1 

-0.131954 -0.00952757 -0.126039 
0.0181268 -0.000975893 0.160687 
1.7036e-18 2.50545e-18 1 

-0.131937 0.0461985 0.105379 
-0.0195391 -0.0425856 -0.0396701 
1.21211e-17 -2.90905e-18 1 

-0.129324 -0.00138548 -0.744735 
-0.019401 -0.0589984 -1.07119 
1.94202e-18 1.2861e-20 1 

-0.187791 -0.052189 -3.49646 
0.0442637 0.0537481 2.12618 
-3.65415e-18 1.02925e-17 1 

-0.172673 -0.0305649 0.083992 
0.0200056 -0.0228838 -0.106894 
-2.69828e-17 1.72446e-17 1 

-0.112245 -0.625742 0.586993 
-0.0035618 -0.0363333 -0.0847186 
1.59174e-19 -6.69515e-18 1 

-0.0556763 0.0258367 -0.00228538 
-0.0237845 -0.115139 -0.131842 
-1.40797e-17 -1.23806e-18 1 

-0.101513 -0.0569236 -0.257706 
-0.0411932 -0.0482431 0.0344217 
-1.12396e-18 8.07845e-18 1 

-0.209021 -1.39262 -3.37558 
-0.0193846 1.12867 0.687803 
-5.54325e-20 -7.96774e-19 1 

-0.0931502 -0.108155 -0.286758 
0.0607671 -0.00373591 0.107376 
-2.3485e-18 -4.17072e-19 1 

-0.113984 -0.0852707 -0.277782 
-0.0124945 -0.0555895 -0.134461 
-1.02411e-17 -1.49691e-17 1 

-0.282052 0.0389658 0.00623275 
0.14013 0.0442484 0.0884405 
1.39901e-18 7.25411e-19 1 

-0.206782 0.0177276 -0.202441 
-0.0208898 0.0653442 -0.456802 
-5.1759e-18 1.25428e-17 1 

-0.195534 0.0282685 -0.0344398 
-0.0386099 0.0458253 0.263306 
1.96015e-17 3.8503e-18 1 

-0.443689 -0.162668 0.456094 
0.163271 -0.0736752 -0.0277812 
9.05482e-18 9.88427e-18 1 

-0.406463 -0.16268 1.45267 
0.156678 0.175117 -0.318428 
-6.44832e-18 1.34209e-18 1 

-0.132234 0.0023225 -0.0923245 
-0.0558238 -0.0607086 -0.320133 
-1.31741e-18 5.0553e-18 1 

-0.165508 0.0466384 0.0245695 
-0.103456 -0.0824131 -0.246774 
-5.35392e-18 -1.88251e-17 1 

-0.762888 -0.465543 -0.952815 
0.235992 0.38062 0.404591 
-1.05238e-17 -1.91871e-18 1 

-0.0833443 -0.00414144 0.0363411 
-0.00758188 -0.0658573 0.0892658 
-1.93309e-17 -1.34242e-18 1 

-0.142949 -0.0586008 0.177575 
0.050107 -0.0471854 0.154048 
1.54549e-17 -3.22648e-18 1 

-0.100981 -0.0489106 0.291569 
-0.0247956 -0.0568071 -0.435914 
-2.27924e-18 2.56414e-18 1 

-0.107603 0.0072402 -0.526809 
-0.0249577 -0.0424264 -0.187529 
2.73852e-18 -9.78043e-18 1 

-0.0987217 0.0183015 0.257823 
-0.0147817 -0.0698038 0.0504053 
6.93628e-18 3.28168e-18 1 

-0.223022 -0.632974 -1.31281 
0.189357 0.069717 -0.0509296 
-1.07871e-17 -4.67287e-18 1 

-0.137906 0.0574798 -0.667948 
-0.0398005 -0.0330378 0.159625 
1.18554e-18 1.24811e-17 1 

-0.249437 -0.0909442 -0.970017 
0.061464 0.0759108 -0.124555 
-8.27968e-18 -1.99517e-17 1 

-0.23348 0.0865012 0.0692645 
0.0993513 -0.0129219 0.316969 
3.37543e-20 1.75522e-18 1 

-0.478833 -0.399514 0.750828 
0.33244 0.0730638 0.183078 
-6.07317e-18 -1.71668e-17 1 

-0.0952652 -0.0822761 -0.0320484 
0.0419613 0.0047946 0.046648 
-1.27514e-18 2.74646e-18 1 

-0.0747116 -0.00461063 -0.0972231 
0.00789883 -0.0248231 0.0959528 
2.67155e-18 5.48451e-18 1 

-0.321263 -0.298413 0.344702 
0.0519848 0.103636 -0.286099 
-3.92562e-18 -1.54383e-17 1 

-0.268169 -0.396577 -0.648094 
0.0282347 0.0683262 -0.156022 
1.21613e-17 2.46837e-18 1 

-1.11842 -0.496727 -0.35453 
0.164952 0.502551 0.180443 
-7.39976e-18 6.16189e-18 1 

-1.44203 -0.590184 -24.4867 
-0.161902 0.490028 1.27001 
1.58812e-18 1.44408e-18 1 

-0.131855 0.0255099 0.0284003 
0.0142593 -0.0720052 -0.275293 
-7.67889e-18 -8.56008e-18 1 

-0.334408 0.200679 -0.261805 
0.0473428 0.0838716 -0.0629356 
-9.27514e-18 9.843e-18 1 

-0.124044 0.00109576 -4.23049 
0.00557406 -0.0526005 -0.037291 
-4.70124e-18 1.82336e-18 1 

-0.0962421 -0.0534486 0.162442 
-0.0239904 -0.0378845 -0.160036 
-4.39469e-18 -3.05762e-18 1 

-0.197815 0.0531204 -0.142845 
0.0403636 0.00852276 0.163261 
3.7841e-18 -1.70521e-17 1 

-0.457565 -0.286389 8.96806 
0.208065 0.294149 2.26728 
-8.30515e-18 -2.4114e-19 1 

-0.136446 -0.00850411 -0.090847 
0.0100803 -0.0114793 0.0695281 
2.76179e-18 8.98753e-18 1 

-0.113915 0.0475316 0.34222 
0.00650689 0.00838036 0.0258121 
2.11353e-18 1.26245e-17 1 

-0.152478 0.0648058 -0.386695 
0.00582626 0.0121725 0.0506476 
-8.91207e-18 3.11923e-17 1 

-0.124813 0.0255767 -0.000145807 
-0.0305016 -0.0463498 -0.301027 
-3.95989e-18 7.65591e-18 1 

-0.587912 -0.60838 1.75947 
0.315488 0.295802 1.63517 
-1.18169e-17 1.45719e-18 1 

0.00229272 -0.661338 0.0564623 
0.438942 0.144789 -0.0551455 
1.40797e-17 4.28512e-18 1 

-0.0898811 -0.0121894 0.134053 
-0.0262376 -0.0472925 -0.0794461 
-1.39119e-18 9.52093e-18 1 

-0.0990065 -0.0292585 -1.90691 
0.0155991 -0.0276777 -1.54632 
-6.53199e-18 -5.22478e-19 1 

-0.166759 -0.0168331 -0.574547 
-0.0150856 -0.016539 -0.0969264 
3.34707e-18 -6.12813e-19 1 

-0.104738 0.00463534 -1.56198 
-0.0117607 -0.0341363 0.314453 
9.68525e-18 -3.32272e-18 1 

-0.124777 0.0201568 0.179807 
0.0277243 0.000539623 0.208483 
2.82507e-19 -5.44202e-18 1 

-0.12245 -0.00531826 0.194643 
0.00375576 -0.0828115 0.403352 
-1.58325e-17 1.15645e-17 1 

-0.116699 -0.0371296 0.1477 
0.0406778 -0.0441891 0.0444101 
2.04684e-18 1.05304e-19 1 

-1.10605 0.0284555 1.22997 
0.195551 0.416477 -0.677468 
-4.68537e-18 6.29597e-19 1 

-0.114353 0.0191281 0.390718 
-0.0261123 0.00512554 0.530156 
-5.66375e-18 3.74807e-18 1 

-0.139245 0.0635592 0.108113 
0.0633792 -0.108928 -0.0768064 
-4.37804e-18 -6.46248e-18 1 

-0.165872 0.00207152 -0.413667 
0.0467727 -0.0670081 -0.020181 
5.45976e-18 3.88801e-18 1 

-0.140773 0.0471779 1.36774 
0.0383177 -0.0254543 1.97275 
-9.66647e-19 -7.41625e-18 1 

-0.121109 0.017572 -2.77568 
0.000780103 -0.0351811 -2.24124 
-9.57159e-18 -8.42726e-19 1 

-0.0795231 0.0936061 -0.0562463 
-0.0800213 -0.100049 -0.113321 
-7.33562e-18 -4.06866e-18 1 

-0.208269 0.13067 -0.0810152 
0.0582061 0.0503603 -0.331345 
-3.65439e-18 1.06958e-18 1 

-0.148953 0.0516008 0.16902 
-0.0371484 -0.00298768 -0.0167562 
-5.93228e-18 4.33841e-18 1 

-0.114544 -0.0106012 -0.501272 
0.0108487 0.00330042 0.293778 
-7.35439e-18 -5.54888e-18 1 

-0.0946509 0.0643408 0.121812 
-0.0709394 -0.0103267 0.122759 
7.5723e-18 -9.46538e-18 1 

-0.127909 0.0501838 -0.103594 
0.034788 -0.0416876 -0.0472905 
-1.49825e-17 3.21053e-18 1 

-0.184998 0.0290657 0.0726309 
0.00830205 -0.0321886 -0.0615107 
-1.51505e-17 7.63828e-18 1 

-0.139529 0.0159132 -0.0990275 
0.0248839 0.0123051 0.202494 
1.02953e-17 2.86249e-17 1 

-0.335323 -0.0847662 -0.150677 
0.0146084 -0.120914 -0.369553 
9.26655e-18 1.25826e-18 1 

-0.369055 0.00383029 -0.507085 
-0.118551 -0.0102226 0.691196 
-9.84279e-18 7.9404e-19 1 

-0.0751644 -0.0122914 -0.0392509 
-0.0113039 -0.00774393 -0.0589502 
-4.66496e-18 0 1 

-0.191633 -0.24349 0.0892022 
0.262406 0.0457948 0.0441332 
1.04223e-17 6.83701e-18 1 

-0.106822 -0.00937094 0.799469 
-0.0181781 -0.0668377 0.572915 
-4.33736e-18 -2.63758e-18 1 

-0.108624 -0.0298623 -0.0681265 
-0.0367288 -0.116404 -0.0508706 
4.53649e-19 7.10373e-18 1 

-0.161129 0.00349894 0.106588 
-0.0446303 -0.0130597 -0.0259142 
-8.07062e-18 -5.0735e-18 1 

-0.169605 0.0529328 0.00454111 
-0.0573967 0.0106734 -0.0687491 
-9.87791e-18 -4.40548e-18 1 

-0.0878854 -0.0585628 0.174808 
0.0178502 -0.00304124 -0.196304 
1.87362e-18 8.29251e-18 1 

-0.125468 0.0396956 -0.11098 
0.0319965 -0.0310812 -0.0825737 
3.91735e-18 -7.4112e-18 1 

-1.2592 0.203424 -2.33715 
0.293986 0.513856 0.907784 
-3.43431e-18 4.75079e-18 1 

-0.370892 0.32065 0.0429316 
0.395152 0.0584942 0.65213 
-1.01746e-18 3.97736e-18 1 

-0.125721 -0.0425446 -0.313116 
0.0177853 -0.0261322 -0.055863 
2.16902e-18 1.57815e-17 1 

-0.154651 -0.578837 0.507636 
0.646781 0.0970185 -0.132679 
-2.81056e-18 -7.30745e-18 1 

-0.141396 0.0418995 -0.337285 
-0.0471714 0.00814538 -0.238974 
6.78473e-19 -7.54801e-18 1 

-0.0918349 0.0258146 -0.138637 
0.00335126 -0.0143875 0.0525555 
-6.2348e-18 4.73904e-20 1 

-0.264656 0.121897 0.460925 
-0.0768872 0.0162464 -0.227876 
5.07703e-18 -4.69778e-18 1 

-0.111616 -0.0134966 -0.0327541 
-0.00404749 -0.0447524 0.269913 
-2.37373e-18 -5.33049e-18 1 

-0.112898 -0.042331 0.0870441 
0.146996 -0.0431522 0.0598042 
4.73301e-19 -3.08522e-18 1 

-0.0696451 -0.100408 0.0210032 
0.0563931 -0.0809905 -0.0519584 
8.15106e-18 -6.37112e-18 1 

-0.166105 -0.00531023 -0.104709 
0.0113375 -0.0574901 -0.0682259 
5.66909e-18 -6.0213e-18 1 

-0.0866873 -0.0406262 0.108385 
0.0751803 -0.0102471 0.0635343 
-5.99934e-18 8.6884e-18 1 

-0.113446 -0.0235478 0.0992134 
-0.0206223 -0.0324366 -0.142395 
-1.24789e-17 -1.04961e-17 1 

-0.0809884 -0.0764868 -0.587672 
0.0423499 -0.0248712 -0.351306 
-1.2424e-19 -1.44947e-17 1 

-0.0761057 0.0289441 -0.186615 
-0.0255366 -0.0180388 0.0366105 
-1.20256e-18 -5.69981e-18 1 

0.0207487 -0.781711 -2.36427 
0.394174 0.318499 -0.526218 
-5.37977e-18 -2.68988e-18 1 

-0.718446 -0.197108 -0.13144 
-0.206379 0.101213 -0.172825 
7.77312e-18 1.18566e-17 1 

-0.116491 -0.0143044 0.0896335 
-0.0490457 -0.106875 0.105928 
1.7301e-19 -7.979e-18 1 

-0.126798 0.067617 -0.206132 
-0.0756093 -0.0410148 -0.368456 
4.38265e-18 8.41577e-18 1 

-0.135223 0.0214321 0.252829 
-0.0742798 -0.0109506 0.0589828 
8.93145e-18 4.45479e-18 1 

-0.0987303 -0.0519414 -0.101917 
0.0107174 -0.00544164 0.0843972 
7.65276e-19 1.04388e-17 1 

-0.198059 0.0309678 0.0774165 
0.0192154 -0.0266511 0.204966 
-1.38211e-18 -3.30172e-18 1 

-0.133942 -0.0682387 0.161701 
0.0296666 -0.0439215 1.44184 
-6.30981e-18 -5.86595e-18 1 

-0.112676 -0.00792665 0.296436 
-0.0124467 -0.0154593 0.174615 
-5.12693e-20 3.34959e-18 1 

-0.100545 -0.000968021 0.143951 
0.00258541 -0.0458875 0.0877485 
6.84407e-19 -1.5129e-19 1 

-0.679843 0.0652083 1.40212 
0.0521861 0.388235 0.551202 
-5.45265e-18 -2.03566e-18 1 

-0.168675 0.0155541 -1.3945 
0.07656 0.00051961 -0.0304508 
5.42785e-19 4.30527e-18 1 

-0.138338 -0.0325315 0.369044 
0.000939106 -0.00452495 -0.0832234 
8.31755e-18 5.95235e-18 1 

-0.39319 -0.837367 4.26327 
0.0990719 0.457288 -7.18264 
-1.16869e-18 1.70976e-18 1 

-1.46284 0.256546 3.08903 
-0.138138 0.290985 -1.42523 
1.59199e-17 1.32666e-17 1 

-0.238727 0.038739 2.18639 
-0.0770897 0.0930241 -2.83232 
5.3786e-18 -4.44572e-18 1 

-0.333045 -0.139917 1.43745 
0.135041 0.0394571 0.461324 
6.78772e-18 -5.22654e-18 1 

-0.121222 -0.103964 0.620259 
0.0748123 -0.0120947 0.0898639 
7.12903e-18 -3.255e-18 1 

-0.206088 -0.0222125 -1.80405 
0.0485735 0.149452 0.263075 
4.70599e-18 -2.34678e-17 1 

-0.233834 -0.0277594 0.4019 
0.0120985 -0.0278158 0.685225 
7.44286e-18 1.56499e-17 1 

-0.804078 -0.168508 0.208454 
0.336321 0.240853 -0.360614 
2.46954e-18 -7.57325e-18 1 

-0.125603 0.00160729 -0.0706285 
0.0372979 -0.0398293 0.0729545 
-5.77822e-18 4.85464e-18 1 

-0.0889066 0.0297735 -0.126377 
-0.0350314 -0.0197176 0.0874679 
-5.36203e-19 9.19794e-18 1 

-0.0702772 -0.0375639 0.131567 
0.00772427 -0.0899927 0.320761 
1.63782e-18 -2.96579e-18 1 

-0.175171 -0.0320811 -0.0532325 
0.00750762 -0.00172179 -0.328125 
4.67342e-18 -7.96155e-19 1 

-0.0983293 0.00280293 0.00135764 
0.000512867 -0.0453559 -0.0455892 
-3.33435e-18 -7.29981e-18 1 

-0.0769646 0.00364266 -0.170613 
0.0232627 -0.019232 -0.088143 
-5.72776e-18 1.8073e-19 1 

-0.146454 -0.00724785 0.57712 
-0.00559771 -0.0060389 -0.0139914 
7.23732e-18 -1.58626e-18 1 

-0.163464 -0.0193948 -0.118589 
-0.0280727 0.0197396 0.396013 
3.69044e-18 -6.74365e-18 1 

-0.0911215 -0.102033 0.323539 
0.0311856 -0.0388245 -0.162355 
3.94892e-18 -3.54959e-19 1 

-0.119167 -0.027187 0.0522496 
-0.0402415 -0.0756036 0.384389 
-9.62343e-18 2.49496e-18 1 

0.0901104 -0.649175 -0.179086 
0.655685 0.255163 0.956511 
1.1371e-18 7.58067e-19 1 

-0.122204 -0.0291135 -0.00141229 
-0.00781494 -0.0575094 -0.13218 
2.01582e-18 7.73191e-18 1 

-0.213162 -0.0487138 -0.274195 
-0.0077483 0.0653331 1.20209 
-3.98276e-18 3.25361e-18 1 

-0.146188 0.0681345 -0.0211829 
-0.0287077 -0.0876097 -0.0300896 
4.93334e-18 -5.31283e-18 1 

-0.0796036 -0.0208054 0.022364 
-0.0287314 -0.0431728 -0.00622881 
-2.62101e-20 -4.1674e-18 1 

-0.28639 0.0319212 -0.568979 
-0.112974 -0.0147387 0.236961 
1.67869e-18 4.54723e-18 1 

-0.0858207 -0.00752751 0.0214612 
-0.0273109 -0.0437804 0.0165516 
-6.35223e-18 -4.90363e-18 1 

-0.104231 0.0113487 0.334315 
0.0237309 -0.0623834 0.00372407 
-3.32749e-18 1.92159e-18 1 

-0.231244 -0.0245349 0.0306015 
0.099278 0.0512696 -0.164305 
-2.13388e-18 -1.05314e-17 1 

-0.151764 -0.0167327 -0.0243505 
-0.0557745 -0.0480914 0.216564 
1.69854e-17 3.72916e-18 1 

-0.176167 -0.0223358 0.315841 
-0.0367599 -0.00131942 -0.157127 
1.76377e-18 3.25069e-18 1 

-0.187433 -0.932443 -0.201627 
0.508961 0.574104 0.682756 
-1.40087e-17 2.07893e-17 1 

-0.106237 0.0170569 -0.911974 
-0.00496847 -0.048626 -0.277969 
-1.37309e-18 -1.23379e-18 1 

-0.63281 0.0841452 -0.194028 
-0.262842 0.183101 -0.14986 
-7.81588e-18 3.55489e-18 1 

0.200365 -0.78843 -0.0407503 
0.804976 0.287779 -0.0857926 
-5.25914e-18 5.40887e-18 1 

-0.133774 -0.0827835 -0.0726661 
0.0760468 -0.0591345 -0.0915264 
2.86346e-18 3.19007e-18 1 

-0.242067 -0.0316224 -0.574413 
0.0391269 -0.0751716 -0.63094 
-2.71464e-18 2.14196e-17 1 

-0.315624 -0.10895 -1.26341 
0.0479605 0.129939 0.920211 
-1.28532e-18 -8.05469e-18 1 

-1.54101 -0.386465 0.586687 
0.202165 0.44234 -0.825205 
-1.50795e-17 1.822e-18 1 

-0.359354 0.0805342 0.593011 
-0.023603 0.277154 0.0515807 
4.29512e-18 -1.22072e-17 1 

-0.114774 0.161189 0.0504028 
-0.0898554 -0.05747 -0.135919 
-1.2165e-17 1.23099e-17 1 

-0.113573 0.026556 -0.272084 
-0.0306966 0.00584736 -0.250169 
6.98345e-18 -8.00187e-18 1 

-0.10873 -0.0417471 -0.0948823 
-0.0466274 -0.0646605 0.317703 
6.47737e-19 -1.33513e-18 1 

-0.292 0.00514133 -0.113985 
0.178968 0.14964 0.0552799 
1.30095e-17 -8.61077e-18 1 

-0.189003 -0.0265036 -0.20624 
0.0362892 0.020457 -0.218689 
-1.16547e-18 -2.2898e-17 1 

-0.12041 0.0410214 0.0329551 
0.0129795 -0.0235663 -0.044385 
-7.56789e-18 -4.21274e-18 1 

-0.409234 -0.223193 0.0814299 
-0.0340119 -0.061583 -0.0936512 
-5.55317e-18 -2.16709e-18 1 

-0.216013 -0.101358 -0.231512 
-0.06065 0.0810529 0.29174 
-3.91892e-18 8.81758e-18 1 

-0.163668 -0.00418517 -0.0167236 
0.0150714 -0.0461156 -0.0498027 
5.79601e-18 7.96951e-18 1 

-0.128353 -0.00821733 -0.0369239 
-0.0152679 -0.0279071 0.0876271 
-1.06754e-17 1.85027e-18 1 

-0.096201 -0.0252513 0.0472827 
-0.00514583 -0.0324493 0.659039 
9.7856e-19 -1.61675e-18 1 

-0.101172 0.0166981 -0.460284 
0.00560394 0.008308 -0.0188323 
-2.67315e-18 1.01773e-17 1 

-0.122297 -0.461492 0.162883 
0.440372 0.0987407 -0.192126 
3.02275e-18 -5.09936e-18 1 

-0.121724 -0.00541239 -0.121011 
-0.0331514 0.0643521 -0.571674 
-9.28492e-18 -3.79838e-18 1 

-0.114271 0.0311371 -0.0913183 
-0.0255177 -0.0302791 0.142708 
-3.42145e-18 5.65091e-18 1 

-0.140254 -0.00256089 -0.130034 
-0.0037134 -0.0409552 -1.47931 
6.89307e-18 -2.0114e-17 1 

-0.0832145 0.0747382 0.0448337 
-0.0169303 -0.0592526 0.135092 
3.73478e-18 -1.72842e-17 1 

-0.115049 -0.00779611 0.208855 
-0.0265192 -0.0236769 -3.46875 
-4.09638e-18 -5.29842e-19 1 

-0.177203 0.0321805 0.543408 
0.0107761 0.013846 -0.310585 
4.50664e-18 5.94877e-18 1 

-0.0732982 -0.0527565 -0.246025 
0.0507011 -0.0166347 0.0411655 
-1.13671e-18 5.68353e-18 1 

-0.133147 0.00320131 0.0823158 
0.00192643 -0.103588 -0.0666049 
1.11973e-17 1.96628e-17 1 

-0.109564 -0.10553 0.406769 
0.099972 0.0116834 0.572912 
1.52738e-18 -2.12226e-18 1 

-0.158319 -0.0385699 -1.34257 