# vtk DataFile Version 3.0
Output file generated by Yade's KinematicLocalisationAnalyser
ASCII
DATASET UNSTRUCTURED_GRID

POINTS 13483 float
558.967 38.5379 0.539448
635.241 88.9793 -0.444951
114.745 5.96272 -0.558055
673.645 5.57517 0.57773
471.503 11.6525 -0.353421
303.838 36.4511 -0.472458
149.811 7.03755 0.461944
530.184 13.4456 -0.148603
475.08 32.5396 -0.144806
627.521 19.6311 -0.672622
202.84 8.82737 -0.0903053
248.494 6.4663 -0.241486
573.74 53.3238 -0.179898
567.573 27.0502 -0.0856809
131.048 18.7187 0.442466
213.08 34.8118 0.400982
210.147 12.9339 -0.320174
279.26 10.0206 0.413065
329.573 34.926 -0.445528
492.255 7.9736 0.504541
395.584 37.5093 0.111099
541.128 53.4469 0.268082
668.628 75.4631 0.505592
598.098 77.9473 -0.342273
441.863 16.4268 0.530346
231.914 45.3359 0.147203
472.178 36.6947 -0.541251
538.814 28.4122 -0.307072
41.7136 16.1893 -0.396058
614.289 54.4612 -0.333419
461.096 5.38196 -0.542902
15.8558 24.6833 -0.294323
649.373 81.7952 0.287624
468.31 4.54242 0.658397
74.3928 45.3473 0.106838
491.934 36.2598 0.342718
497.281 17.8805 0.755517
331.441 23.9993 0.193194
502.467 27.4848 -0.343724
338.477 35.8069 -0.531381
232.641 14.7679 0.358305
417.909 37.1059 0.0919295
594.178 6.99693 -0.221524
185.313 6.26559 0.361478
51.9474 7.10607 -0.114076
64.882 9.06625 -0.275612
607.786 9.92441 -0.608144
21.0319 12.3511 -0.29417
530.535 65.5028 0.353675
600.735 31.2106 0.318004
165.764 32.8228 -0.322244
629.323 77.8611 -0.155174
32.3857 29.267 -0.129259
501.675 4.12357 0.572551
136.277 7.06045 -0.518354
545.612 41.3643 0.467898
482.374 39.1195 0.112451
168.323 0.947702 -0.284683
29.746 2.29421 0.374941
336.611 18.3417 0.283044
540.772 75.6373 -0.134949
445.027 37.1301 -0.188129
385.186 1.02913 0.208082
616.485 8.51652 -0.517634
25.8512 45.5361 -0.235524
247.445 32.2199 -0.334855
629.784 12.3322 -0.225635
564.794 78.1312 -0.346965
402.997 8.36253 -0.590583
530.608 6.96421 -0.558615
645.71 49.9466 0.377794
125.307 7.80572 0.273977
478.457 38.6193 0.156131
457.609 18.4778 -0.182076
285.239 17.142 -0.346891
18.3639 14.355 -0.255608
656.553 71.8137 0.358148
322.224 40.9105 -0.281056
597.914 24.1111 0.584385
607.949 14.2495 0.305069
665.313 13.6932 0.305133
446.531 39.1529 0.173367
88.7771 39.3251 -0.26726
584.6 70.8019 -0.248809
575.839 64.3399 -0.127999
676.105 81.1884 -0.132529
656.826 2.03862 -0.555467
281.794 29.1203 0.497924
570.484 6.2383 0.164603
22.3181 6.14451 -0.647508
128.112 39.878 -0.158765
484.258 16.0037 0.304577
658.363 65.6003 -0.43525
188.844 29.3704 0.247251
41.9893 35.2641 0.304439
468.812 3.30565 -0.182086
228.524 8.90094 -0.384578
645.305 59.6556 -0.326446
665.109 62.8299 -0.211503
349.82 22.3553 -0.290568
157.195 27.642 -0.466177
506.816 53.6176 -0.416245
367.218 16.1513 -0.446185
399.7 30.8826 0.13854
365.324 4.5706 0.380417
513.727 11.9085 -0.222331
676.191 15.1519 0.154919
76.5348 40.3141 0.393872
324.694 5.01763 -0.238931
525.731 11.7497 -0.482529
349.162 45.4856 0.47414
23.0784 26.7535 -0.494371
27.838 6.121 -0.281535
523.132 47.2301 0.520583
480.043 30.6009 -0.168128
24.9142 39.3464 0.451736
89.6896 31.6965 -0.231677
315.911 16.674 -0.310699
553.767 20.909 -0.244525
456.995 45.2296 0.306415
640.382 16.2163 -0.556322
634.782 9.8095 -0.188976
375.674 38.5778 0.109098
560.234 57.6949 -0.127337
231.47 17.1414 -0.568682
320.23 3.93273 0.466574
99.9817 31.9884 0.424723
111.909 24.354 -0.27017
503.901 52.2894 -0.0776075
298.219 19.3353 0.524436
614.204 62.447 0.125568
569.52 77.3802 0.111582
459.593 28.1093 -0.369576
673.3 43.6135 0.259298
415.204 23.7771 0.237945
269.195 25.4033 -0.314702
601.619 42.1232 0.31874
271.241 29.4068 0.395458
535.284 21.7822 -0.235999
323.323 37.5427 0.199983
478.297 13.4195 0.686604
356.436 32.9307 0.103003
417.514 17.0984 0.125232
309.589 43.8443 -0.438891
185.159 30.4188 0.141843
640.232 86.1872 0.0705042
674.179 14.8111 0.374358
6.13431 13.2274 -0.437323
420.506 23.334 -0.388359
35.5856 23.4996 0.0779121
366.307 31.9506 -0.569832
384.3 25.2689 -0.289688
71.884 12.244 0.506275
49.3993 33.6529 -0.479507
220.107 13.6667 0.457126
545.134 69.1399 -0.386365
535.396 30.5573 -0.455101
71.7151 21.3676 0.504379
602.198 80.268 0.404018
645.829 14.3619 -0.627925
591.4 56.7404 -0.56388
611.54 1.65868 0.643546
512.862 43.4767 0.445439
542.076 54.6414 -0.647099
487.899 18.5048 -0.548253
671.216 3.76661 -0.472601
217.982 25.016 0.116427
124.327 36.2196 0.200926
241.584 6.77593 -0.411496
90.448 4.50339 0.27665
61.2792 10.3151 0.180896
269.466 37.0383 0.326853
15.1113 26.4031 -0.362593
523.267 23.1715 0.467976
537.252 61.7037 0.235511
447.176 23.2069 -0.378762
661.287 86.4911 0.386181
396.358 8.74762 -0.148191
423.701 38.4506 -0.439525
508.62 3.26044 -0.25064
20.2903 26.1223 0.42041
539.215 5.32368 0.534595
516.454 6.68077 -0.353531
201.218 11.3447 0.513677
414.029 16.3532 -0.285787
304.777 6.46502 0.351223
378.433 19.3155 -0.320375
632.038 57.4853 0.162088
187.588 26.2685 0.434682
652.05 12.822 0.471994
632.423 53.5614 0.41615
373.646 10.5695 0.199259
628.788 2.14652 -0.375354
561.249 37.4961 0.475337
640.027 31.8324 -0.45466
418.327 47.1459 -0.26238
474.813 16.3676 0.449186
449.224 49.9814 0.251753
434.514 10.1498 -0.20962
594.881 55.3804 0.265757
590.519 52.6237 0.375816
187.762 39.5981 -0.332707
663.774 14.9828 -0.191158
541.305 57.4505 0.252524
10.2334 19.2872 0.182645
398.207 25.4207 0.407595
182.718 23.7256 0.413444
90.4406 40.2034 0.203415
670.444 58.0705 0.438992
590.228 63.8003 0.255969
312.379 27.0875 -0.318367
505.934 10.3306 -0.368724
79.4858 45.6149 0.174967
242.32 27.0082 -0.455035
519.822 32.5258 0.33392
469.461 26.2702 -0.489706
257.708 0.890768 -0.359418
515.341 59.1296 -0.382099
503.671 60.3182 -0.435685
468.719 42.3189 0.429634
475.535 1.75506 -0.629715
614.416 25.8077 -0.559008
174.884 12.5443 -0.221475
484.475 52.1544 0.452398
524.285 54.442 0.138733
70.1948 0.989073 0.30826
246.756 4.99264 0.187248
672.764 18.6984 0.214877
664.98 17.8398 -0.621356
676.685 23.3743 -0.696524
297.457 8.6612 -0.247537
643.096 39.9555 0.425737
396.763 45.0078 -0.476302
437.66 0.78456 -0.456227
580.372 57.6839 0.431989
25.0705 32.5574 0.358392
323.919 43.8452 0.586735
247.544 3.12663 0.402561
653.64 78.7477 -0.210743
619.206 75.9084 0.238707
281.652 11.5028 0.259025
594.889 44.4439 -0.119676
527.375 2.52022 0.279808
515.084 7.49264 0.490601
93.5997 18.909 -0.53894
297.273 1.08626 -0.234539
335.548 2.25545 -0.372214
12.8914 7.94567 -0.614032
4.31854 33.8414 0.29641
157.391 19.132 -0.376104
65.7222 42.5797 -0.217356
63.9818 29.5925 -0.329434
413.978 14.4327 -0.502474
359.569 36.4976 -0.485311
626.817 80.2017 -0.126529
18.1658 4.17015 0.287488
67.9066 7.18101 0.145293
554.848 71.2302 -0.135783
288.815 0.951147 0.402201
356.858 16.5995 -0.133131
230.95 4.65462 -0.364023
587.423 38.3837 0.184108
440.437 8.55584 0.466346
646.802 40.179 -0.413525
560.493 61.1105 0.342372
595.957 23.7427 0.129842
411.092 27.7762 0.569359
99.4143 46.2831 0.306143
504.953 58.8981 0.106884
640.89 25.2833 0.263888
233.126 31.6221 -0.288967
29.6983 18.1944 -0.210643
329.134 14.1763 0.503211
104.64 41.6093 -0.467028
262.667 43.4045 -0.231557
416.867 1.67387 -0.37907
653.826 67.9862 0.385288
605.488 0.695073 -0.545545
325.175 3.51341 0.595044
294.652 27.3345 0.15073
449.255 46.4727 0.231239
78.5776 8.75404 0.510222
193.384 46.0054 0.380188
636.212 71.3266 0.353269
479.269 53.1947 -0.0965706
195.997 42.0477 -0.317342
157.395 43.4361 0.405498
675.773 75.4066 -0.539916
674.751 16.0609 -0.689823
561.946 3.25189 -0.630518
186.167 25.206 -0.104921
513.551 38.8581 0.149631
515.503 39.263 -0.284058
400.742 5.60796 -0.163414
465.806 0.949734 0.487561
625.024 81.18 -0.458114
82.5302 31.8964 -0.267805
591.737 32.6076 -0.516665
269.006 15.5423 -0.4436
8.28131 2.54019 -0.43256
122.679 38.0786 0.199569
64.7796 23.1827 0.544699
607.466 68.0104 0.308408
651.563 94.2615 -0.0826976
181.408 28.9693 0.198525
669.517 14.0746 0.602487
43.4804 37.2967 -0.281054
88.4984 30.0431 -0.189319
574.216 30.8592 0.591294
405.289 19.3842 -0.559938
494.887 18.0108 0.148536
233.656 29.6258 -0.197534
575.519 7.11213 -0.582554
677.605 16.6015 0.436671
27.8857 33.3305 -0.303269
265.227 7.70857 0.197108
217.89 15.3969 0.247198
1.04333 38.4066 0.145822
221.133 14.903 0.395353
207.629 11.1451 -0.12223
209.942 26.7987 -0.284886
131.072 29.6315 -0.156957
518.058 18.2272 0.459861
162.982 14.4503 -0.340782
647.842 80.731 -0.241875
170.26 3.83406 0.518739
45.0643 38.3568 0.357999
637.994 64.9506 -0.527877
276.18 32.5784 -0.413013
604.449 31.5983 0.562669
663.507 69.8542 -0.449726
295.588 9.34582 0.134214
633.274 45.5402 0.393027
322.214 2.49898 -0.444913
407.895 25.212 -0.401789
599.963 20.9255 -0.56286
102.255 11.9168 -0.497387
465.955 5.98974 0.654078
649.628 40.6096 -0.202926
85.1763 7.7739 -0.308922
276.638 15.0573 0.199816
414.842 11.844 -0.242959
671.758 2.38906 0.567395
390.047 1.99866 -0.546125
173.119 39.2434 -0.364654
643.595 23.1147 -0.316195
125.943 37.5318 -0.210196
257.983 32.3248 -0.394922
392.759 21.9002 0.221397
537.804 23.3704 0.450792
379.267 9.98186 -0.525759
447.409 31.6465 -0.404407
636.531 88.6714 0.358544
44.7771 11.6445 -0.160347
293.743 39.4594 -0.264596
372.44 28.7923 0.408692
402.003 21.2197 0.305403
498.04 60.0501 0.364943
653.092 62.8001 -0.183663
595.475 49.4168 -0.41135
221.62 34.8167 -0.402516
13.1839 34.7149 0.201071
589.379 54.2016 -0.161058
493.614 59.0774 -0.476941
224.718 40.1391 -0.145734
602.519 55.3475 0.112464
147.085 9.41513 0.239176
358.921 22.1965 0.300011
450.463 48.1397 -0.116359
406.269 20.7409 0.223769
631.51 90.991 -0.291331
418.131 3.93925 0.561736
47.539 25.8623 -0.376549
459.4 39.2757 -0.338405
424.177 45.009 0.376456
650.4 74.6416 -0.224041
630.858 44.1272 0.279812
513.032 21.4088 -0.301544
641.049 78.6457 0.488729
288.449 2.26379 -0.472383
370.82 31.1218 0.499887
28.1743 40.8486 -0.311022
635.599 46.8155 0.132843
563.696 21.9607 -0.725326
450.842 0.744308 -0.453117
122.531 4.74764 -0.346951
416.553 41.4121 0.117822
10.6315 0.926732 0.405907
669.38 7.04411 -0.175865
363.507 40.4231 -0.487643
[...]
POINT_DATA 13483
TENSORS Strain_matrix float
-0.12455 0.15319 -4.41187 
-0.179874 0.111416 -2.55284 
0.00983655 0.0268464 0.254984 

-0.0330288 0.0268265 -2.02175 
-0.0370678 -0.0423052 2.87166 
-0.00727057 0.0115823 -0.96524 

-0.0124122 0.0107779 -0.749329 
-0.00180205 0.00366028 -0.597039 
0.000240363 -0.000577598 0.302134 

0.00247339 0.0170925 -0.0229377 
0.00648984 -0.0107839 -0.0883179 
-0.00213146 0.00118707 0.0070313 

-0.337962 -0.145755 0.196611 
-0.110252 0.259339 -0.370059 
0.0334501 0.00183785 0.167363 

-0.0133262 -0.0329039 0.136079 
0.0159606 0.00180697 -0.0425955 
-0.000387568 0.00186837 0.0134314 

-0.00982215 0.000991807 -0.0153328 
-0.00112883 0.00796251 -0.0784127 
-0.000165033 0.000122448 0.0239549 

0.0121929 -0.182003 -0.0351433 
0.218896 0.014787 -0.0413633 
-0.00200403 -0.00672641 0.051913 

-1.17869 1.358 -0.314536 
-0.383484 0.812873 -0.422599 
-0.0210894 -0.00751113 0.0937845 

-0.0625225 -0.139329 -4.05422 
0.0419048 0.0233395 1.62061 
0.00537007 0.00484391 0.239486 

-0.000549682 0.000482545 -0.010484 
-0.00471296 -0.00650526 0.0119204 
0.000993455 0.000259798 0.0165412 

-0.0147262 0.0238815 0.0050207 
-0.0260384 0.0146084 0.0165098 
0.000806005 4.16463e-05 -0.00097354 

-0.0787788 0.0161718 -0.488018 
-0.31221 -0.0375823 -1.35358 
0.00386296 -0.0190496 0.0340124 

0.0504465 -0.30643 0.00917999 
0.250382 0.0242741 0.0643264 
0.0178124 -0.00687148 0.00140807 

-0.0910109 0.0340181 0.319621 
0.00250642 0.102546 -0.232752 
-0.00605857 -0.011092 -0.106365 

-0.0183519 0.0620906 0.08972 
-0.0197803 0.0156719 0.135713 
0.00620723 -5.56051e-05 0.0359744 

-0.0056668 -0.026537 0.0490868 
0.017913 -0.0245798 0.0200846 
0.00151399 -0.00252592 0.0443429 

-0.0272325 -0.0100182 0.00879655 
0.0150617 0.0145961 -0.0155602 
0.000834799 -0.000221736 0.0320614 

0.00241262 -0.0285699 -0.373545 
0.02932 0.0453908 -0.246851 
0.0241623 0.00259986 -0.193291 

-0.0353007 0.0421626 0.570553 
0.00361501 -0.0155258 0.208521 
-0.00679978 0.0132133 0.0636026 

-0.0723385 -0.0777627 -0.180926 
-0.0473675 -0.0202022 -0.062181 
0.0273782 -0.0383061 0.180405 

-0.0188972 -0.331882 -0.518867 
-0.0105493 -0.111471 0.835116 
-0.0100812 0.0298978 0.0184429 

-0.0574077 -0.0348641 2.10642 
0.0548809 0.0178906 -0.688114 
-0.00135136 0.000796612 -0.00209027 

-0.0151174 0.0496873 -0.051838 
-0.0497933 0.00334389 0.0771622 
-0.000385908 -0.00100853 0.0163312 

-0.308568 -0.0397006 0.259013 
-0.0618045 0.281632 0.570981 
-0.0624438 -0.0526658 0.0342051 

-0.0107671 -0.0305219 0.0043956 
0.028181 0.0060471 -0.0142668 
-0.000206764 0.000345703 0.00616756 

-0.210337 0.040689 7.55533 
0.135472 0.187673 2.69494 
0.0207378 -0.0296735 0.503682 

-0.0148274 -0.0604764 0.334445 
-0.181805 -0.0412925 0.115198 
-0.0203635 -0.0142173 0.141159 

0.00566437 0.0314122 -0.15541 
-0.0318043 -0.00182485 0.0485787 
0.00113699 -0.000569329 0.0463587 

-0.0863568 -0.0629976 -0.272783 
-0.165564 0.023826 0.135842 
0.0088267 0.0097666 0.214927 

-0.45774 -0.0013486 -0.0195604 
-0.100863 0.357467 0.196175 
-0.0139709 -0.0115128 0.332298 

-0.0647008 -0.0424661 0.877811 
0.0995955 0.0301715 -0.718398 
-0.00186788 -0.0193812 0.380537 

-0.0240557 0.0171301 0.130281 
-0.057199 0.00523307 0.0799707 
-0.00103197 0.00361131 0.0365018 

-0.387621 -0.250974 17.6982 
-0.0449352 0.309492 -3.88091 
-0.0372353 0.0254112 -0.588728 

-0.00632332 0.00182109 -0.0306407 
0.00398124 0.00276489 0.00118102 
-0.000123617 -0.000794448 0.00424799 

0.0193973 0.0602006 -0.0877711 
-0.0700628 -0.015814 -0.322603 
0.00294359 -0.0105175 0.0957867 

-0.0969531 0.0938349 -61.0376 
0.00022285 -0.0263468 -37.3505 
-0.00139505 -0.000740984 0.354657 

0.043214 0.00282125 0.0256325 
0.0108423 -0.00208485 0.0332435 
-0.000387796 0.00127985 -0.0214042 

-0.0468195 0.0857919 0.582545 
0.0546391 -0.0216463 -0.254401 
0.0247312 -0.0102226 0.15045 

-0.0192984 -0.00177009 -0.731882 
-0.000577444 0.0153634 0.724684 
-0.00421139 0.010901 -0.399095 

0.00111737 0.00143614 0.354663 
-0.0120758 0.0155601 -0.0426961 
-0.00557862 -0.00355849 0.0150445 

-0.0791219 -0.0899902 -0.0847098 
0.105053 0.00260483 0.0256106 
0.00986777 0.0138633 0.139118 

-0.172075 0.00363115 -0.349653 
-0.109483 0.0255894 -0.222983 
0.00126321 0.00297341 0.0605904 

-0.00794159 0.00770226 -0.0500108 
-0.0166773 -0.0106644 0.00659846 
-5.56152e-05 0.00163681 0.0184384 

-0.00219378 -0.00336101 0.00413461 
-0.00368073 0.0026435 -0.00139203 
-0.0013794 0.000407134 -0.00802579 

-0.00360201 -0.0101791 0.00271695 
0.018994 -0.00337401 -0.018789 
-0.0004218 -0.0008377 0.0116545 

0.00748826 -0.0476889 0.0698538 
0.022307 -0.00499328 0.136052 
-0.000222358 -0.000429152 -0.000392225 

0.0113443 0.0167284 0.0197855 
0.0155335 -0.0229091 -0.0170029 
0.000983118 -0.000309437 -0.00140816 

-0.75874 0.00266078 5.01633 
0.171629 0.100527 -1.34043 
0.0550187 -0.0777391 0.300771 

-0.280589 -0.00673568 1.44676 
0.134114 0.249943 1.69833 
-0.00346991 0.025954 0.189776 

-0.00880538 0.0116639 0.0202066 
-0.00821635 0.00170365 -0.0150251 
-0.00505473 -0.00216805 0.0180688 

-0.045169 0.0607594 -0.106915 
-0.000612933 0.0143966 -0.0732468 
1.15266e-05 -0.00362229 0.0359467 

0.00883645 0.0558598 0.0011474 
-0.0459413 -0.0150569 0.0143215 
0.000579723 -0.000246555 0.0242806 

0.025198 0.00598432 -0.163596 
-0.00930032 -0.0527769 -0.0407298 
0.00136505 0.00191715 0.0728032 

-0.00659987 -0.00778041 -0.0127013 
0.00982501 -8.56846e-05 0.0155534 
0.00140478 -0.000781832 0.00485976 

0.0141089 -0.120906 -0.171899 
0.0543177 -0.0648525 -0.377242 
0.000935539 0.00251376 0.0903233 

-1.19961 1.48762 2.89585 
-1.25216 1.41129 0.720259 
0.00379101 -0.128548 1.01558 

-0.00584952 -0.0421329 -0.014382 
0.00147582 0.0147619 -0.0194463 
0.000190112 0.00277177 0.0031117 

-0.025205 0.029612 0.11362 
-0.0477696 0.00740608 0.154924 
0.00443458 -0.00274745 0.0421511 

-0.0211789 0.0457674 0.0112032 
-0.0285885 0.0230307 -0.00843423 
-0.00691282 0.0341587 -0.153342 

-0.599584 1.12118 -2.72302 
-0.311879 0.572157 0.480978 
-0.00652822 0.0141721 -0.180512 

0.0336791 -0.182111 0.0166929 
0.183011 0.0139129 -0.148125 
-0.000509741 -0.00183684 -0.0287847 

-0.0143564 -0.00324912 0.0194962 
-0.00170224 0.00299233 -0.00852426 
4.61995e-05 0.000348223 0.0232231 

-0.00392221 -0.0734354 0.518165 
-0.0106649 0.0898677 -0.347286 
0.00451085 -0.0370124 0.00372441 

0.0362251 0.0907228 -0.117082 
-0.06919 -0.0475725 0.389569 
-0.0313729 0.0326169 0.25089 

-0.0405497 0.00058259 0.0394526 
0.0668091 0.0254944 0.0674376 
0.00383812 -0.00663326 0.0570639 

-0.0475268 -0.373245 -0.464903 
-0.0440936 0.126522 -0.153884 
0.0207825 0.024455 -0.154076 

0.0227593 0.139519 0.1227 
-0.0319705 -0.0646225 0.967288 
-0.0125673 -0.0692928 1.42235 

-0.0200927 -0.0175514 4.62359 
-0.0147905 -0.00789508 0.961214 
-0.00151518 3.28926e-05 1.04288 

-0.321272 0.292266 -0.271834 
-0.478041 0.408289 -1.01381 
0.00670842 0.0489195 0.194559 

-0.018279 0.0190346 -0.0216694 
-0.00303519 0.00388898 0.054173 
0.00289995 -0.00188254 0.0505285 

-0.00840935 -0.000941068 -0.019956 
-0.00273018 -0.00942781 0.000324455 
-0.0011142 0.000611048 0.026361 

-0.227969 0.940492 -0.456289 
0.00268207 0.480583 -0.0263914 
-0.00710578 -0.0276329 0.0591938 

-0.274065 -0.157605 0.463841 
0.0571922 0.203366 0.0592793 
0.00979261 0.0858383 0.536484 

0.00644921 -0.00531401 0.0398915 
-0.00918747 -0.00284659 0.0719525 
-0.0123083 0.0139568 -0.210714 

-0.0102802 0.0387324 0.00969357 
-0.0308242 0.0218785 0.0394251 
0.0379573 0.0388464 0.0598326 

0.00442722 -0.0160197 0.859211 
0.00560212 -0.00458086 0.486397 
-0.00411069 -0.000976786 0.124792 

-0.0235776 -0.0130848 0.0163387 
-0.0018496 0.0394253 0.124189 
-0.00595803 0.00395995 0.0695574 

0.0185151 -0.0156764 -0.28386 
0.0399686 -0.0872355 1.01376 
-0.018441 0.00846592 0.0698098 

-0.00845384 -0.0689211 -0.0499729 
0.0758756 0.00168 0.0649861 
0.0062092 -0.0094647 0.0348496 

-0.0797003 -0.00629744 -0.272276 
-0.0857755 0.0139346 -0.0977921 
-0.0177609 0.00417713 -0.0393772 

0.0225607 -0.203675 0.00709299 
0.207244 0.0244391 0.133291 
0.0182764 -0.0156927 0.282146 

-0.00094416 0.00789332 0.00669005 
-0.0102874 -0.000583135 0.0046716 
-0.00012116 9.86669e-05 0.00310359 

-0.0192369 0.0523816 0.00951093 
-0.0738344 0.0166083 0.00647497 
0.00108694 0.00145959 0.0190577 

-0.0220981 0.10271 -0.0442397 
-0.131004 0.0183062 0.0371134 
0.0159173 0.0140173 0.0933649 

-0.016538 -0.0161943 -0.015234 
-0.00686134 -0.00967766 -0.0297574 
-0.00329108 -0.000708044 0.0455282 

-0.0149957 -0.0176613 -0.0924901 
-0.0404857 -0.023332 -0.175787 
-0.00439115 -0.00878167 -0.0179861 

-0.0144852 0.0294785 0.0852203 
-0.048209 -0.0158698 0.121521 
0.00531082 0.00292027 0.0277703 

-0.0114812 -0.0324184 -0.000926889 
0.0102506 0.0243401 0.0132254 
-0.00314093 -0.00443957 -0.0192964 

-0.0370618 -0.0145746 -3.01096 
-0.00393812 0.0250737 -2.14046 
-0.00268764 -0.00848294 0.156439 

0.0056854 -0.0291689 -0.0446945 
0.102894 0.0245852 0.142395 
0.00695495 0.0106265 0.0162991 

0.0222146 0.21187 -0.042426 
-0.2846 0.0409445 0.0271209 
0.0039635 0.00786127 0.114749 

-0.0495417 -0.470369 -0.180299 
0.117004 0.236545 -0.222466 
0.054446 -0.0339386 -0.141084 

-0.00106813 0.0076589 -0.00639401 
-0.00232109 -0.00151177 0.00935332 
0.000222989 5.44634e-06 0.00407961 

-0.0163168 0.0178526 -0.15663 
-0.092065 0.00959918 -0.473849 
0.0044946 0.0096195 0.136805 

-0.935033 -0.0371513 -0.762475 
0.115205 0.489559 0.361149 
0.00876587 -0.0251533 0.0723074 

-0.0129191 -0.00628084 0.067566 
-0.00992599 -0.00623638 -0.112707 
0.00158329 -0.00342445 0.0444398 

-0.0404017 0.0712942 0.0402652 
-0.0691957 0.0152193 -0.175122 
-0.0101936 0.0107048 0.0038716 

0.0170398 -0.276519 0.128667 
-0.0350925 -0.0594752 0.458893 
0.0190096 0.019064 0.14881 

-0.129456 0.0381268 -0.228227 
0.0499829 0.175189 0.369611 
-0.00847171 -0.016035 0.998662 

-0.0039244 0.022314 -0.00210291 
-0.00744148 -0.00124987 0.0147191 
-0.00128089 -0.000109259 0.0178122 

-0.251959 -0.0655387 -0.502235 
-0.120719 0.293827 0.865958 
0.00672845 -0.052177 0.731109 

-0.00864832 -0.0246187 0.220843 
0.00611288 0.00989079 0.408207 
-0.000285125 0.0019941 0.0816957 

-0.0648057 -0.0410094 0.108188 
-0.0117375 -0.0384048 0.0461525 
0.00204488 -0.00226915 0.0895935 

-0.057279 -0.0386296 -0.211606 
-0.122956 -0.00717396 -0.268532 
-0.00802439 0.0728504 -0.0311021 

0.0371252 -0.109638 0.0835016 
0.236093 -0.137523 0.244895 
-0.0404264 -0.0151996 0.136176 

0.00514014 -0.0108948 0.00481583 
-0.0139801 -0.0239051 -0.0060426 
-0.0021495 0.000312652 0.0137806 

-0.00810058 0.00948033 0.0438038 
0.00232257 0.00387091 0.00901343 
-0.000510892 0.000206436 -0.00748581 

-0.0242051 -0.00204696 0.00129644 
0.0268521 0.00933674 0.00195984 
-0.000610522 0.00184621 0.020555 

-0.0705476 0.0118225 -0.293161 
0.0239207 -0.0419726 -0.294113 
0.00487846 0.0061085 0.134473 

-0.0162734 0.00730705 -2.04508 
-0.0157913 0.00330173 -2.34053 
-0.000494001 0.000820925 0.196085 

-0.044455 0.0819699 -0.923577 
-0.101317 -0.000678589 0.198333 
0.0270386 0.0126027 0.523281 

-0.0523976 0.0888211 0.0131177 
-0.0804308 0.0170454 0.0656086 
-0.000793406 0.00401531 0.0767923 

-0.216741 -0.00521543 -2.76448 
-0.142098 0.172871 -6.3795 
-0.00672174 -0.0270967 0.265022 

-0.400019 -0.374969 1.62745 
-0.338958 0.186756 0.322584 
-0.00258615 0.0276694 0.130713 

-0.0186904 0.0351664 -0.343137 
-0.0603337 0.0167543 -0.581009 
-0.00150361 -0.047021 0.842647 

-0.00465233 0.0086146 -0.00358964 
-0.00872829 -0.00283209 0.0136913 
-0.00513904 -0.00159098 0.0275761 

-0.00345311 0.0286004 -0.00543518 
-0.031273 -0.00915194 -0.0459113 
-0.00308146 0.00119326 0.0244381 

-0.0677018 0.125975 0.181684 
-0.27518 -0.00355069 0.0560547 
0.00197585 -0.0213807 0.128241 

0.0440966 -0.257348 0.00915624 
0.287166 0.0445968 0.0348508 
3.13307e-06 0.00040299 -0.00344234 

0.0150055 -0.0961111 0.19493 
0.0229316 0.032802 0.257596 
-0.00695216 0.00420699 0.0620721 

-0.342348 -0.354207 0.279717 
0.364914 0.260932 -0.648855 
-0.0336443 0.062521 0.0951499 

-0.00680198 0.0247862 -0.0140508 
-0.0167341 0.00207687 -0.012513 
0.000839812 0.000975045 0.00513779 

-0.0767544 -0.0118571 -1.0676 
0.00735312 -0.091238 -0.319748 
-0.024123 0.00766281 0.135735 

-0.0151504 -0.0144925 0.302224 
0.00806971 0.0113508 0.788136 
0.00102907 0.00109531 0.107734 

-0.0151421 -0.00463247 0.0868139 
-0.00869536 0.0168602 -0.00729298 
-0.000215863 -0.00185703 0.0289521 

-0.00422986 0.0139718 -0.00863567 
-0.0141266 -0.000759572 0.00630151 
7.96249e-05 0.000346168 0.0063466 

0.00123946 0.0830614 0.0875414 
0.0195476 -0.00541797 0.0539827 
-0.00217591 -0.00863294 -0.0209335 

-0.354184 -0.42653 -0.511826 
0.214642 0.258751 1.54203 
0.0771145 0.010302 0.950981 

-0.0970864 0.0803803 -0.558181 
0.0457466 0.0198142 0.780797 
0.00406377 0.0145425 0.158445 

0.0428837 0.0392515 -0.0442909 
-0.0139588 -0.00648607 -0.0244737 
-0.00130449 0.00222224 -0.027699 

0.00149313 0.0392927 0.311413 
-0.187299 0.0105167 -0.0721 
-0.00296412 0.0175397 0.78944 

-0.217701 0.896798 -5.16608 
0.307742 0.207348 1.16069 
-0.00878005 0.0730645 0.00171272 

-0.121599 0.208015 0.29569 
-0.0199738 0.0877624 0.0404502 
0.00853346 -0.00573604 0.0846206 

-0.0620935 0.0920679 0.541774 
0.00839206 0.0326851 0.503372 
0.00173736 0.00231885 0.0368526 

-0.0977406 0.00973603 -0.0466765 
-0.196832 0.0571248 0.164157 
0.0028543 0.00249422 0.397477 

-0.0758474 0.0339319 0.28205 
-0.103168 -0.00555605 0.140732 
0.00577305 -0.0407869 0.159991 

-0.0284209 0.0304 -0.014714 
-0.0976503 0.0229005 -0.0720467 
-0.0168536 -0.0235481 -0.155436 

-0.3448 -0.0626398 0.809114 
0.0838266 0.193754 1.25553 
0.0671146 -0.0418788 0.193093 

-0.00186283 -0.0549891 0.0758713 
0.010075 0.0121821 0.148989 
-0.000146405 -0.00110505 0.0161261 

-0.151711 0.187894 6.82603 
-0.199822 0.152034 4.0288 
-0.0235306 0.0240742 3.9231 

0.00373178 0.0229169 -0.00165217 
-0.020663 -0.00217762 -0.0154045 
-0.000547291 -0.000156578 -0.00230001 

-0.0233786 -0.0378525 0.0140259 
0.0441252 0.00212762 -0.0230692 
-0.00131364 0.00145963 0.0419477 

0.00738647 -0.0195295 0.016437 
0.00722865 -0.00555498 -0.00671686 
-0.000564062 0.00075623 0.000223121 

-0.00390898 0.00525647 0.0127073 
-0.00204652 -0.00424632 0.0120846 
-0.000795699 -0.000196028 0.0133382 

-0.109626 -0.0823172 0.859843 
-0.222869 0.121973 0.0195445 
0.0111345 -0.00722082 0.0589235 

-0.0161358 -0.0278767 -0.00705124 
-0.015426 -0.0124385 0.048739 
0.00327576 -0.00446006 0.0251882 

-0.0125569 -0.00450882 0.344875 
0.107741 0.0544704 -0.626596 
-0.0339562 -0.00786099 -0.161262 

-0.0132958 -0.00616895 -0.0885577 
0.0351888 -0.00565269 0.119108 
-0.00204838 -0.00156652 0.168807 

0.00612018 0.0463977 -0.0414913 
-0.0671549 -0.0154683 -0.0913918 
0.00369469 -0.00123856 -0.0186215 

-0.0280956 0.00735371 6.08434 
-0.000717925 0.0129841 0.783524 
-0.00186201 0.000314266 0.403531 

-0.00896619 0.0786733 -0.0436428 
-0.0296205 0.0388588 -0.00824131 
-0.000355067 -0.00513796 -0.0712281 

-0.0155955 -0.0149687 -0.0854562 
0.0230523 0.00477684 -0.080878 
-0.000210369 -0.000480213 0.077216 

-0.0238118 -0.00527327 0.579943 
-0.00687777 -0.0103953 0.0683633 
0.0002363 -0.00179005 0.0773478 

0.00239707 -0.0124185 -0.040863 
0.0110743 0.000259978 0.00282168 
0.000633058 -0.000572195 -0.00661481 

-0.0150911 -0.00791542 0.0485092 
0.0858597 0.00451938 -0.00685826 
-0.00305134 0.000920443 0.0120101 

0.0240198 -0.0987312 0.595403 
-0.0878162 -0.187401 0.624923 
-0.00613903 -0.0236751 0.199779 

-0.0134391 0.0162151 0.110975 
0.0115771 0.0118533 -0.161147 
-0.0010443 -0.00355352 0.0474633 

-0.10363 -0.126666 2.09093 
-0.0108143 0.0681845 0.435355 
0.0231335 -0.011593 -0.883078 

-0.320319 -0.0179045 -0.607691 
-0.381899 0.245914 2.08837 
0.0136409 0.0327318 -0.0932581 

-0.00324801 0.0609867 -0.568807 
-0.0419497 0.00336057 -0.707855 
0.00276357 -0.00543257 -0.386114 

0.0068852 -0.0179454 -0.0875062 
-0.00873155 -0.0382229 -0.0493448 
-0.00710421 0.02526 0.0108542 

-0.531353 0.217685 0.0305137 
-0.63811 0.539859 -0.242188 
-0.0015334 0.0457361 0.20198 

-0.150878 -0.202514 6.1145 
0.0352457 -0.0676813 46.7939 
0.00058135 0.00531426 -0.856319 

-0.187371 0.207194 -0.476694 
0.0618267 0.132055 -0.557278 
-0.00211189 9.09728e-05 -0.0436256 

0.0230987 0.0135722 -0.0699699 
-0.0102508 -0.0108682 0.0255316 
0.0331593 -0.0312247 -0.0467853 

-0.0120743 -0.0303902 -0.00124725 
0.0028527 0.000643144 0.0128269 
-0.000437615 -0.0194484 0.0965 

-0.0113642 -0.0425961 -0.0445602 
0.0532615 -0.00936632 -0.0755265 
-0.0190054 -0.0144443 0.0940066 

-0.0170385 -0.00121579 0.0810988 
0.0176276 0.0132452 -0.102812 
-0.00445229 0.0121385 0.0262453 

-0.0131161 -0.0208407 0.0920959 
0.0107379 0.00740253 0.0200831 
-0.0359295 0.0102874 -0.0850263 

-0.00633032 -0.00423221 -0.00372255 
0.00194596 -0.000803555 0.0143099 
0.000324101 -0.00106867 0.0188757 

0.00202087 0.0273885 0.0295964 
-0.0356569 0.00303698 0.0302681 
-0.00193236 -0.000961797 0.00406691 

-0.178603 0.00202176 -0.266436 
0.00650704 0.146062 -0.539307 
-0.0238118 -0.0396728 0.705111 

-0.0428307 -0.122884 0.519633 
0.298839 0.0361499 -0.393477 
0.00739113 0.0226994 0.13341 

-0.215925 -0.354108 -0.709578 
-0.0135619 0.146174 -0.159993 
0.0320033 -0.0945517 0.513714 

-0.129596 0.684401 -1.32289 
0.162485 0.0914612 0.513834 
0.0829511 0.153448 0.231395 

-0.0270617 0.0191228 -0.0972816 
0.0372871 0.0185258 -0.212827 
0.00959252 -0.00345384 0.236741 

-0.0106335 0.0216284 -0.0075629 
-0.00619877 0.00193085 -0.00769563 
-0.000318312 0.000189593 0.0208469 

-0.0301324 -0.0888628 0.156265 
0.0754405 0.00842904 0.147112 
0.0119371 0.000291041 0.276857 

0.0391008 0.0047343 0.0878504 
-0.0148328 -0.0839188 0.0621217 
-7.80479e-05 -0.00225712 0.120144 

-0.255646 -0.170563 -0.861861 
0.0495424 0.181715 -0.694198 
0.00665704 0.003372 0.176236 

-0.512481 -0.550822 -0.538461 
0.565514 0.413821 1.52805 
0.124661 -0.0630224 0.580449 

-0.228111 -0.120542 -0.632417 
0.32562 0.253916 0.703633 
0.0362908 -0.0182603 0.419868 

-0.00571986 0.00351049 0.19263 
-0.00574961 -0.00274168 0.0483191 
0.00125015 -0.000295626 0.109657 

-0.0649408 -0.0627112 -0.0504052 
0.0621658 0.0112218 -0.00988778 
0.0210515 -0.00852784 0.103423 

-0.0153745 -0.00555504 -0.0193288 
0.0222509 -0.0128457 0.0279933 
0.00109869 -0.00204988 0.0564243 

-0.0207283 0.0284345 0.0226421 
-0.0613478 0.020924 0.0311649 
0.00276858 0.0104221 0.144854 

-0.00420722 -0.0092226 0.0475776 
0.0285356 0.00361073 0.0432631 
-0.000336755 -0.00329779 0.0311164 

-0.00328027 0.015805 -0.0983534 
-0.00298044 -0.00064356 -0.0213916 
0.00182955 3.81855e-06 0.0178925 

-0.0796729 -0.0363579 1.16704 
-0.0294271 0.0400275 0.508825 
0.0149005 0.023849 0.184778 

-0.0195903 0.0765981 0.0748091 
-0.0106577 0.00168636 -0.0205002 
-0.000923061 0.000775889 0.0493328 

-0.0322668 -0.0129619 0.0174092 
0.0277095 0.0254243 0.0921978 
-0.000663949 0.00291642 0.0273114 

-0.682251 -0.460138 -1.02826 
-0.119267 0.715702 0.330662 
0.0574396 -0.13876 -0.14362 

-0.38989 0.658765 1.3626 
-0.663009 0.599358 2.71011 
-0.0437652 -0.032529 0.00106923 

-0.00879872 0.0133426 -0.0131983 
-0.0116532 -0.00971959 0.0519124 
-0.00049847 -0.00149136 0.0130069 

-0.0847438 -0.155001 -0.578478 
-0.0140708 0.779858 -1.77566 
0.0150754 -0.0477737 -0.00739157 

-0.407411 0.281852 0.418796 
-0.368756 0.279342 0.341418 
0.134575 0.0988611 -0.108507 

-0.054037 -0.238787 0.0820106 
0.27039 0.0732968 -0.107601 
-0.00756248 -0.0858399 0.251136 

-0.205995 0.0277631 -0.0199918 
-0.0919752 0.127615 -0.0512079 
0.0146348 -0.00255158 -0.0323702 

-0.000938431 0.0522239 -0.00424126 
-0.00698948 -0.0134477 -0.0199142 
0.00716245 0.0177346 0.0769053 

0.00649677 0.0609395 -0.0473048 
-0.0440683 -0.00837331 0.0230661 
0.00031798 0.001553 0.0177962 

-0.0125448 -0.00435393 0.00642954 
-0.00829893 0.00256651 0.00267905 
0.000189803 0.000785368 0.00909325 

-0.0838461 -0.0775152 -0.000598781 
-0.142597 0.118602 -0.316781 
0.00860241 0.00510067 0.0258869 

-0.164072 -1.22296 -1.41705 