# vtk DataFile Version 3.0
Output file generated by Yade's KinematicLocalisationAnalyser
ASCII
DATASET UNSTRUCTURED_GRID

POINTS 13483 float
608.254 31.0429 0.172444
714.499 79.3306 -0.446674
118.662 6.11472 -0.474287
755.61 5.68081 0.561239
498.895 7.89615 -0.2718
313.32 35.3895 -0.477312
154.873 6.96578 0.451491
568.867 10.1988 0.179491
495.949 23.7483 0.147528
700.142 16.3623 -0.696282
208.844 8.98318 -0.0902438
255.311 6.36505 -0.252816
644.924 39.4037 -0.263503
625.707 20.9625 -0.0733989
135.672 17.4321 0.425493
219.758 34.6902 0.402531
216.267 13.0436 -0.295173
287.396 9.69112 0.392559
339.882 33.1589 -0.484407
522.759 8.63006 0.341059
409.821 37.1435 -0.115659
590.45 46.498 0.265677
750.056 65.4552 0.487962
671.574 65.3779 -0.347063
458.213 16.1223 0.318848
239.34 44.7811 0.14353
491.004 28.5007 -0.492029
584.084 20.7717 -0.264004
43.9122 15.7174 -0.384601
687.979 42.6312 0.332176
482.451 4.86075 0.367958
15.7058 23.8949 -0.332312
729.925 73.7192 0.281205
494.82 2.59869 0.465122
76.913 44.9917 0.106178
521.293 31.8356 0.332952
529.25 16.8995 0.467614
342.222 22.8913 0.193706
532.932 25.7823 -0.310779
349.325 33.6506 -0.468582
239.285 14.497 0.358194
433.652 36.2128 0.0868093
659.578 7.4202 -0.153827
191.065 6.27567 0.343277
54.4308 7.0178 -0.107808
67.4013 9.01467 -0.271583
675.027 9.29333 -0.625277
22.2325 12.0781 -0.288114
602.775 52.716 0.359349
664.98 26.3615 0.368883
171.293 32.7059 -0.314852
709.392 68.1458 -0.138355
33.9438 28.4428 -0.12049
532.99 2.9896 0.343028
140.898 7.15352 -0.498954
594.082 33.6566 0.417127
504.358 28.6778 -0.167203
173.674 0.935019 -0.274475
31.3837 2.34219 0.345291
347.544 18.0088 0.261477
611.254 57.78 0.130756
461.562 33.9862 0.181974
398.83 1.02788 0.20157
684.877 8.23763 -0.545471
26.5596 43.9314 -0.235425
254.871 31.0737 -0.335014
700.649 9.94245 0.25398
639.695 60.3975 -0.34469
417.123 8.74237 -0.488767
569.612 3.62882 -0.376037
721.182 43.6614 0.406744
129.512 7.71147 0.281399
498.492 27.2813 0.14104
478.167 14.8346 -0.179645
293.508 16.8203 -0.337718
19.5314 14.0685 -0.283993
737.643 63.567 0.343376
332.039 39.3636 -0.29675
661.965 20.5365 0.438393
675.187 13.3639 0.269155
745.587 13.5506 -0.234024
464.881 34.8462 0.190739
91.468 39.0241 -0.265418
658.686 57.3979 -0.240176
644.636 50.5328 -0.148077
757.762 71.112 -0.124442
737.505 1.67274 -0.707497
290.376 29.0006 0.484228
622.519 6.2013 0.153721
23.4101 5.63252 -0.623336
131.799 38.8187 -0.169605
512.811 15.2916 0.21483
736.239 56.5714 -0.435071
194.494 29.2295 0.245418
43.5127 34.6496 0.304246
493.705 1.31507 0.135983
234.794 8.82513 -0.378718
721.094 53.3388 -0.264479
742.682 53.906 -0.237828
361.192 20.9344 -0.261924
162.979 27.0627 -0.48067
549.915 40.6395 0.439695
380.208 15.7208 -0.457236
413.968 30.3521 0.143376
378.332 4.52818 0.410346
548.624 10.5393 -0.114435
757.764 15.8771 0.241404
79.1321 39.9542 0.395704
335.295 4.9753 -0.2156
562.239 9.58134 -0.314403
360.616 43.9001 0.465943
24.4501 25.2789 -0.460678
29.2269 5.94621 -0.29363
569.786 34.532 -0.407691
507.036 26.0908 0.162061
25.5234 37.6125 0.439238
92.3701 31.3756 -0.228896
325.312 16.164 -0.264788
602.259 18.7818 -0.233257
476.342 38.5486 0.324081
714.413 11.1008 -0.520526
708.335 6.53697 -0.242323
388.139 37.5479 0.103423
631.122 39.656 -0.114595
238.032 16.8034 -0.554573
330.722 3.86407 0.461065
102.681 31.7883 0.430677
115.782 24.4692 -0.286986
545 40.6329 -0.077617
306.762 18.997 0.486
688.753 51.3083 0.108135
643.701 61.071 -0.103393
482.948 21.219 -0.379631
750.726 37.2261 0.203284
430.725 23.6356 0.251092
277.524 24.5938 0.192052
671.603 33.8139 -0.316183
279.528 28.8191 0.376063
579.238 12.5691 -0.202799
333.171 36.1034 0.208424
507.023 12.1207 0.567154
368.285 31.6405 0.095399
432.745 16.8003 0.110352
319.441 42.5695 -0.433911
190.79 30.3102 0.139544
720.621 77.5654 0.152406
755.794 15.178 0.436659
6.06773 12.8403 -0.473773
436.349 22.686 -0.401367
37.5339 22.8107 0.0709122
378.615 31.4667 -0.46703
397.715 25.1175 -0.286942
74.4847 12.0993 0.503555
51.1101 33.5036 -0.458744
226.311 13.5465 0.455673
616.282 51.4054 -0.393472
580.767 21.6441 -0.489273
74.4174 21.0942 0.507237
675.525 67.889 0.40745
723.002 7.66874 -0.672286
661.193 46.8328 -0.520124
679.557 1.73683 0.659725
554.72 29.4233 -0.454889
590.547 48.1893 -0.457133
516.222 18.8583 -0.387184
753.233 3.87628 -0.454739
224.418 24.8831 0.110314
127.627 35.5908 0.188398
248.27 6.72412 -0.406648
93.8285 4.4684 0.280314
63.7887 10.3148 0.181228
277.42 36.1257 0.319078
15.8817 25.7915 -0.350491
560.927 19.1773 -0.561285
606.613 45.9452 0.280952
467.573 21.1559 -0.387804
742.974 77.1519 0.366796
410.26 8.73491 -0.125873
440.121 36.6433 -0.397168
541.317 3.49984 -0.205146
21.4564 24.9058 0.391694
581.848 4.24345 0.503911
550.9 4.29743 -0.323584
207.195 11.5157 0.501334
429.055 16.351 -0.24328
313.681 6.32985 0.36531
391.73 19.0671 -0.329384
707.552 51.0297 0.162365
193.261 26.0695 0.418003
732.845 9.99334 0.321826
707.967 47.0317 0.436705
386.932 10.3326 -0.153611
699.861 0.869574 -0.495809
610.793 29.4912 0.439411
715.547 26.0391 -0.583872
434.821 44.089 0.263533
501.292 13.3107 0.347492
469.647 44.8757 -0.228728
450.388 8.76783 -0.136467
664.69 45.6832 0.290916
660.982 42.4398 0.382526
193.387 39.4978 -0.331961
743.602 13.9574 -0.322015
591.508 49.5488 0.251938
10.8477 18.1648 0.182996
411.938 25.7963 0.39532
188.307 23.5981 0.408948
93.1494 39.8938 0.2002
750.44 51.2413 0.383288
659.126 53.4128 0.238371
321.799 25.823 -0.339717
538.223 10.2728 0.317786
82.0366 45.2414 0.168069
249.185 26.3369 -0.477678
562.73 25.3978 0.414303
492.459 19.4102 0.483502
264.727 0.885273 -0.345511
559.262 42.9792 -0.397614
539.474 42.0874 -0.441829
487.882 34.0646 0.417179
505.5 1.71642 -0.621806
686.85 21.3608 -0.423776
180.438 12.4116 -0.213338
506.863 38.6291 0.470459
571.24 42.272 0.150672
72.6856 0.977249 0.27687
253.546 4.82438 0.178357
753.873 18.7765 0.303106
745.695 15.6436 -0.570843
758.392 21.6457 -0.500594
306.246 8.6469 -0.23801
719.03 33.6214 0.409821
411.507 42.2126 -0.379914
454.638 0.804365 -0.414227
650.315 45.3503 0.456591
26.2749 31.2416 0.335788
334.03 42.0771 0.582862
254.39 2.9557 0.358792
734.516 70.9433 -0.181243
692.108 65.4026 0.245318
289.896 11.0698 0.244539
664.994 33.6123 -0.100922
564.315 2.52441 0.275594
548.743 6.44584 0.454702
96.7869 18.6146 -0.59698
306.114 1.0445 -0.229263
346.585 2.24828 -0.370364
13.4493 7.54263 -0.469976
4.34334 32.8692 0.294842
162.616 19.0705 -0.376379
68.0319 42.1532 -0.216623
66.4487 29.2221 -0.328781
428.791 14.4914 -0.459175
371.212 35.3931 -0.483232
706.557 70.2425 -0.120912
19.0637 4.10396 0.278435
70.439 7.04497 0.12898
623.975 52.1062 -0.159994
297.441 0.927921 0.375381
369.153 16.203 -0.101818
237.348 4.63416 -0.381045
649.329 27.8275 0.183481
457.751 8.40238 0.423072
722.759 33.4371 -0.384086
630.544 42.9113 -0.286102
660.19 19.4205 0.132619
425.575 27.7422 0.563738
102.466 45.8564 0.30616
548.544 44.3852 0.0798357
716.7 19.5695 0.256533
240.022 31.0471 -0.282137
31.3288 17.515 -0.205357
340.048 13.7927 0.521584
107.803 41.205 -0.455369
270.414 42.3426 -0.222441
431.123 1.62354 -0.340058
734.606 59.9923 0.384514
673.275 0.761834 -0.715229
335.8 3.43674 0.573145
303.458 26.7533 0.147934
468.384 41.7744 0.225844
81.5143 8.2976 0.478866
199.341 45.7946 0.377604
717.268 62.0954 -0.382389
501.95 40.8797 -0.0998456
201.823 41.86 -0.303845
162.039 42.6856 0.390427
757.375 65.313 -0.531024
756.328 16.3029 -0.691388
613.87 3.41369 -0.488562
191.766 25.0981 -0.0941347
556.382 30.1781 0.150925
558.343 30.0122 -0.27584
414.826 5.73845 -0.13661
488.786 0.961225 0.408356
704.803 71.021 -0.469541
85.1574 31.5724 -0.261967
653.082 24.8118 -0.610703
277.044 15.5659 -0.3749
9.06179 2.38398 0.334242
126.142 37.4828 0.194167
66.9686 23.1998 0.548622
681.302 56.5938 0.308319
733.193 85.7767 -0.148026
187.026 28.8842 0.194066
751.368 14.264 0.540428
44.8417 36.7581 -0.261439
91.1862 29.7227 -0.188948
633.935 22.121 0.596463
419.286 18.7176 -0.532604
526.049 16.8895 0.118995
240.447 29.0316 -0.192499
629.023 6.98989 -0.430498
759.79 15.9638 0.443632
29.1683 32.1803 -0.283987
272.94 7.74831 0.1978
224.127 15.3242 0.246195
1.0655 37.4773 0.147258
227.363 14.7634 0.396328
213.699 11.1708 0.102224
216.289 26.7629 -0.281931
133.96 28.2237 -0.149914
554.589 15.8406 -0.295182
168.443 14.2917 -0.358525
728.427 72.5797 -0.235605
175.676 3.78061 0.519421
47.0837 38.4211 0.428775
712.407 58.4856 -0.468216
284.452 32.0864 -0.401083
671.725 25.1191 0.527969
744.107 60.3855 -0.476434
304.325 9.28824 0.104823
709.308 39.0306 0.382834
332.757 2.49371 -0.434453
422.406 24.7484 -0.385149
665.283 16.4355 -0.453327
105.735 11.8532 -0.483998
490.718 3.93398 -0.535185
725.621 34.017 -0.190477
88.3088 7.69119 -0.23958
284.867 14.7546 0.202908
429.566 11.7534 -0.214446
753.848 2.44354 0.564786
403.788 1.99834 -0.53301
178.478 39.1806 -0.335716
719.356 17.2379 -0.305887
129.36 36.7729 0.190987
265.822 31.6049 -0.411596
406.549 22.0254 0.215873
581.332 14.7012 -0.327831
392.764 9.8721 -0.502457
463.512 28.168 -0.460288
715.864 79.0838 0.259477
47.1312 11.0973 -0.111774
303.082 38.7626 -0.268318
385.025 27.4391 0.370026
416.013 21.0476 0.281985
530.713 45.9577 0.356755
729.445 55.6792 -0.210332
665.806 40.7628 -0.425911
228.354 34.6412 -0.392678
13.4058 33.3491 0.191633
659.616 43.8854 -0.149417
517.314 42.9481 0.466541
231.834 39.8647 -0.127211
674.241 45.9754 0.10241
152.112 9.34951 0.237244
371.799 21.4078 0.323051
470.19 42.7774 0.110259
420.306 19.9882 0.223811
710.579 81.2289 -0.291092
432.549 3.86953 0.539099
49.4724 25.5161 -0.324105
477.19 32.3179 0.348166
441.47 42.9923 0.362003
731.501 66.6417 -0.230005
706.968 37.4275 0.265715
549.42 19.1548 -0.218318
721.36 69.9838 0.427424
297.014 2.21814 -0.464568
383.766 29.9937 0.519599
28.7376 39.3455 -0.305375
711.431 40.2831 -0.132273
615.582 21.1981 -0.474695
470.66 0.771077 -0.477182
126.951 4.57767 0.268151
433.231 40.7323 0.120315
11.4619 0.880419 -0.321915
751.18 7.12725 -0.163602
375.508 39.4765 -0.411861
[...]
POINT_DATA 13483
TENSORS Strain_matrix float
-0.121585 -0.15798 0.193227 
0.519148 0.206557 0.166821 
-0.0243897 -0.0986841 0.288971 

-0.0834636 0.0342116 -12.5716 
0.00652559 0.108381 -10.3085 
0.0119848 0.0010944 -0.158093 

-0.011765 -0.00104325 -0.32138 
0.00310103 0.00634796 0.0477762 
6.50782e-06 0.000304935 0.0245229 

-0.0164672 -0.0198633 0.0146691 
-0.0171007 0.0140166 0.0707184 
0.00191347 6.03465e-05 0.000845402 

-0.00464713 0.028474 0.0136597 
-0.03264 0.000596224 -0.0181747 
0.00606762 0.0129881 0.000227642 

-0.00910332 0.00131223 -0.00633125 
0.00384682 0.000905145 -0.0455972 
-0.000243578 0.000498667 0.0150578 

-0.00598909 0.00143483 -0.0290219 
0.000480559 0.00149228 0.0234238 
-0.000168484 9.95675e-05 -0.0108697 

-0.0147087 0.0397496 -0.00357448 
-0.0199954 -0.00736644 0.00859925 
-0.00664732 -0.00111904 0.0457328 

-0.0350126 0.0500648 0.0104507 
-0.00963037 0.0108973 -0.0439136 
-0.0215385 -0.0150797 0.177209 

-0.0921031 -0.0464048 1.28044 
0.0783867 0.0373654 -0.939044 
-0.0114105 -0.00406553 1.02453 

-0.0198971 -0.0174515 0.00564556 
0.0100058 0.00732873 -0.000675723 
-0.0221135 -0.0582507 0.176712 

-0.00771851 -0.00665843 0.00674441 
-0.000636431 0.00423067 0.000577087 
0.000615868 0.000452649 -0.000579619 

0.0134366 0.198643 -0.796576 
-0.178713 0.0670475 -0.468595 
-0.00293266 0.00322211 0.0068412 

-0.0714361 -0.118545 0.151809 
0.18521 0.0755808 0.362872 
-0.0163241 0.0454681 0.409798 

-0.0090777 -0.000946697 -0.0075913 
-0.0011459 0.00210357 0.00728983 
4.65763e-05 0.000599492 0.0121182 

-0.006176 -0.00921677 0.032858 
0.0043288 0.000550093 0.0535897 
-0.000892889 -0.000432585 0.021219 

-0.00458516 0.007138 0.00363552 
-0.00295072 0.0020436 -0.00351965 
0.000145207 0.000637759 0.00221574 

-0.00518149 -0.00051838 0.00180876 
0.0011869 -0.000112828 -0.00385683 
-4.68859e-05 0.000290761 0.00916885 

-0.0240617 0.000685746 -0.153992 
0.0141219 0.0116053 0.417831 
-0.00408406 0.00348495 0.00423877 

0.00226267 0.0139114 -0.0609643 
-0.0167937 0.000597753 0.151811 
-0.00428726 0.00011617 0.0114673 

-0.00328968 -0.00315949 -0.00553696 
0.00783141 0.000986395 0.00734739 
0.00138336 9.2273e-05 0.0102197 

-0.280403 -0.182342 -1.5 
0.43189 0.437552 -0.179619 
0.0741981 -0.0678356 0.807989 

-0.0577772 -0.132623 0.900122 
0.172673 0.0570892 -0.736564 
0.013598 0.00162463 -0.051612 

0.0268301 0.140047 0.725644 
-0.171346 0.0275399 -0.818185 
-0.00211161 0.00133925 -0.239684 

-0.00697113 -0.00758955 0.00202371 
0.00271904 -0.000393221 0.012612 
-3.20502e-05 -0.000103559 0.00993567 

-0.00252966 -0.0161729 0.00638051 
0.0207037 0.00184773 -0.0111341 
-0.000366612 0.000536064 -0.0011858 

-0.00689226 -0.00950804 -0.0264413 
0.0135858 -0.00357079 -0.945519 
-0.000371753 0.00135049 0.153893 

-0.0200072 0.00902691 -0.0392217 
0.00311943 0.00315766 0.0254568 
-0.00379725 0.00333273 0.0227969 

-0.00679482 0.00295501 -0.0324573 
-0.00138503 -0.000451336 -0.134719 
-0.000583606 -0.000179595 0.0218551 

-1.51417 -1.01501 2.69461 
-0.896045 0.0566384 0.434712 
-0.0376 0.215706 0.261226 

-0.0157015 -0.00489185 -0.151901 
-0.137204 -0.0483344 0.0356466 
-0.00498223 0.00204766 0.108597 

-0.00218395 -0.004655 0.13204 
-0.0247639 -0.00799834 0.0883157 
-0.00124583 0.00159409 0.0159089 

0.000222807 -0.0440575 0.0693824 
0.0339679 0.00393427 0.220213 
0.00315676 -8.12282e-05 0.0310231 

-0.0266456 0.0117411 -0.0901242 
0.0200888 0.0235018 0.0299027 
0.0312748 -0.136929 0.425865 

-0.00491589 0.00172624 -0.00371558 
-0.00211848 0.000727851 -0.00170609 
0.000111072 -0.000377278 0.00358693 

-0.126545 0.0515685 -0.132139 
-0.17657 0.108631 0.0215171 
0.0479547 0.0212713 0.184549 

-0.0311707 0.0100562 0.249921 
-0.00072822 0.0252955 -0.510865 
0.00145096 -0.000979983 0.171284 

-0.0160766 -0.0307515 -0.0197882 
0.0137338 0.0223545 0.0288722 
0.00151962 0.00172007 0.0138701 

-0.00434324 0.00280002 0.0333272 
-0.00173423 0.0072522 -0.00630307 
0.00204213 0.00103472 -0.0189759 

-0.0102955 0.00389449 -0.31434 
-0.00291382 0.00290635 0.557039 
-0.00192137 -9.02781e-05 0.0398892 

-0.0126051 -0.04083 -0.114585 
0.0354462 -0.0275807 -0.00425307 
-0.00108694 0.00599839 0.0481021 

-0.00939825 -0.00411344 0.0778048 
-0.0026472 -0.0182869 0.0128895 
-0.00357021 -0.0119367 0.169075 

-0.293015 0.177294 0.0344645 
-0.122482 0.228452 -0.0939284 
-0.00450834 -0.0876553 0.136352 

-0.00574106 -0.000507163 -0.0125058 
0.000109302 0.00123105 0.0209922 
-0.000497715 -0.000154544 0.00399033 

-0.00989224 0.00960802 0.0400677 
0.00371475 -0.00573193 -0.0297879 
-0.00877228 0.0109643 0.0470865 

0.00391059 -0.00444235 0.0792584 
-0.00246991 0.00615942 -0.0519297 
0.00875997 0.00388976 -0.0583694 

-0.079444 0.0333901 -0.0863082 
-0.0509629 0.0078827 0.615185 
0.0130199 0.00615002 -0.14353 

0.00439204 -0.00256044 -0.00683238 
-0.00672264 -0.000465503 0.0124913 
-0.00236707 -0.000669693 -0.00533274 

-0.100148 -0.646589 0.0599196 
0.440848 0.272496 -0.108596 
0.112913 0.115062 0.578784 

-0.0936809 0.683767 1.33348 
-0.107705 0.193587 -1.60933 
-0.0128775 0.0127007 0.23801 

-0.00680437 0.00150197 -0.0222582 
-0.00104658 0.00237152 -0.020544 
-0.00208872 4.15768e-05 0.0228294 

0.0196806 0.0141657 0.0505785 
-0.0552466 -0.00680479 0.0160075 
0.00151233 -0.00138814 -0.0519441 

-0.00583891 0.00744999 -0.00186805 
-0.0087211 0.00075915 0.00444941 
0.000391719 -0.000585296 0.00905531 

-0.0267141 0.0449703 0.0547582 
-0.00562128 0.0172812 0.118716 
0.00621444 0.0019 0.0635043 

-0.00673993 0.0035769 0.000944809 
-0.00382425 0.00231936 0.0197762 
-0.00117238 -0.000274963 -0.00895739 

-0.0426393 0.0120829 -1.01042 
-0.0870029 0.0584942 0.404897 
-0.00950332 0.0145237 0.0032349 

-0.014501 0.0189385 -0.0274907 
0.00653336 0.0066633 0.0771562 
-0.00288012 0.00161401 0.00900127 

-0.00606229 0.00407324 0.00518589 
0.000114692 0.00245337 0.00140906 
-7.35986e-05 -0.000206432 0.00812003 

-0.00566776 -0.00246749 0.0152843 
-0.00209678 0.00802049 0.00392508 
0.000529424 -0.000627314 -0.00438859 

-0.00424994 -0.0456782 -0.183313 
0.0275387 0.0337073 0.0291676 
-0.000555092 0.00164608 -0.0211841 

-0.129085 0.0317528 0.974227 
0.26448 0.245459 -0.304179 
-0.0121021 0.029558 0.634084 

-0.00863025 -0.000449541 -0.14642 
0.0237819 0.00506808 -0.313103 
0.0140739 -0.00701634 0.133868 

-0.00907025 0.00350683 0.00550596 
-0.00245653 -0.00145672 -0.00312234 
0.000264468 0.000541571 0.0136344 

-0.00913479 0.00771051 0.0668942 
0.00042739 -0.0191511 -0.133977 
0.000775709 -0.00294522 0.0222688 

-0.0758247 0.0486042 -0.203973 
-0.0384715 0.0347502 -0.0834978 
0.0158146 -0.000911021 0.478597 

-0.00246988 0.00150108 -0.03399 
-0.0199248 -0.00446471 -0.00423656 
-0.00367551 0.00580257 -0.0158648 

-0.00808894 -0.10412 -0.0230561 
0.0566811 -0.00999844 -0.0182859 
-0.00328102 0.00370169 0.0243637 

-1.47607 -3.97451 4.12947 
-0.546384 -0.362921 0.333153 
0.0225801 -0.114407 0.422131 

-0.00885249 -0.000653056 -0.121132 
-0.00380719 0.0060429 0.0381195 
0.000643063 0.000484181 0.0267421 

-0.0587326 0.0760933 -0.208281 
-0.122654 -0.0106317 -0.773289 
0.00996784 0.00983001 0.208063 

0.0642499 -0.127083 0.016395 
0.140393 -0.00168894 0.069796 
-0.00379094 0.000495298 -0.0353285 

-0.00860353 -0.00277835 -0.00256019 
-0.000284172 0.005289 -0.00313483 
0.000577713 -8.14177e-05 0.00740831 

0.0065792 0.0608415 -0.0430275 
0.115843 0.027695 -0.0599113 
0.00968931 0.045512 0.208881 

-0.0082497 -0.0321727 0.0705749 
0.0298993 0.00648284 0.018445 
-0.00110449 -0.00174001 0.0202477 

-0.00458835 -0.000586819 0.0034257 
0.00430291 0.00275036 0.00553711 
0.000413507 6.95226e-05 0.0113325 

-0.00517608 0.0128251 0.00580946 
-0.0232112 0.0021691 0.0167928 
-0.000161662 -0.00248368 0.000792735 

0.00601115 -0.0937821 -0.744942 
0.147011 0.00905707 1.24611 
0.000625068 -0.00133203 0.0723253 

-0.00972517 0.0100862 -0.141566 
0.0071114 0.00193297 -0.112236 
-0.00194411 -0.022598 -0.0840005 

-0.0701851 0.140024 -0.08109 
0.00388171 0.0376568 0.0627 
0.0179984 0.0115037 0.0925996 

-0.0248336 0.0372891 0.0434878 
-0.0807866 -0.0386252 0.0150682 
0.000976977 0.00500635 0.126303 

-0.169758 0.0170429 -0.0889637 
0.239461 0.0544943 0.252108 
0.0252975 0.0365528 0.13543 

-0.0142945 -0.0237535 -0.848865 
-0.00157977 0.0496657 0.369258 
0.000218726 -0.00554402 0.0505983 

0.00620543 -0.00881032 0.296608 
0.00643015 -0.00221178 -0.0686316 
-0.00106358 0.000407096 0.0148575 

-1.5143 -4.23175 -0.944625 
0.704455 2.03509 -0.0396941 
0.0459395 0.025138 0.116802 

-0.00337414 0.184844 0.0160284 
-0.520594 0.0302237 0.00905452 
0.0100515 0.0129874 0.0620424 

0.00913002 -0.031746 -0.000834789 
0.0528512 1.77779e-05 0.0027467 
0.00401716 0.000729202 -0.0271553 

-0.165726 -0.0423458 -5.20104 
-0.0307463 0.144188 2.07286 
-0.0108644 0.00428953 -0.0978283 

0.01157 0.0249359 -0.0482311 
-2.70251e-05 0.00144683 -0.154188 
-0.000882955 0.000494614 -0.00973762 

-0.0991508 -0.0259916 -0.0584055 
0.146509 0.0365883 -0.0673597 
0.00241237 -0.00923526 0.143137 

-0.00276215 0.483922 66.3708 
-0.000556533 -0.0179646 0.635257 
0.000418436 -0.00456918 0.057686 

-0.00474578 -0.00717521 -0.00383002 
0.0010371 0.00325288 -0.00133033 
0.00283018 -0.000333018 -0.00184082 

-0.146036 0.132587 -0.0635361 
-0.0197819 0.144453 -0.0648856 
-0.0476595 -0.0440429 0.243331 

-0.300492 -0.798477 -1.7692 
0.161574 0.224099 0.62127 
0.00263876 -9.80645e-05 0.0788321 

-0.00620238 -0.00131692 0.00135027 
-0.00103852 0.00072627 0.00285474 
-0.0010899 0.000191421 0.0123739 

-0.00699605 0.000624753 0.0192931 
0.00504955 0.00214846 0.00647194 
-9.00014e-05 0.000331704 0.0206649 

-0.00953857 0.0524711 -0.0254879 
0.00868944 -0.00755366 -0.000241211 
-0.0118944 -0.240933 0.509565 

-0.0130787 0.00620486 0.0308919 
-0.00937749 -0.0163109 -0.0328489 
-0.00126292 0.00010719 0.0503435 

-0.0295907 -0.140739 0.0444561 
0.138926 0.0612667 -0.0289996 
-0.0469444 0.0171686 -0.130041 

-0.21535 -0.554592 0.404785 
0.157298 0.311161 -0.178152 
-0.0193989 -0.00674734 0.0427977 

-0.00782306 -0.00836373 0.00127674 
-0.000486109 0.00847214 -0.0157201 
0.000473323 -0.00104133 0.00323439 

-0.0056861 -0.00282102 -0.0621292 
0.00100516 0.00228859 -0.0158373 
-0.000582232 -0.000321045 0.0253582 

-0.0388685 -0.0453875 0.185158 
0.0523663 0.0156176 -1.47002 
-0.00880394 -0.00373046 1.73249 

-0.00645915 -0.000117134 0.0388096 
-0.00159661 0.0016743 -0.0219845 
0.000185939 0.000351791 4.0592e-05 

-0.00139449 -0.0128256 0.00494735 
0.0162168 -0.00104702 0.0293884 
0.0014529 -0.00168167 0.00666539 

-0.00940847 -0.000505712 0.0348165 
-0.00302037 0.00568907 0.0225339 
0.000618439 5.31204e-05 0.0138721 

-0.18903 0.0734121 0.232658 
0.0620779 0.133464 0.189758 
-0.0164017 0.000388085 0.192422 

-0.00826802 0.00321566 0.0150243 
-0.0174121 0.00631625 0.000221525 
-0.00155918 2.808e-05 0.00589589 

-0.00678696 0.00629297 -0.0057488 
-0.00574026 0.0024374 -0.00251696 
-0.000540832 0.000240742 0.00267964 

-0.00902215 0.00137804 -0.00119996 
0.00357519 0.00180406 -0.0001681 
-2.90125e-05 0.000728232 0.0140207 

-0.0249802 0.0488132 -0.616292 
-0.0286455 0.0377907 -0.443396 
0.0459873 -8.38977e-05 -0.0980136 

-0.00837958 -0.00072174 0.100939 
-0.0044578 0.00265714 -0.0504794 
-5.45593e-05 -0.000371901 0.0563457 

-0.0138499 0.00895445 -0.143517 
-0.0155938 0.0128014 0.0922972 
-0.000138631 -0.0158266 0.044673 

-0.00758168 0.00403265 -0.0042921 
-0.00714271 0.00856806 -0.0012094 
-0.00243528 -0.000878594 -0.028127 

0.0214785 0.0292549 -0.19583 
-0.0382304 -0.0041573 0.371819 
0.00046488 0.00312494 0.0611628 

-0.137895 0.195384 0.0199116 
-0.0954509 0.048616 -0.0565507 
-0.0189587 0.0478013 0.155776 

-0.0178615 0.00446051 -0.144717 
-0.00507491 0.0185895 -0.127499 
-0.00197909 -0.000244973 0.0976882 

-0.0211543 -0.0388594 0.143492 
0.0247312 0.00878959 -0.120682 
-0.0273628 0.0569913 0.382788 

-0.0091804 -0.0118458 -0.0227633 
0.0125783 0.00380484 -0.00222689 
-0.000622222 0.00159727 0.0126901 

-0.101592 0.050959 0.0378809 
-0.0241207 0.0100554 0.0180522 
-0.00331733 0.00120908 0.110407 

7.91836e-05 -0.0354052 -0.205794 
0.0154621 0.000503236 0.0722205 
0.00132845 -0.00759632 -0.166502 

-0.0383371 0.0400262 0.588475 
0.211488 -0.133914 0.513117 
-0.0043178 0.00279389 0.1529 

0.00192752 -0.00429608 0.0423799 
-0.0220206 -0.0143366 0.094441 
0.000615814 0.0193349 0.0805639 

-0.0115444 -0.00248831 0.0305253 
0.0142127 0.00867497 0.058495 
-0.00701102 0.00675282 -0.0225129 

-0.246894 -0.766412 0.284852 
0.00542213 0.179509 1.20679 
-0.000305831 -0.0419932 0.570047 

-0.0160577 0.00636427 0.00802358 
0.00303184 0.0114743 -0.196891 
0.000512106 -0.00035803 0.0256279 

-0.0056954 0.00183636 -0.0155459 
-0.000218211 0.00120787 0.0181185 
-0.00062907 -0.000172496 0.00742991 

-0.0101907 0.0145832 0.0235037 
-0.0230839 -0.00170448 -0.0214153 
0.00424673 0.000719796 0.0238087 

-0.0066795 0.0193007 0.0481714 
0.00086077 0.00699277 0.067355 
-8.94727e-05 -0.00819439 -0.0198727 

-0.0887952 -0.0300355 -0.433216 
0.111534 0.0323122 0.532004 
-0.0314386 0.00269753 0.112312 

-0.00573345 0.00203432 -0.0128199 
0.00278272 0.00118044 0.00209553 
0.00048938 0.000274249 0.0993864 

-0.151405 -0.295129 -0.515297 
-0.466711 -0.158369 -0.363074 
0.00269229 0.0141765 0.0168195 

0.699523 -3.52045 -3.85912 
0.393563 -0.0232036 0.111491 
0.0632918 -0.113118 0.554278 

-0.0373898 -0.0296709 0.222861 
0.0124095 0.0172135 0.308913 
-0.0205467 0.0104782 0.104801 

-0.356191 0.404002 -0.266018 
-0.105782 0.29746 -0.209466 
-0.00538753 -0.00361384 -0.116114 

-0.0384377 0.0101729 0.181663 
-0.0086678 0.0176609 0.049408 
0.00552261 -0.00134642 0.0112598 

-0.00408059 0.0177747 -0.0798541 
-0.000678289 0.00543143 -0.0194763 
-0.00398527 0.0108966 0.0323948 

-0.0660972 0.31647 1.67974 
-0.326601 0.0558812 -0.354521 
-0.0138453 0.00181157 -0.0495224 

0.000415433 0.00582063 -0.19807 
0.000204608 -0.000763183 -0.0436903 
-0.00031667 3.7712e-05 -0.00642694 

-0.065946 -0.164525 0.0582099 
0.0337476 0.00880138 0.160411 
-0.0190647 -0.0758713 0.652657 

-0.00702763 -0.00702921 -0.00727042 
0.014008 -0.00364902 0.00811505 
-0.000526665 0.000384444 0.00977925 

-0.048734 0.0333114 -0.371678 
-0.0436011 0.00222482 -1.48741 
0.0174594 -0.0495128 0.223613 

-0.00711691 -0.00125676 0.0124366 
0.00141206 0.00301451 0.0055085 
-0.000325586 -0.000262071 0.00866365 

-0.0138817 -0.00942123 -0.0159077 
0.025754 -0.00265974 0.0591184 
0.0181419 0.0112822 0.0706586 

-0.0064994 -0.000522393 -0.0136611 
0.00302196 0.00177889 0.0374293 
-0.000180409 0.000448889 0.010859 

-0.00389041 0.000192245 0.000218876 
4.41098e-05 0.000453544 -0.00308119 
-0.00133237 2.43025e-05 0.0198427 

3.21959e-05 -0.0538008 0.0343636 
0.112018 0.0195123 0.0818404 
0.000347468 -0.00429024 0.138171 

-0.0180885 -0.0110204 -0.0274342 
-0.0270115 0.0134264 0.0090394 
-0.000938497 0.00526353 -0.00958195 

0.00105285 -0.00393943 0.707362 
0.0405513 -0.0246312 -0.0943565 
-0.00395264 0.000647667 0.293381 

-0.0249371 0.00852781 -0.395141 
-0.0173023 0.018406 0.0793209 
0.00244297 0.00841105 0.0360125 

-0.00160342 0.0150078 0.00873839 
0.00776476 0.00333714 0.0285991 
-0.00139097 0.000306283 0.00832932 

-0.00861924 0.00102241 0.0244068 
-0.0015807 0.00387675 0.0191263 
-0.000807246 -0.000205331 -0.012193 

-0.00660553 -0.00685212 0.002061 
0.00906334 0.00339521 -0.00342772 
-0.000391138 -0.00130104 0.00529668 

-0.00964137 0.00225382 0.127832 
-0.00209555 0.00111864 -0.126038 
-0.00036397 0.000292125 0.0181535 

-0.00933997 -0.00142379 -0.0108557 
0.00478886 0.00126619 -0.0363992 
-8.63094e-05 0.000293664 0.0112511 

-0.00555182 0.00973426 -0.086945 
0.000618839 -0.000820458 0.0423484 
0.00130169 0.000328833 0.0179859 

-0.202047 -0.0428609 -0.539756 
0.41529 0.128102 -0.604403 
-0.00411226 -0.0056376 0.124385 

-0.0324214 0.0303385 -1.27054 
-0.0538415 0.013389 -0.0847561 
0.00146098 0.00230261 0.0425679 

-0.00756057 0.0035332 0.0596027 
-0.00377745 0.00450792 -0.0418823 
-0.000698842 3.73844e-05 0.0272582 

-0.141551 -0.461806 -8.87364 
-0.182757 -0.111971 -1.2701 
0.0191162 -0.0211164 0.171832 

-0.353315 0.628134 2.13198 
-0.493096 0.604036 4.64339 
-0.0122141 0.00746089 0.207792 

-0.0564223 -0.127635 12.2374 
-0.148364 0.177502 -3.86317 
0.00318654 -0.00313745 0.0692397 

-0.0486773 0.0429668 -4.3513 
-0.0116578 -0.0991459 2.41314 
-0.000443364 -0.0165355 0.37995 

-0.144875 -0.129867 2.02464 
0.0100632 0.138724 4.40827 
0.0434775 0.0469233 -0.176379 

-0.173918 -0.643548 2.67802 
0.0341991 0.532007 -2.71533 
-0.00658956 0.0331189 -0.0712422 

-0.0168666 -0.0445173 0.127117 
-0.224518 -0.0119813 -0.0817726 
-0.0100308 0.080046 0.372283 

-0.0267334 -0.0342335 0.0480461 
0.0152251 0.026118 0.00845686 
0.00365946 0.000357395 -0.00445697 

0.00456825 0.00183288 -0.00353685 
0.00533475 0.00306679 -0.00260841 
0.000911189 -0.000477475 -0.00191655 

-0.00652721 -0.00134688 -0.00368822 
0.00257961 0.00115156 0.00311354 
0.000183067 0.00020585 0.00563639 

-0.0132978 -0.00448452 0.00719524 
0.00855263 0.00519574 -0.00875751 
0.000511609 9.56641e-05 0.00878941 

-0.00613789 -0.00225177 0.00774269 
-0.000198168 0.000551183 0.0104453 
-0.00020498 -7.8929e-05 0.0132917 

-0.0382915 0.0222672 0.0564961 
-0.0267667 0.0196574 0.0160716 
-0.0398445 -0.0644084 0.247135 

-0.0050681 0.000953166 -0.0228941 
-0.00244295 -0.000279563 0.00552107 
0.000170438 0.000142532 0.00581042 

-0.0145118 -0.000195709 -0.0130584 
-0.0191515 0.0155262 0.0943504 
-0.00195309 -0.00215565 -0.0192538 

-0.074734 0.00693872 1.00889 
-0.0729317 0.0465862 -0.265777 
0.0225908 -0.0209658 -0.0442842 

-0.446214 -0.00774006 -0.694165 
0.276179 0.376327 0.261838 
-0.0202947 0.0113941 0.0692993 

0.00437725 -0.0350922 -0.114182 
0.0285638 0.0111645 -0.0532204 
0.00204562 -0.00188334 -0.0400746 

0.0479941 -0.111458 0.341876 
0.121302 0.0173667 -0.240473 
0.00320726 -0.00013257 -0.137927 

-0.0252737 -0.0210648 0.04713 
0.00494696 0.0131496 -0.00583411 
-0.0327169 0.038553 0.243343 

-0.0136029 -0.0436108 0.529965 
0.00212085 0.0353104 0.384861 
3.49801e-05 0.0179022 -0.122165 

-0.0733935 -0.0659815 -0.0297706 
0.0254988 0.0212449 -0.108191 
0.00359851 0.000326466 0.0974501 

-0.0323253 -0.0095259 -0.153106 
-0.0283203 0.0271617 -0.0338979 
-0.00214298 -0.0227419 -0.0804815 

-0.0798273 0.00593575 -0.146984 
0.0558546 0.0602375 0.398232 
-0.0112342 0.0220899 -0.00454562 

-0.0166183 0.00513962 -0.0361354 
0.00815331 -0.00788877 0.0253284 
0.00912638 -0.0105938 0.0125754 

-0.00959013 0.00372737 -0.143319 
0.000355977 0.00407299 -0.119724 
0.00119988 0.00961444 0.106017 

-0.0142891 0.0154521 -0.00167146 
-0.0322967 0.00162764 0.00585261 
-0.0266243 0.0124334 0.0114919 

-0.0082752 0.00365921 -0.0533787 
0.000378051 0.00323349 0.0259842 
0.000315464 -0.000546579 0.0115263 

-0.00771068 -0.00343752 0.0165621 
0.00238967 0.00451372 -0.0137966 
-0.000106132 0.000143392 0.00304406 

-0.00739841 0.0390039 0.133803 
0.00758033 -0.00785569 0.241669 
0.000252364 0.00585659 0.0271628 

-0.00518329 0.000746802 -0.0186634 
-0.00106041 0.00249777 -0.0171164 
-0.000622013 0.000893945 -0.000543427 

-0.410016 -0.367401 0.0477218 
0.452115 0.447158 0.632613 
0.00693457 -0.00343885 0.0217301 

0.0568445 -0.0680562 0.0168079 
0.0671947 -0.00733739 0.0153501 
0.000722768 0.00128053 -0.0720615 

-0.00729606 0.00525525 0.0109653 
0.0027791 0.000221053 0.0034615 
0.00079607 -0.000354454 0.0114423 

0.0233217 0.0429259 0.0518372 
0.0199988 -0.00393742 -0.0477053 
0.00243852 0.015766 0.028056 

-0.428408 0.193013 -1.86628 
0.376237 0.237277 1.61602 
-0.027759 0.0115099 -0.0168578 

0.0104834 -0.0930341 -0.0561909 
0.134687 0.0310292 -0.0791193 
-0.00192059 1.81255e-05 0.00999748 

-0.196546 -0.0368579 0.535947 
-0.00645766 0.267973 -0.345796 
0.0397079 0.0576765 0.204938 

-0.00435419 0.109422 -0.0725006 
-0.0950928 0.00628752 0.110956 
-0.0289154 0.0119055 -0.119916 

-0.0352514 0.0141212 0.11018 
0.0280488 0.00909965 0.0897111 
1.02911e-05 0.00130657 -0.0140129 

-0.00514507 -0.00726054 -0.00304552 
0.00261089 0.000457229 0.00372733 