# vtk DataFile Version 3.0
Output file generated by Yade's KinematicLocalisationAnalyser
ASCII
DATASET UNSTRUCTURED_GRID

POINTS 13483 float
490.91 41.1354 0.504622
554.37 93.4939 -0.465679
109.793 6.06149 -0.583443
591.796 5.49765 0.600736
413.115 13.6058 -0.394368
288.998 38.1937 -0.485458
143.61 7.68871 0.449144
463.1 17.3943 -0.135128
421.195 56.2889 -0.147665
549.8 23.3439 -0.678853
194.3 8.77578 -0.0927776
237.761 6.61083 0.329267
496.152 61.1121 -0.168294
496.183 27.3343 0.104197
125.911 18.5826 0.520607
203.533 35.4904 0.41602
201.368 12.8627 -0.343724
265.706 10.7626 0.497569
312.373 40.0014 -0.446525
431.155 8.37701 0.510685
362.131 38.0217 0.159126
474.466 57.2125 0.272091
585.619 80.6385 0.444252
518.391 84.1084 -0.399732
394.955 23.4241 0.357927
221.331 48.3897 0.148558
425.457 64.7758 -0.528091
472.118 33.0074 -0.258456
39.2797 16.5668 0.481244
535.347 58.594 0.331916
407.723 9.30671 -0.484347
15.4409 24.6244 -0.298375
568.183 86.3026 0.286866
411.775 4.75463 0.646706
71.2795 46.3637 0.10652
426.308 45.0986 0.398004
436.455 18.3109 0.588541
312.217 27.8445 0.187751
436.585 33.6124 -0.324149
321.257 42.6423 -0.504254
222.918 15.3808 0.359561
377.899 45.9148 -0.112629
522.021 6.93811 -0.236488
177.124 6.22682 0.383222
49.6911 7.57957 -0.0819341
61.7934 9.09477 -0.274127
535.494 9.68883 -0.606948
20.4604 12.8127 -0.300418
458.465 73.0908 -0.37342
526.417 31.0452 0.412931
158.061 33.0861 -0.0679136
548.347 82.2484 -0.168694
30.0745 31.1472 -0.119225
440.17 4.09438 0.578692
130.684 7.09142 -0.485244
477.494 44.7924 0.472933
429.94 61.3705 0.136953
160.443 0.952567 -0.294551
28.6882 2.33105 0.358803
316.31 20.9666 0.250088
464.619 84.7423 -0.131344
400.195 57.023 -0.18359
353.555 1.03529 0.227597
543.961 8.34617 -0.586002
23.7184 47.5201 0.236093
236.592 34.0519 -0.375873
552.607 16.6527 -0.262489
484.061 87.6724 -0.342572
370.639 7.73052 -0.604481
463.616 10.805 -0.498259
565.187 54.6784 0.472493
120.118 7.93787 0.265542
429.219 63.4717 -0.120129
405.991 33.9046 0.0860402
271.438 17.8799 -0.343883
17.96 14.8786 -0.260347
575.413 76.3258 0.370517
303.931 44.4776 -0.053564
525.254 23.6002 0.606186
535.454 14.1024 -0.433074
584.828 13.2228 0.417816
400.97 59.4025 0.172073
85.1921 40.3511 -0.273733
503.93 79.6545 -0.25333
498.881 71.7406 -0.119578
594.195 86.202 -0.148909
574.955 1.85065 -0.619329
267.297 30.4224 -0.578997
498.606 6.01873 0.211277
21.9482 6.51195 -0.65758
123.503 40.7465 -0.146474
424.078 17.9317 0.312317
576.215 69.6264 -0.492588
180.644 29.0547 0.261618
39.6677 36.6798 0.284818
412.554 3.25009 0.204022
218.973 9.28827 -0.45091
564.522 64.1748 -0.340598
583.844 67.6745 0.241406
325.83 30.3559 -0.267073
149.906 29.6258 0.542087
440.066 59.9107 -0.520389
340.751 20.8258 -0.474297
366.154 31.0219 0.178596
338.154 9.79423 0.468537
447.137 15.2853 -0.0992623
594.796 14.7409 -0.244238
73.2716 41.2949 0.390426
307.498 5.84473 -0.301117
458.494 15.6948 -0.432224
329.157 54.4038 0.538299
21.1669 28.6488 -0.516406
27.0536 5.8646 -0.34969
456.079 52.2756 0.484664
421.41 35.8115 -0.171851
22.7539 41.5479 0.440756
86.246 32.564 -0.241415
299.65 18.181 -0.333053
484.232 21.5643 -0.255802
408.949 69.108 -0.290509
562.875 19.9652 -0.401105
557.363 14.6357 0.270824
355.704 53.0611 0.101472
482.21 66.6877 -0.11956
221.754 17.7353 -0.592734
304.24 3.95162 0.571158
95.8985 32.6275 0.407613
107.663 24.718 -0.2704
437.196 59.0653 -0.101487
283.947 20.0643 0.534159
533.427 67.0011 0.126542
489.316 87.2777 -0.105191
405.024 45.4194 -0.368005
592.647 48.5434 0.298427
380.779 26.9217 -0.236075
256.115 25.0371 -0.299936
523.226 46.3724 -0.265107
258.153 30.7703 0.468227
468.313 25.7529 -0.257766
305.747 41.4591 0.20257
418.128 15.906 0.685135
337.953 42.2833 -0.106741
381.345 18.0676 0.127623
292.586 48.1391 -0.532263
177.296 30.005 0.139607
559.047 90.4602 -0.142842
592.835 14.3734 0.412259
6.07109 13.1933 -0.437692
380.188 25.1128 -0.406331
33.3266 25.2394 0.0730623
347.606 43.6622 -0.577862
353.734 25.1927 -0.288604
68.5899 12.1591 0.583022
46.8672 34.3876 -0.506176
210.935 14.0008 0.469757
469.926 78.2773 -0.396455
468.732 34.3647 -0.494115
68.7514 22.5911 0.491955
522.743 85.921 0.404215
568.267 17.9483 -0.710466
513.074 60.4177 -0.589489
539.337 1.58257 0.66142
445.198 48.7159 0.405741
475.517 58.2729 -0.611159
427.884 20.2109 -0.614511
589.432 3.71759 -0.485733
208.493 25.4855 -0.125269
119.854 36.9388 0.20896
230.785 6.75337 -0.446516
85.8505 4.79871 0.268663
58.2631 10.5365 -0.289743
256.154 39.9082 0.253234
14.9386 26.4081 -0.357703
456.357 27.5898 0.455577
465.106 69.592 0.188752
396.871 36.797 -0.360336
579.563 92.2598 0.384626
364.136 8.40914 -0.17312
379.395 50.5323 -0.501268
447.238 3.14479 -0.241823
19.7248 25.8258 0.412816
469.924 5.23563 0.589234
452.527 10.5712 -0.494845
192.756 11.302 0.532994
378.718 15.8138 -0.295556
289.515 6.56752 0.429291
350.337 21.7335 0.465347
551.475 61.517 0.160597
179.405 26.0033 0.413075
572.392 14.9904 0.396756
552.255 57.5279 0.465234
345.694 11.9637 0.278498
556.045 2.61524 -0.401807
493.283 39.8995 0.425071
561.888 35.9443 -0.448471
371.808 54.7595 -0.322886
415.682 19.7491 -0.380553
399.752 70.5945 0.220427
394.713 12.2962 0.16862
516.451 58.9028 0.282616
512.321 56.1732 0.382341
178.991 40.1687 -0.399057
583.534 15.7961 0.123589
474.79 61.1487 0.31402
10.0334 19.3093 -0.219447
365.398 25.0354 0.485541
174.578 23.4983 0.424581
86.7834 41.2688 0.224992
588.583 62.2732 0.533616
511.802 67.4836 0.258676
297.533 28.6675 -0.382958
443.877 10.3037 -0.479902
76.3511 46.5407 0.176611
231.782 28.2375 -0.503733
453.198 37.0814 0.37439
415.031 41.9825 -0.491617
245.639 0.904501 -0.426353
448.491 63.8744 -0.436995
444.451 70.5956 0.446952
421.4 70.4623 -0.112222
418.97 1.70676 -0.588735
536.812 29.4486 -0.589018
166.91 12.5715 -0.234344
439.211 78.9447 0.418695
457.55 59.2546 0.123438
67.2213 0.985387 0.328525
235.658 4.92729 0.243148
591.133 18.0627 0.270626
584.099 18.5989 -0.546176
594.664 23.0703 -0.677203
282.212 9.20097 -0.237525
564.021 44.1599 0.432846
365.891 55.333 0.365105
398.571 0.802148 0.638382
502.878 64.3657 0.466021
22.773 34.7637 0.33732
305.18 47.7525 0.584208
236.549 3.13984 0.446337
572.295 83.1667 -0.209169
538.685 80.5672 0.217815
267.798 12.3472 0.285476
516.106 47.924 -0.133344
460.849 3.00064 0.358697
451.219 10.5452 0.571526
89.8115 19.1247 -0.557648
282.492 1.01879 -0.310266
316.979 2.32254 -0.354612
12.7594 7.94782 -0.624011
4.37825 33.9779 0.308815
150.365 19.95 -0.427977
62.6596 43.7151 -0.220097
60.4747 30.672 -0.318672
379.499 14.0559 -0.570393
340.33 46.2782 -0.542953
545.854 84.585 -0.125575
18.1301 4.5346 0.296767
64.9496 7.21597 0.139045
478.58 80.5291 -0.133186
274.285 1.46674 0.405958
331.656 23.2528 0.0797319
220.997 4.97814 0.397397
515.105 38.4605 0.404443
399.199 13.1083 0.555226
567.765 44.2667 -0.385279
482.881 69.9789 0.324261
523.372 23.1949 0.188636
377.622 31.6213 0.528213
95.5821 47.2361 0.313649
438.845 65.3849 0.0663624
563.003 29.3359 0.248773
223.281 33.1715 -0.255691
28.9897 20.1339 -0.241455
311.678 15.4679 0.504387
100.618 42.4948 -0.483893
251.011 46.0218 -0.231986
384.424 2.38607 -0.237202
572.449 72.8191 0.410779
533.23 0.681446 -0.550575
308.142 4.28157 0.527639
280.414 28.2548 0.14975
400.865 67.3113 0.197247
74.9438 9.14323 0.596985
184.049 47.0233 0.389889
555.189 75.6353 0.361904
433.795 80.9237 0.0653051
186.514 43.153 -0.296137
151.359 47.209 0.458518
593.842 80.5141 -0.534682
593.244 15.6608 -0.707018
490.69 3.40482 -0.635106
178.037 24.8308 -0.108844
446.882 43.8805 0.101599
448.794 44.5609 -0.304485
368.452 5.28439 -0.236798
410.112 0.847502 -0.61189
544.139 85.4585 -0.46776
79.1165 32.7355 -0.274673
519.241 32.5608 -0.5577
255.724 16.0406 -0.484259
8.33771 2.50517 -0.423828
118.167 38.5861 0.194317
62.3248 23.9279 0.504177
526.682 73.3637 0.313978
569.421 99.8456 -0.161294
173.486 28.8737 0.214757
587.972 14.0747 0.560352
41.0743 38.3865 -0.311234
85.0816 30.8982 -0.190711
502.89 31.3457 0.615066
371.33 19.9714 -0.673742
434.637 19.0081 0.314912
224.021 31.286 -0.246812
503.578 6.94729 -0.598735
595.557 16.3988 0.590463
25.653 35.443 -0.293711
252.548 7.807 0.208664
208.806 15.677 0.271504
1.04796 38.5958 0.151719
211.884 15.2807 0.434132
198.959 11.1563 -0.138008
200.783 27.6067 -0.303269
126.816 30.5944 -0.153285
450.909 23.0041 0.481079
155.493 14.919 -0.38651
566.654 85.2302 -0.240487
162.346 3.84784 0.522542
42.3706 39.5012 0.395843
557.038 69.2515 -0.533401
262.673 34.4792 -0.384352
526.722 33.9424 0.722644
582.738 74.6065 -0.495156
280.426 10.1173 0.145012
554.161 49.5396 0.385894
306.151 2.48199 -0.400376
374.71 26.1266 -0.417433
527.511 20.5998 -0.513684
97.7764 12.4807 -0.583369
409.625 6.63663 0.674977
570.432 45.0699 0.163203
80.9638 7.92545 -0.275536
263.104 15.696 0.200612
380.838 12.192 -0.304057
589.927 2.3303 0.586886
358.097 1.93082 -0.605108
165.89 39.5396 -0.344482
565.727 26.9779 -0.316519
121.423 38.3115 -0.218566
245.776 34.0504 -0.498585
361.115 21.562 0.239879
470.835 27.1887 0.481813
348.239 10.386 -0.547607
404.118 52.5973 0.399084
555.454 92.8395 0.378549
42.7921 12.3087 -0.238256
279.346 40.3758 0.270191
353.086 42.7809 0.364468
368.324 21.9135 0.299494
440.396 70.7836 -0.415365
572.251 67.2218 -0.179593
517.393 53.139 -0.407189
212.178 35.3194 -0.411746
12.8216 36.1214 0.154446
511.204 57.795 -0.150066
451.048 79.6584 0.427384
214.948 41.284 -0.130015
524.251 59.9749 -0.113898
140.887 10.049 0.185846
335.534 29.9026 -0.270186
401.541 69.3123 -0.0962398
372.315 21.0108 0.295443
550.713 95.5083 -0.291225
384.179 5.53186 0.505136
44.385 26.4284 -0.32311
412.968 63.8127 -0.349486
377.151 56.7773 0.362262
569.275 79.1254 -0.221822
552.184 48.2367 0.273298
446.133 26.1427 -0.183297
559.924 83.0062 0.479123
274.478 2.9048 -0.490987
352.367 44.3417 0.48332
26.1052 42.9208 -0.314922
555.89 50.7529 -0.127863
493.858 22.1698 -0.673711
405.433 3.95513 0.635333
117.286 4.92731 -0.387267
373.914 47.4958 -0.152283
10.7766 0.899122 0.373879
587.71 7.01579 -0.139879
[...]
POINT_DATA 13483
TENSORS Strain_matrix float
-0.0742605 0.0224867 0.79769 
-0.0114962 0.0432676 -1.31139 
0.00827663 0.00142107 0.210203 

-0.0233691 -0.0253261 -2.80185 
0.0223166 0.0479993 -4.14383 
-0.000125776 0.000467154 -0.00690785 

-0.0224781 -0.000882919 -0.79836 
0.00806852 0.0115978 1.28249 
-0.00134323 0.00663715 0.358218 

-0.0246235 0.0127625 0.00189061 
-0.0389452 -0.0172541 -0.067203 
0.00174048 0.0040725 0.0177939 

-0.181909 -0.000301691 -1.14187 
-0.171275 0.249236 -0.504458 
0.016792 0.01789 -0.0868294 

-0.000635316 -0.112332 -0.246821 
0.139777 0.0175904 -1.11972 
-0.00850167 0.010738 0.160871 

-0.0793295 0.0179183 -0.103095 
0.0608473 0.0503122 -0.240227 
-0.00069603 0.000717449 0.160395 

0.0181284 -0.000195223 -0.00954508 
0.0224032 -0.00600677 -0.0128718 
0.000377889 -0.00156564 -0.0121521 

-1.75174 0.770034 1.15494 
-1.1795 1.03111 -0.291075 
0.0390862 0.0766797 -0.0671562 

-0.0463396 -0.0806231 -5.56288 
0.108686 0.0113377 4.94776 
-0.00186279 0.000275942 0.00748961 

-0.0117867 -0.00695381 -0.0180524 
0.00668669 -0.00303237 0.00483242 
0.00119304 3.89269e-05 0.0350741 

-0.0151202 0.00485429 0.0242722 
0.00669651 0.00491773 0.0135274 
0.000359337 -0.00122001 0.00973297 

-0.0838487 -0.0189583 0.2181 
0.048372 0.0284987 -0.176138 
0.03837 0.00151849 -0.155495 

0.0166281 -0.044578 0.00755503 
0.0827055 -0.0256847 0.0449183 
-0.00159264 0.00486255 0.0300603 

-0.0557408 0.0359312 0.0917037 
0.0118334 0.0369349 -0.0719665 
0.0127143 0.00542267 0.359483 

0.00706723 -0.00826627 -0.00346841 
0.00460201 -0.000445274 -0.00764148 
0.000798954 -0.000404883 -0.0107325 

-0.0217399 -0.00916392 -0.0175949 
-0.00169096 0.0109064 -0.0266525 
-0.000876087 -0.000765337 0.0105579 

-0.0252944 -0.0197338 -0.0011075 
0.0358907 0.0145911 0.000590313 
-0.0024535 0.000844969 0.011973 

0.00742291 -0.14027 0.225483 
0.18815 -0.00786743 0.551542 
-0.0395739 0.0143955 0.167679 

-0.00391643 0.0431437 0.185605 
-0.183829 0.0602835 0.469166 
-0.0322107 0.00716358 0.155564 

-0.086715 0.0642317 -0.0297062 
-0.05586 0.0349881 -0.154211 
0.0438314 0.11255 0.553972 

0.0213808 0.0311952 0.00558982 
-0.0480292 -0.0133902 0.00548308 
-0.012903 0.0123675 -0.0133241 

0.00734451 -0.0214266 -0.247373 
0.0280162 -0.00599393 -0.417817 
0.000626626 -0.0010626 0.00989057 

-0.014073 0.0458076 -0.221976 
-0.0387036 0.0091568 -0.625803 
0.0040618 -0.00190138 -0.0832647 

-0.11678 -0.481272 0.54054 
0.346661 0.344417 -0.558183 
-0.00250168 0.0276672 0.124595 

0.00458482 0.00119718 -0.00867776 
0.00480851 6.32452e-05 0.00820034 
-0.00161916 -0.00374194 -0.0136028 

-0.155391 0.28748 1.10046 
-0.415836 0.204838 5.19587 
-0.018365 0.000513179 -0.196883 

0.0297451 -0.0110422 -0.0464409 
0.018453 -0.0454252 -0.00504267 
-0.000878207 -0.00164495 0.0151715 

-0.0116766 -0.0802305 -0.508085 
0.04643 0.0190952 -0.587111 
0.00207959 -0.00711407 0.0872562 

-0.00348742 -0.100237 -0.0289669 
0.0374214 -0.00058685 0.0974064 
-0.0027136 -0.00632942 0.0411598 

-0.526957 -0.568523 0.694082 
-0.101861 0.435915 1.06142 
-0.00527867 0.00513742 0.0870836 

0.0113697 0.0117425 -0.0742839 
-0.0151601 -0.00723654 -0.0940625 
0.00354633 0.00118074 -0.0424497 

-0.000744629 -0.0472503 0.0151029 
0.043019 0.00020813 0.00590298 
-0.000453012 -0.000336384 -0.000290674 

-0.177481 -0.157379 0.0174482 
-0.24434 0.0596994 0.341167 
0.0669709 -0.0274268 0.100791 

0.00388473 -0.00202299 0.00379838 
0.00404387 -0.00249107 -0.0069699 
0.00029678 -8.48964e-05 -0.00499091 

-0.104089 -0.143955 -0.622279 
0.0807722 0.0248813 1.59125 
0.000382668 0.0146367 0.132584 

-0.0669633 0.000887351 -2.33655 
0.00408177 0.0586368 -0.240169 
0.000753039 0.00627238 0.237989 

-0.563855 0.366656 0.962697 
-0.0474096 0.382127 0.813006 
0.0521741 0.0316998 0.338477 

-0.0757385 0.00628285 -0.0347964 
0.0110393 0.0337199 -0.00915825 
0.0122726 -0.0607046 0.220001 

-0.0465754 -0.0429403 10.7281 
0.125718 -0.00479229 -1.34552 
0.000469293 6.83383e-05 0.405174 

-0.0203048 -0.0167517 0.0427035 
0.00936448 0.0116802 -0.00474354 
-0.00182474 -0.00152698 0.00580191 

-0.161918 -0.636451 -0.235816 
0.436238 0.460382 0.668565 
-0.0740838 -0.0373566 0.34086 

0.0114244 0.00117255 -0.00682768 
0.00595744 -0.0170942 0.00956935 
-0.00168565 0.00243442 0.00601108 

-0.0153393 0.00285198 0.00730231 
-0.00913038 -0.00175363 0.0669731 
-0.00030346 -0.000101544 0.0184195 

-0.0463005 -0.034971 -0.00547359 
0.0499614 0.0340304 -0.0481823 
-0.0259567 0.00341904 0.118812 

-0.0141012 -0.00618171 -0.0757344 
-0.0264303 0.0316631 0.0194108 
-0.00308797 -0.0137791 0.145543 

-0.00368769 0.00622182 0.00928546 
-0.0162543 -0.0174613 0.400613 
2.20552e-05 -0.00399185 -0.102524 

-0.00489662 0.0143466 -0.0098433 
-0.00557338 0.00753581 0.0026729 
-2.77926e-05 0.000724155 -0.00786737 

-1.40338 -0.520258 -5.16521 
0.690069 0.102684 1.5847 
0.0741707 -0.0892183 0.831035 

-0.210754 -0.326567 -0.789208 
0.346411 0.208897 0.509522 
0.00332969 0.0056447 0.0786384 

-0.0782199 0.0409061 -0.671005 
-0.129678 0.195688 0.088838 
-0.0371274 0.00390053 0.106743 

-0.0127407 -0.0484828 0.0532718 
0.0309035 0.00707661 0.0277452 
0.000838099 -0.00133187 0.0148788 

0.00559199 0.0270606 -0.0270778 
-0.0478259 -0.0015573 -0.0732735 
0.0191834 0.0257401 -0.00158664 

0.01034 0.0130824 0.0435523 
0.000812763 -0.0227161 0.137815 
-0.00137601 0.00306374 0.0190102 

-0.0257496 -0.0104484 0.0136536 
0.00638138 0.00363536 -0.0195067 
0.00459952 -1.07638e-05 0.0332642 

0.0258269 0.00708317 0.179797 
-0.0316229 -0.0234518 -0.0376056 
-0.000327477 0.000454763 -0.0408856 

-0.270883 0.573148 1.317 
-0.252072 0.341693 2.73719 
-0.0208571 0.0390494 0.455855 

-0.00429807 0.103132 -0.24901 
-4.25951e-05 0.0187793 0.290405 
0.0131093 0.367382 0.109611 

-0.00563632 0.00623006 -0.0166262 
-0.00641951 -0.0151752 0.0133515 
0.000636762 -0.00095676 0.0306332 

-0.118275 -0.385555 0.46781 
0.0733857 0.180286 0.306578 
0.0381393 0.0460529 0.321336 

-0.988304 0.579507 2.4665 
0.00629959 0.248645 0.626966 
0.00378086 0.0542244 0.414618 

0.0133361 -0.104548 -0.00699953 
0.0775794 0.000650519 0.0624394 
-0.000815389 0.000974244 -0.0308508 

-0.0114044 -0.135127 0.152769 
-0.00258127 -0.029261 -0.0158394 
-0.0226406 0.021325 -0.0257584 

-0.00766806 -0.0392218 1.33322 
0.0942041 -0.0422429 -1.71685 
0.00469265 -0.00645335 0.0249681 

-0.0139896 0.0176171 -0.121602 
-0.0419344 0.0169473 0.104978 
0.00448931 -0.0176039 -0.0530122 

-0.00212941 0.00456968 0.0454979 
0.00847745 0.00904234 -0.0278547 
-0.00671468 0.00100366 -0.0468573 

-0.01842 -0.114947 -0.0870749 
0.217988 -0.109822 -0.080636 
0.0344183 0.0116388 0.0931484 

-0.021587 -0.0440129 0.0397776 
-0.00962739 0.0865086 -0.519557 
-0.000798138 -0.00103613 0.00757627 

-0.00244204 -0.0180119 -0.118284 
-0.010378 -0.0378607 0.0551938 
-0.000295681 0.00103921 -0.0445612 

0.0117783 0.0534003 0.230274 
-0.0886227 0.069884 0.629302 
-0.0116871 -0.0113176 0.0875062 

-0.0351469 -0.0747813 0.0537177 
0.0376414 -0.00191371 -0.068495 
0.000283066 0.00211267 0.0598488 

-0.0171419 0.0255401 -0.0209203 
-0.0245816 0.0159378 0.00405623 
-0.00229305 -0.00313324 -0.0129553 

-0.277546 0.911723 -0.914313 
-0.590681 0.815035 -0.279028 
0.0156214 0.00717583 0.252702 

0.0709608 -0.161009 0.112476 
0.172588 -0.00603634 -0.0463096 
-0.031193 -0.0192039 -0.0237143 

-0.0279243 -0.0359625 0.149803 
0.0935279 0.0214326 -0.141121 
-0.00176949 -0.0181582 0.121689 

-0.00215856 0.0161387 -0.00925034 
-0.00226898 0.0126495 -0.00118162 
0.000686742 0.000638175 -0.0213597 

-0.00739524 -0.0360366 -0.174918 
0.0614546 -0.001183 -0.569211 
0.00396718 -0.00617407 0.0324168 

-0.0106048 -0.0912612 -0.332823 
0.0135124 0.111885 -0.431766 
-0.0209801 0.0141097 0.411979 

-0.00843336 -0.0234848 0.0729942 
0.0129668 0.00702725 0.124624 
-4.58567e-05 0.00329103 -0.0149286 

-0.0538871 -0.0241046 0.0735257 
-0.0527692 0.0180108 -0.0185133 
0.0116462 0.0177014 0.0430673 

-0.266454 0.0648854 0.494472 
-0.0438847 0.255482 -0.58151 
-0.0204127 0.0241095 0.055992 

0.0253461 -0.0773366 0.0544631 
0.0651224 -0.000938449 -0.0338283 
0.000504315 -0.00333867 -0.016842 

-0.00708359 0.0138181 0.00710765 
-0.0182181 0.00233608 0.00702083 
0.000186435 -0.000741949 0.0149069 

-0.104571 -0.0450853 -0.104401 
-0.00877959 0.0995596 0.310163 
-0.00262268 0.00901445 0.108051 

0.0385371 -0.152427 -0.211426 
0.0472344 -0.00889284 -0.0109702 
-0.00215075 -0.0032925 -0.0606865 

-0.00778394 -0.12167 -0.099777 
0.0460634 -0.00892497 -0.0845988 
-0.0602491 0.0798943 0.354714 

-0.316754 0.0223592 -1.59842 
-0.216054 0.314918 1.18766 
0.00566805 0.0129182 0.0695172 

-0.0286784 -0.0517071 10.9665 
0.0224526 0.0546002 -7.38013 
-0.000573906 0.000248236 0.183895 

0.0104135 -0.0128743 0.00697192 
0.000663244 0.00352064 -0.0100127 
-0.000111175 0.00153189 -0.0141509 

-0.0271833 -0.0234197 2.1263 
-0.00279828 0.00272615 -0.990075 
-0.00492504 -0.0140689 0.268291 

-0.00850281 -0.0424425 -0.0284474 
0.058931 0.03144 -0.0145262 
0.045781 -0.0742528 0.236194 

0.0611668 0.0223322 0.0498135 
-0.0476417 -0.0466175 -0.0494053 
-0.0280761 0.00818267 -0.046997 

-0.0430815 0.00723664 0.00771002 
0.0675865 0.0291554 0.328843 
-0.000396596 0.00554613 0.13896 

-0.0608179 -0.064351 -0.0109543 
0.13452 0.0619256 0.63323 
-0.033669 -0.0241557 0.200175 

-0.0179555 0.021463 -0.153589 
-0.0654869 0.00139077 0.131187 
-0.0105644 -0.00991423 -0.0212047 

-0.0202548 -0.127231 -0.0865285 
-0.079062 -0.0146924 0.0180312 
0.0262104 -0.0379943 0.0967474 

-0.0186852 0.00121844 0.0287291 
-0.000756104 -0.00196353 -0.0138357 
-0.000715451 0.000982296 0.0238377 

-0.0209131 -0.059203 -0.00877241 
0.0615123 0.0101355 -0.00202411 
-0.000835912 -0.0019106 0.0145543 

-0.0653176 -0.0638252 0.0380194 
-0.0556785 0.0419823 0.308021 
-0.0030764 1.15278e-05 0.0445171 

0.30759 1.36816 -3.77289 
-0.1674 -0.264055 1.35451 
0.0106176 0.0177392 0.690463 

-0.128558 0.0778733 1.58474 
-0.026796 0.108038 -0.810577 
-0.00447514 -0.000807383 0.252767 

0.0265427 0.105353 -1.08751 
-0.218439 -0.000204074 0.594272 
0.000548286 0.0173141 -0.116229 

-0.0502837 -0.0159967 -0.111352 
-0.0188482 -0.00219938 0.337401 
-0.000543192 -0.00164151 0.123093 

-0.0876635 -0.405108 -0.298105 
0.0547673 0.0704737 0.177278 
0.0694806 0.0492001 0.0764353 

-0.132202 0.120317 -0.566842 
-0.103199 0.211653 -0.363547 
0.0135518 -0.0114708 0.0323921 

-0.289993 -0.191147 0.527565 
-0.000633465 0.182872 0.0462911 
-0.00980024 0.0129302 0.00761125 

-0.129437 -0.0252017 -0.06497 
0.0220598 0.0651438 -0.145285 
0.0114793 0.010728 0.0784867 

-0.00184908 -0.000457492 0.0281596 
-0.000928695 0.00034461 -0.0816398 
0.000200458 -0.000650762 -0.00515731 

-0.0311614 -0.0659294 -0.0145157 
0.0475114 0.0177293 0.00889281 
-0.000342811 0.00265629 0.0148496 

0.0348357 -0.0355097 0.0625831 
0.00991066 -0.022957 -0.00277972 
-0.000766266 0.000797728 -0.0167217 

-0.0267713 -0.467736 -75.5165 
0.0920236 -0.0420512 -23.2688 
0.00292551 -0.00499755 -0.498334 

-0.139489 -0.201125 -0.840213 
0.147187 0.15346 0.019007 
0.0498279 -0.0197528 0.752728 

-0.0111117 0.00254436 0.0375699 
-0.0151681 -0.00618352 0.00605293 
-0.00233831 -0.00241957 0.0169298 

0.0328409 0.00231201 -0.568839 
-0.0103929 -0.0128634 0.641687 
0.000222298 0.00287744 0.127946 

-0.209759 -0.147847 0.227416 
-0.871444 0.165185 0.830242 
-0.0361272 -0.0696176 0.00490677 

0.00318795 0.0246756 -0.23384 
-0.0338975 -0.00147466 -0.000206194 
-0.00141615 0.00196385 0.0427218 

-0.0139936 0.00468579 -0.00222776 
-0.0192819 0.00343353 -0.00489275 
0.00137276 -0.00110541 0.0137325 

-0.0291469 0.0145041 -0.00730183 
-0.0358798 0.0218861 -0.0117078 
-0.0129636 -0.00821794 -0.00188364 

-0.0296792 -0.0806429 -0.108899 
-0.0170362 -0.00180127 -0.253146 
-0.00354293 -0.00408218 0.0686515 

0.0322983 0.0552507 -0.0254221 
-0.0450074 -0.0100275 0.211937 
0.00854305 0.0199847 -0.0767701 

-0.0243553 0.00721381 -0.0708102 
-0.119266 0.0882855 -0.013441 
0.00618548 0.00470575 0.00509792 

-0.0908984 0.151279 0.31918 
-0.0755957 0.0940325 -0.265548 
-0.0210658 -0.0106222 0.0821071 

-0.0513873 -0.253061 0.608868 
0.348655 0.160502 -1.00519 
0.0394872 0.0682678 0.787785 

-0.109721 -0.377392 -0.486025 
0.14349 0.167128 0.317935 
-0.00599561 -0.00209343 0.0262817 

-0.00860193 0.00118512 0.392373 
0.0313432 0.00991461 0.521027 
0.00397288 -0.000442732 0.124638 

-0.0620423 -0.0494936 -0.0761963 
0.00622392 0.011705 -0.00518909 
-0.00338729 0.00455419 0.0130137 

-0.0132705 0.0216972 -0.00729511 
-0.0229301 0.0105905 0.00863482 
0.00402096 0.00318165 0.0205322 

0.0144095 0.183307 0.26472 
0.0272537 0.0329593 0.0704387 
0.00145425 -0.0020042 -0.00316929 

0.0130054 0.200542 0.090117 
-0.278659 0.0401123 0.00825249 
-0.018659 -0.0610291 0.246556 

-0.0550287 0.0827585 -0.196386 
-0.080452 0.0541817 0.682592 
0.0196768 0.00205849 -0.213538 

-0.085369 0.0341984 0.0273067 
-0.136057 0.0454325 -0.111331 
0.00176146 0.00193016 -0.0533352 

-0.00839478 -0.0625119 0.030481 
0.064206 0.00690573 -0.0099458 
-0.00945063 0.0371982 0.115233 

-0.16332 0.141232 -0.295763 
0.00570264 0.177043 0.599453 
-0.040133 0.0104507 -0.449675 

-0.152579 -0.0548667 -0.199949 
-0.042363 0.00296585 -0.103369 
0.0444353 -0.02992 0.166449 

-0.503637 0.601774 1.9296 
0.1754 0.419166 -0.203872 
0.00267441 0.00895272 0.0727426 

-0.0294066 0.0792396 0.151435 
0.0328673 -0.00412649 -0.0495296 
0.00154262 0.00224303 0.0469992 

0.0334291 -0.0140951 0.0561113 
0.10354 -0.0394429 0.371148 
-0.00888769 0.0392546 0.0743837 

-0.0048116 -0.0131608 -0.676007 
0.0332258 -0.0118927 -0.0778674 
0.0240279 0.00874975 -0.110189 

0.00448392 -0.00917075 -0.0157698 
0.0173638 -0.00482244 0.0197436 
0.00114206 0.000952974 -0.0103247 

0.0362651 -0.185368 0.0292203 
0.17629 0.0103946 -0.0943902 
-0.00393152 -0.000657534 -0.0151673 

-0.177253 -0.00829115 9.37819 
-0.0462632 0.186654 -18.4794 
-0.00819726 0.0243519 -0.0828473 

0.018366 -0.151792 -0.00475737 
0.123223 0.0274329 -0.000255419 
-0.0113831 0.0244234 0.226042 

-0.0126023 -0.25292 -0.0663571 
0.333609 0.0225555 0.110815 
0.00630411 0.00104104 0.0557592 

-0.111274 -0.202617 0.641504 
0.0898044 0.0570951 0.904795 
-0.005716 0.0266839 -0.0289063 

-0.0413526 0.0633347 -0.302779 
-0.0133544 0.0354086 0.590261 
0.0285476 -0.0311045 0.243429 

-0.0151112 -0.0772166 0.0906456 
0.0611811 0.00429179 -0.0216493 
0.000252809 0.000593485 0.020199 

-0.0119 0.0342485 0.170374 
-0.00979367 -0.0312275 0.133875 
-0.05208 -0.0059151 0.0217662 

-0.0031935 0.00103011 0.000650663 
-0.00105621 -0.00126982 -0.00423269 
-0.000140798 -2.22639e-05 0.00554821 

-0.405632 0.217115 0.223538 
0.162304 0.350671 -0.042672 
0.00848318 0.00370001 0.00186093 

-0.12126 -0.255567 -0.550699 
-0.158958 0.18536 0.121677 
-6.52444e-05 -0.00033961 -0.0582936 

-0.210983 -0.0926187 53.72 
-0.027072 0.146738 10.7259 
-0.0120996 0.0118435 -0.821331 

-0.334818 -0.802005 1.02827 
-0.313745 0.11062 0.235674 
0.0833707 0.00955124 0.149766 

-0.0356806 -0.00152448 -0.403826 
0.00593559 0.0026394 1.41595 
0.00991712 0.0202861 -0.416268 

-0.0114614 0.00844786 -0.177376 
-0.0111944 0.0097466 -0.181801 
0.00225014 -0.00179195 0.0050458 

-0.0313192 -0.0124086 0.0636376 
0.000227529 0.0113904 -0.0291315 
0.000112428 0.00104172 0.043078 

-0.362427 0.272239 1.04303 
-0.0156287 0.147735 -0.426054 
-0.0102482 0.073503 0.787637 

0.00259377 -0.0258917 -0.0508405 
-0.0248433 -0.0119734 0.141288 
-0.000593447 0.00137407 0.0231786 

-0.0600477 0.0417117 0.0866051 
-0.0352109 0.0809236 -0.145544 
-0.00156991 -0.00367037 0.0722329 

-0.0447877 -0.0370061 0.799727 
-0.0351268 0.0295993 2.35944 
0.000352232 -0.000939062 0.0036286 

-0.13044 0.0648225 -5.79171 
-0.00720543 0.13904 1.8376 
-0.00290987 -0.00110161 0.46222 

-0.0868322 -0.0980885 -5.10551 
0.00837172 0.0600576 -1.69138 
-0.000602589 -0.00299121 -0.520932 

-0.0110111 0.0599073 -2.5598 
-0.00832978 -0.0518431 0.795011 
0.0144838 -0.00652556 0.715293 

0.0241227 -0.167314 0.665574 
-0.356318 0.0321232 -0.660246 
-0.00410082 0.00266014 0.00438421 

-0.00227533 0.00423691 -0.329992 
-0.0369831 -0.00517323 -0.116197 
4.5556e-05 -0.00318828 0.332304 

-0.011233 0.0111102 0.378018 
-0.114972 0.0316715 0.0896391 
-0.00341075 -0.00361819 0.090103 

-0.0156679 0.0102801 -0.0344311 
-0.012552 -0.0044465 0.0450829 
0.00336683 -0.00929956 0.00468818 

-0.0130483 -0.0396194 0.00649634 
0.00736666 0.0157225 -0.0172854 
0.00174729 0.00349974 -0.019664 

-0.00101715 -0.0218389 -0.0281906 
0.0610546 0.00586548 0.0177103 
-0.00150932 0.00367992 0.0128875 

-0.0239446 0.0051527 0.0233158 
0.00376653 0.00956193 0.0209443 
0.000169879 -0.000604363 0.021091 

-0.0126506 -0.0300348 0.0437562 
0.00605824 0.0104153 -0.436107 
0.000201389 0.00279817 0.0466933 

-0.0519971 -0.000978373 -0.197198 
-0.00317815 0.0327585 -0.0374686 
0.0194237 -0.048117 0.532897 

-0.259282 -0.00744299 -0.422 
0.0792467 0.235412 -0.778058 
0.000386791 -0.0578304 0.585569 

0.0123213 -0.0873832 0.0393911 
0.0343123 0.074423 -0.506879 
-0.0367711 -0.0650033 0.130601 

0.000820348 0.0101883 0.0267886 
-0.00141881 -0.000359148 0.050518 
0.000478846 0.00244153 0.00155594 

-0.176107 -0.07754 -0.297636 
-0.157126 0.0839872 -0.112786 
-0.0310566 -0.00083865 0.571928 

-0.330272 0.071251 0.553646 
-0.173755 0.345515 -0.452164 
0.0319556 -0.0274792 -0.0420515 

0.0187246 -0.043224 -1.71969e-05 
0.042253 -0.0168985 -0.172288 
-0.011457 0.0243448 -0.519446 

-0.015524 -0.0207409 -0.00300798 
0.0113263 -0.0246173 -0.0196549 
-0.00171224 -0.00236502 0.0758745 

0.0236738 -0.302002 0.0458635 
0.286927 0.112692 0.213556 
-0.00407851 0.00556134 0.0398312 

0.00812927 -0.0987714 0.152089 
0.0347044 -0.0138553 0.0110158 
-0.0126354 -0.00990997 0.0765261 

-0.113759 -0.230779 -0.648418 
0.216846 0.204543 0.686577 
0.00391967 0.0177511 0.0578336 

0.00707068 -0.0549419 -0.17734 
0.0886692 -0.0392162 0.057011 
-0.00398333 -0.00341258 -0.0355039 

-0.022869 -0.070729 0.0148575 
0.0609233 0.0248424 0.0364837 
0.00261423 -0.00174881 -1.54362e-05 

-0.0156025 -0.00480547 -0.499416 
0.0089547 0.00382949 0.413274 
-0.000234372 -0.000320638 0.182994 

-0.0189584 -0.0901233 -0.000426676 
0.0248733 -0.0753325 0.0534205 
0.0101732 -0.000562134 0.0852099 

-0.0362651 0.0988864 -0.390831 
-0.108192 -0.0671726 0.693399 
-0.0293942 0.0104832 0.200214 

-0.130226 0.160056 -0.698156 
-0.368489 0.0320011 -0.0626164 
-0.0434062 -0.0320393 0.391798 

-0.0297196 -0.0494464 0.0579869 
0.0381057 0.0297153 -0.00869909 
-0.000364492 0.00484906 0.0172896 

-0.0214198 -0.0339976 0.0177811 
0.0734344 -0.00634661 0.805406 
0.0102512 0.0214176 0.0213926 

-0.0975803 0.0214401 0.0641427 
-0.0088914 0.062856 0.762853 
-0.0128757 -0.0866929 0.370171 

-0.0131305 -0.104102 -0.091953 
0.0532517 0.00744785 0.0520792 
0.00195931 0.000861408 0.00172209 

-0.233275 0.423155 -0.208896 
-0.347036 0.24524 0.113886 
-0.0354571 -0.022552 0.211318 

-0.390096 0.207723 -0.286713 
0.0505276 0.183423 0.216705 
0.0359307 0.120451 0.42653 

-0.211456 0.146642 0.152584 
-0.0388134 0.145382 0.0863799 
0.000920491 0.0140418 0.138382 

-0.000113451 -0.0330287 -0.00201146 
0.0475518 0.00844578 -0.0108099 
-0.000288089 0.00104481 0.00342865 

-1.36724 0.833719 -0.526469 
-0.120093 0.988035 -5.16998 
0.0581725 0.0259915 0.156794 

-0.525213 0.41357 -1.42924 
-0.314761 0.619908 -1.73093 
-0.0313616 0.0138947 0.286558 

0.135061 0.0531456 -0.330741 
0.0214212 -0.0102628 -0.0608509 
0.00477687 -0.00564169 -0.0690532 

-0.207501 -0.203991 -0.0327535 
0.491717 0.197136 0.22412 
-0.0140923 -0.0254057 0.0875213 

0.0666032 -0.0417105 0.190404 
-0.0229163 -0.0426138 0.119198 
-0.000612627 0.0110825 -0.184633 

-0.0128589 -0.0870908 0.0462375 
0.0429854 0.0118335 -0.0536425 
0.000586857 0.000208825 0.00745558 

-0.0643105 -0.0867786 -0.272868 
0.00287218 0.0398771 0.386136 
0.00740271 0.0526328 0.462686 

-0.303731 -0.0440968 0.100978 
-0.0185797 0.0642574 -0.164214 
0.0917501 -0.0335238 0.345297 

-0.0797796 -1.19518 -3.16964 
-0.0251122 0.309419 0.947724 
0.0603575 -0.047385 0.148608 
