# vtk DataFile Version 3.0
Output file generated by Yade's KinematicLocalisationAnalyser
ASCII
DATASET UNSTRUCTURED_GRID

POINTS 13483 float
587.531 33.0182 0.508936
673.938 84.2145 -0.444898
117.875 6.00648 -0.538371
714.635 5.6069 0.568544
489.88 8.49183 -0.277227
309.969 35.7153 -0.475997
153.331 6.9401 0.46074
552.685 11.0753 0.113276
487.841 24.8606 0.156172
665.862 16.5921 -0.677867
206.686 8.93072 -0.0901865
252.754 6.34136 -0.252202
610.611 46.9672 -0.15895
599.369 25.4913 0.10703
135.035 18.1867 0.551926
217.37 34.6246 0.41217
214.029 13.0447 -0.298016
284.49 9.88682 0.402782
336.259 34.2757 -0.518715
512.278 8.43712 0.45351
404.23 37.241 0.100673
572.205 49.2536 0.398634
709.246 71.5948 0.50212
633.785 73.1684 -0.27927
451.211 16.3591 0.329195
236.651 44.9803 0.14515
482.944 29.3685 -0.492359
565.557 23.2489 -0.260199
43.7067 16.0003 -0.383212
651.02 50.6308 -0.325968
474.757 5.02999 0.368885
15.6568 23.9515 -0.332245
689.126 78.5878 0.259658
486.947 2.71747 0.605834
76.4907 45.0013 0.106549
510.903 34.9345 0.368742
517.454 17.9328 0.49444
337.716 23.6354 0.193561
521.648 26.4965 -0.310432
345.133 34.8681 -0.528718
236.88 14.5566 0.356165
427.217 36.8751 0.0901909
628.003 6.95539 -0.297455
189.067 6.29889 0.346234
53.9602 7.0795 -0.113964
66.9525 9.01442 -0.272053
641.936 9.17715 -0.612724
22.1514 12.1224 -0.28835
566.498 58.1061 -0.351511
635.561 29.637 0.406628
169.149 32.7904 -0.315418
668.548 73.1012 -0.119786
33.7741 28.5997 -0.125057
521.612 4.28666 0.564298
139.589 7.05478 -0.514755
574.232 36.3292 0.459622
496.075 30.1248 -0.187462
171.958 0.942328 -0.281579
31.3451 2.36267 0.334969
343.051 18.1332 0.283738
576.434 68.5 -0.1347
454.829 34.2777 -0.193121
393.088 1.02612 0.203845
651.499 8.5186 -0.69935
26.3755 44.1243 -0.235749
252.175 31.4507 -0.333936
666.453 10.1552 0.259637
599.972 71.3023 -0.343506
411.169 8.6855 -0.511016
553.586 4.40304 -0.453917
683.441 47.3855 0.376828
128.528 7.87651 0.264041
490.882 28.6051 0.13937
470.392 15.0617 -0.18977
290.56 16.9997 -0.344686
19.4497 14.1111 -0.287508
696.709 68.9201 0.357727
328.444 40.2201 -0.295958
631.806 23.111 0.492958
642.25 13.5005 0.295445
706.027 14.0285 0.204983
456.684 35.9487 0.176994
90.9817 39.0155 -0.266547
620.364 65.3406 -0.242674
611.849 58.2009 -0.125696
716.875 77.1369 -0.124669
697.136 2.14663 -0.55738
287.292 29.1454 0.487871
600.681 6.14828 0.139452
23.438 5.85014 -0.642565
130.866 39.38 -0.168066
503.033 15.7543 0.242867
697.078 61.6583 -0.450048
192.414 29.3672 0.24743
43.2677 34.838 0.306265
485.683 2.15636 -0.171106
232.422 8.84735 -0.385307
682.841 57.1183 -0.277648
703.864 59.6992 -0.234486
356.38 21.3177 -0.245932
160.603 27.5303 -0.467099
533.192 46.0622 0.393275
374.76 15.7901 -0.452412
408.043 30.2553 0.139604
372.794 4.54243 0.41797
535.199 11.1378 0.164512
717.178 15.2881 0.159147
78.7006 39.96 0.398335
331.179 4.89966 -0.233776
548.074 9.84286 -0.416692
355.784 44.7549 0.47664
24.3905 25.5006 -0.472982
29.1775 5.9819 -0.294128
551.35 40.7201 0.50577
498.439 27.1588 -0.154303
25.3707 37.7782 0.441777
91.9483 31.3871 -0.230147
322.206 16.553 -0.281832
581.39 19.3136 -0.177857
468.235 39.1803 0.32244
678.743 13.3382 -0.561614
673.223 8.01298 -0.154099
382.799 37.9743 0.105418
596.149 49.9926 -0.096771
235.633 16.8863 -0.561719
326.637 3.86696 0.466015
102.315 31.8405 0.421918
114.839 24.4349 -0.254095
528.839 44.5955 -0.0924282
303.666 19.1711 0.493709
650.498 58.1623 0.118227
604.777 70.4274 -0.106244
474.857 21.763 -0.35133
712.105 42.2688 0.268616
424.366 23.7859 0.24518
274.679 24.7101 -0.153118
638.734 37.329 -0.266955
276.545 28.9969 0.375923
560.411 15.2244 -0.191493
329.61 36.9975 0.1999
497.712 12.4739 0.638335
363.213 32.2511 0.10163
426.409 16.9669 0.119742
315.859 43.0691 -0.439349
188.716 30.4179 0.140004
679.859 82.3759 0.155859
715.154 14.9008 0.345309
6.06114 12.851 -0.470809
429.805 23.0131 -0.393535
37.2753 22.9297 0.0708594
373.616 31.8828 0.016147
391.929 25.2596 -0.291885
74.037 12.088 0.505038
50.8237 33.6448 -0.461218
224.02 13.5745 0.460387
580.847 62.0924 -0.380019
562.475 24.5001 -0.454921
73.9909 21.093 0.506884
637.769 75.6894 0.403717
684.417 11.6398 -0.75434
628.191 51.9176 -0.574202
646.261 1.75575 0.626468
538.894 34.6423 -0.495004
572.336 50.5445 -0.637013
506.254 19.1417 -0.449289
712.223 3.79857 -0.461197
222.135 24.8638 0.110324
126.771 36.0776 0.16407
245.757 6.7163 -0.414277
93.3233 4.48031 0.279903
63.3437 10.3153 0.181175
274.436 36.278 0.317522
15.8114 25.8384 -0.34973
546.718 21.3831 0.407085
571.487 53.8731 0.200774
459.901 21.4497 -0.392298
701.73 82.9607 0.361436
404.386 8.7446 -0.133713
433.543 37.5902 -0.418207
528.523 3.47781 -0.203263
21.3982 25.005 0.385395
563.558 5.10958 0.544937
537.899 4.7957 -0.282274
205.059 11.4484 0.510026
422.823 16.4227 -0.258287
310.507 6.56578 0.335889
386.12 19.0971 -0.338796
669.289 54.5902 0.172577
191.189 26.2586 0.435855
692.828 11.9594 0.307961
669.865 50.6632 0.444214
381.334 10.4076 0.198927
665.703 0.888916 -0.461877
589.499 32.065 0.623857
678.525 28.9419 -0.439107
427.942 44.8357 0.267353
492.291 13.6218 0.346113
461.774 45.7861 -0.220434
443.453 9.21559 -0.202478
631.718 50.5449 0.25502
627.504 47.7399 0.37915
191.338 39.6079 -0.332772
704.108 14.5361 -0.297938
572.473 51.9029 0.343111
10.9014 18.1825 0.170524
406.102 25.7235 0.406584
186.326 23.6263 0.409835
92.6357 39.9155 0.203093
710.744 56.0478 0.446565
626.534 58.7738 0.243632
318.691 26.2632 -0.340889
525.902 10.5841 0.307598
81.6017 45.26 0.173399
246.747 26.5362 -0.45454
544.571 29.422 0.376678
484.676 20.3145 0.382242
262.211 0.87852 -0.338978
542.119 50.8039 -0.363642
525.335 46.2777 -0.453587
479.781 34.995 0.416694
495.641 1.82237 -0.622658
652.618 22.2671 -0.350781
178.558 12.5308 -0.220621
497.646 40.7978 0.485193
552.465 48.1085 0.1159
72.2255 0.976569 0.277062
251.012 4.81373 0.180899
713.747 18.8335 0.212614
706.114 17.0204 -0.541293
717.534 23.5932 -0.695303
303.091 8.75963 -0.2358
681.142 37.3418 0.380837
405.397 43.071 -0.387874
447.385 0.796714 -0.433796
617.008 52.1106 0.438855
26.14 31.4164 0.337769
330.307 43.0488 0.586346
251.851 2.94269 0.363703
693.396 75.7418 -0.22241
655.241 71.9442 0.223976
286.96 11.3193 0.253041
631.538 39.2687 -0.129681
548.823 2.61417 0.303055
535.736 6.2342 0.601384
96.287 18.6616 -0.594687
302.946 1.12452 -0.230814
342.314 2.25025 -0.3711
13.4268 7.53772 -0.470226
4.32041 32.9165 0.298609
160.874 18.9969 -0.396934
67.716 42.182 -0.218392
66.074 29.2577 -0.330723
422.601 14.5443 -0.472409
366.258 35.8985 -0.49057
665.735 75.2493 -0.121866
19.0464 4.11022 0.278636
69.9813 7.04031 0.129697
590.493 63.5949 -0.130818
294.309 0.942452 0.368062
364.282 16.5602 -0.105415
234.897 4.65487 -0.374277
621.153 33.3408 0.217586
450.471 8.35671 0.448799
684.914 37.6232 -0.397722
596.343 53.459 0.328404
629.985 22.3481 0.132187
419.647 28.0638 0.555427
101.607 46.0832 0.306231
531.155 49.6552 0.0706549
679.502 22.3115 0.241748
237.562 31.2344 -0.284761
31.1621 17.6284 -0.210314
335.656 13.8358 0.508738
106.945 41.5211 -0.464183
267.518 42.4575 -0.233697
425.083 1.67246 -0.35804
693.875 65.1663 0.380125
640.704 0.765944 -0.711014
331.668 3.38968 0.590599
300.351 26.9588 0.14952
460.941 42.4815 0.217946
81.0435 8.29025 0.482186
197.295 45.9033 0.377652
676.503 66.8919 -0.354753
492.563 42.6134 -0.101538
199.779 41.9979 -0.30043
160.437 43.2732 0.394471
716.521 71.3455 -0.530854
715.761 16.2004 -0.67933
592.273 3.12342 -0.67484
189.767 25.2025 -0.102057
540.476 34.2452 0.204554
542.294 34.1104 -0.322625
408.904 5.71896 -0.141668
480.976 0.942529 0.382333
664.006 76.049 -0.464396
84.7487 31.5641 -0.262623
625.442 29.8014 -0.414128
274.182 15.6661 -0.38274
9.04847 2.38286 0.334942
125.258 37.9771 0.194842
66.5776 23.1955 0.556319
643.657 63.6132 0.305831
691.47 91.2232 -0.159006
184.964 28.9628 0.196491
710.409 14.0462 0.597607
44.61 36.9504 -0.263653
90.7715 29.7284 -0.187036
607.009 28.0848 0.526348
413.271 18.7817 -0.563238
514.315 18.1096 0.163079
238.034 29.2204 -0.194566
605.768 6.73889 -0.62211
718.564 16.8003 0.428927
29.0176 32.3632 -0.286356
270.211 7.80822 0.200779
221.842 15.3358 0.247589
1.05629 37.5079 0.146713
225.065 14.7961 0.403173
211.492 11.2314 -0.119477
213.984 26.6886 -0.284282
133.257 28.8713 -0.162097
540.684 17.2599 -0.292346
166.681 14.3452 -0.3594
687.541 77.4516 -0.229825
173.917 3.81204 0.519796
46.8439 38.5927 0.435955
674.17 62.2559 -0.4957
281.426 32.3015 -0.404788
639.025 27.0284 0.513065
703.701 66.3961 -0.494485
301.183 9.38923 0.123602
671.017 42.6741 0.376567
328.638 2.47238 -0.447485
416.637 24.931 -0.378042
634.19 19.4069 -0.523857
105.183 11.8656 -0.48514
482.637 4.21359 -0.393727
687.755 38.2029 -0.200455
87.8147 7.69467 -0.243391
281.97 14.9122 0.202519
423.407 11.8238 -0.215244
712.832 2.40507 0.565357
398.008 1.99615 -0.539215
176.492 39.2255 -0.346213
682.35 20.179 -0.298603
128.479 37.289 0.192349
262.884 31.6966 -0.411411
400.699 21.9965 0.218555
562.541 17.4894 0.415224
387.107 9.88575 -0.517303
456.247 28.5485 -0.474631
675.251 84.0233 0.359645
46.8042 11.5294 -0.156447
299.819 39.0629 -0.267054
379.578 28.1442 0.38669
410.144 21.0074 0.288232
519.847 52.4783 -0.356873
690.906 60.2903 -0.196579
632.684 44.5054 -0.387149
225.932 34.7022 -0.39326
13.3326 33.436 0.194469
626.314 49.2876 -0.161821
507.4 46.0676 0.479098
229.24 39.974 -0.131826
639.327 50.7305 0.114318
150.58 9.30066 0.244767
366.725 21.795 0.326689
462.633 43.7076 -0.106269
414.274 20.003 0.243856
670.114 86.1922 -0.291052
426.451 3.91541 0.546141
49.1797 25.6792 -0.326525
469.176 32.98 0.351678
434.578 44.0538 0.3612
690.413 71.5348 -0.22061
668.591 41.2201 0.285521
535.554 20.1207 -0.241196
680.572 74.8535 0.444943
293.865 2.26556 -0.457435
378.022 30.5113 0.502621
28.5519 39.5422 -0.305916
673.362 44.132 0.147878
593.416 21.7629 -0.629001
463.107 0.772074 -0.472734
125.751 4.78047 -0.339773
426.571 41.3735 0.125028
11.4456 0.87905 -0.322516
710.252 6.99738 -0.167479
370.328 39.7986 -0.472329
597.716 7.91069 -0.351374
[...]
POINT_DATA 13483
TENSORS Strain_matrix float
-0.109207 0.188649 -0.431444 
0.184978 -0.0294846 0.339501 
0.00311945 0.0392316 0.26547 

-0.0379671 0.0373547 -4.47945 
-0.00300179 0.00705364 -0.130076 
-0.000258473 -0.000783325 0.0528558 

-0.0219327 0.00654262 1.27947 
0.0284266 0.0198483 0.821131 
-0.00479087 -0.000453422 -0.103335 

0.00540033 0.00421831 -0.0205914 
0.00369781 -0.0225611 -0.101115 
0.000177633 0.00213535 0.0160098 

-0.0367879 0.0360534 0.131701 
-0.126635 -0.0484909 0.0677769 
-0.00561955 -0.00492896 0.117305 

-0.00378474 -0.0255092 0.0956797 
0.021459 0.00508606 -0.162387 
-0.0212612 -0.000233455 -0.0198989 

-0.0100606 -0.00441705 0.00628071 
-0.00283426 -0.00610271 -0.0177134 
0.00269736 0.00805011 0.028956 

-0.261301 0.120512 -0.256191 
-0.0489341 0.144175 -0.169193 
-0.0371917 0.0924073 0.35931 

-0.0499251 0.131501 0.0687809 
-0.115196 0.0583282 0.174741 
0.00468007 -0.0440753 0.222255 

-0.181835 -0.140163 1.11451 
0.201313 0.196644 -3.39753 
0.0051073 -0.0060756 0.521301 

-0.00543437 -0.0033625 -0.00692706 
0.00488323 -0.00392212 0.000872004 
0.000607226 -3.29703e-05 0.0225453 

-0.00545645 -0.00600823 0.00688919 
0.000489947 -0.00130085 -0.00356304 
0.000490054 0.000357729 0.0092462 

0.018098 0.00219589 -0.0946274 
-0.0369075 0.0450566 -0.305269 
0.0248081 -0.0131984 -0.0894923 

0.0871268 -0.225291 0.0512791 
0.344993 -0.0107269 0.264766 
-0.0118788 0.0193552 0.00985565 

-0.0726238 0.0321956 -0.816211 
0.000736143 0.0831297 -0.575812 
-0.0271933 -0.0143522 0.246524 

-0.0138899 -0.0172982 0.0897843 
-0.00168926 0.0085833 0.212272 
-0.00113685 0.00462118 0.0695676 

-0.00605049 -0.00630843 -0.00679771 
-0.00398317 -0.000537724 -0.000504301 
0.0148354 0.00411903 -0.00265792 

-0.0156917 -0.008207 0.0105407 
0.0343217 0.00117086 -0.0245254 
0.0018732 9.31526e-05 0.0210828 

-0.0315459 -0.0410054 1.02488 
0.0404472 0.0103019 0.823117 
-0.00315243 0.000564446 0.17444 

-0.015864 -0.0747362 0.0182303 
0.0380044 -0.0361068 0.498717 
0.00800703 -0.00682202 0.155495 

-0.0754628 0.0497881 0.0812722 
-0.0513033 0.0394719 -0.156572 
0.00504543 -0.000120037 0.0956139 

-0.233611 -0.45554 -14.1579 
0.0645137 0.195272 10.9383 
-0.0189874 0.0363973 1.26636 

-0.0228568 -0.0635944 0.830044 
0.0353077 -0.00809547 -1.29726 
-0.0152089 -0.00468426 -0.585032 

0.0242982 0.0136347 0.109517 
-0.00971428 -0.00956855 -0.260835 
-0.0136601 0.0044525 -0.176503 

-0.0523378 0.0766929 -0.0646639 
-0.103646 0.0158486 -0.0046965 
-0.0116273 0.0189566 0.00546812 

-0.0060486 -0.0165454 0.00212776 
0.0165429 0.00320841 -0.0101621 
0.000114034 0.000181942 0.00367632 

-0.00515749 -0.0291883 0.73606 
0.0118047 -0.00554424 -0.610838 
-0.0065779 -0.0038788 0.489621 

-0.00386622 0.0694667 -0.00821195 
-0.0741795 -0.00146628 0.164315 
0.031297 -0.0116505 0.166826 

-0.00561627 0.0136377 0.151642 
0.0142165 -0.0159942 -0.133734 
-0.00240019 0.00269661 0.0447707 

0.0917903 -0.143349 -0.326341 
0.243704 -0.017725 -0.711168 
-0.0488466 -0.0610176 0.541512 

0.00246289 0.0431586 0.101368 
0.00278359 0.0670051 0.273196 
-0.071572 -0.0402542 0.334078 

-0.00362952 -0.00422544 0.0436263 
0.00288766 0.00390601 -0.016553 
-0.000156493 0.00173642 0.0110915 

-0.00189462 0.0266825 -0.0171509 
0.00211236 0.0179903 -0.132266 
-0.000600215 -0.000952741 0.0141226 

-0.165651 0.00817878 -1.8821 
-0.0204261 0.160462 -1.15128 
-0.00228053 -0.0424996 -0.0276329 

-0.00395153 -0.00441917 -0.0152939 
0.00516098 0.00226979 -0.00204232 
0.000196739 -0.000627837 0.00283947 

-0.24118 0.0600369 -0.41624 
0.0347473 0.178794 -0.42176 
0.00597132 -0.0165704 -0.106681 

-0.0628973 0.00940847 0.505351 
-0.0545553 0.0313327 0.508359 
-0.0115714 0.00509561 0.375067 

-0.278603 0.0982421 -0.48778 
-0.129206 0.241097 -0.378523 
0.0227186 0.0237434 0.0929522 

0.00687758 0.0621894 0.370589 
-0.0647368 0.0217799 -0.013974 
0.042418 -0.00226531 -0.0309902 

-0.0582623 0.0151216 -0.411591 
-0.037765 0.0404153 -1.21379 
0.0170827 0.00480433 -0.154376 

-0.012813 -4.1194e-05 0.00239726 
-0.00432176 0.00734887 -0.000242245 
-0.000331587 -0.000202942 0.00123632 

-0.00691837 -0.0467682 0.00177268 
0.0452249 -0.000155366 -0.0031058 
-3.09615e-05 -0.000126193 0.0142427 

-0.126627 -0.0556884 0.0558472 
-0.0443589 0.0282883 -0.216892 
0.00137736 -0.0110758 0.0589617 

-0.0063476 0.00201914 -0.0617175 
-0.0027502 0.00255259 -0.0100771 
-0.000122041 -0.000188025 0.00391773 

0.00878803 0.00945334 0.00941511 
-0.0257297 -0.00417334 0.00684403 
0.00109183 0.00105759 -0.00816997 

-0.000306807 0.00310768 0.000377917 
-0.000821423 -0.000355522 0.00126937 
-7.42855e-05 3.65827e-05 0.000284691 

-0.00916725 0.0013031 -0.00577402 
-0.0773027 -0.00506388 0.0892174 
-0.00440564 -0.0117188 0.0449139 

1.91962e-06 -0.0095689 0.00102195 
0.00999791 -0.0021443 0.00196008 
-1.14189e-05 -0.000333621 0.0015568 

0.257302 0.0202378 1.34462 
0.343971 0.00080167 -0.993521 
0.0615488 0.000529264 0.959586 

-0.470766 0.0582798 -2.29734 
-0.279805 0.278383 0.804261 
0.0194289 -0.000566182 0.094433 

0.00490981 0.0332774 -0.101495 
-0.037153 -0.00137411 0.0100172 
-0.000629848 -0.00165835 -0.0209808 

0.0219448 0.0163133 -0.0219751 
-0.0203872 -0.0103465 -0.0720413 
-0.0106045 0.0202304 -0.0171503 

-0.000613466 0.00965171 -0.0206708 
-0.000145831 -0.000220015 0.00848625 
0.000282185 -0.000266117 0.00588063 

-0.2226 -0.0500228 0.416954 
0.0305762 0.0460178 -0.630991 
0.06789 0.132905 -0.650436 

-0.0148253 0.0199189 -0.0886024 
0.00225695 -0.00885988 0.0369144 
-0.000257008 0.000214301 0.018219 

-0.0271991 0.118669 -0.264752 
-0.140178 0.00775998 -0.127177 
-0.0137302 0.000244346 -0.0363991 

-0.0947987 0.0701945 -0.260935 
-0.0840642 0.065331 -0.118536 
0.0775212 0.0334717 0.491219 

-0.0115638 0.00300802 0.0413165 
0.00233863 0.0223662 -0.0119712 
0.000293048 0.00204508 0.0123574 

0.00286347 -0.00198285 -0.0120185 
0.00193545 0.00595877 -0.0111075 
0.000429021 0.000415487 -0.0153541 

-0.0252167 -0.0762496 0.0502155 
0.0532262 0.00866593 0.0218108 
-0.0392152 0.0234225 0.0813266 

-0.0562726 -1.10311 -5.04467 
0.0649862 0.09419 0.836144 
0.000455032 0.0101468 0.693811 

-0.120895 -0.0573318 1.0664 
-0.0885636 0.174344 -0.433924 
-0.0122877 0.0167052 0.0912972 

-0.00763139 0.000413296 0.00863081 
-0.00237903 -0.00178645 -0.00593966 
0.000252318 0.000346292 0.0124378 

-0.0609479 -0.00944278 -1.48055 
0.0345146 0.0371632 1.45395 
0.00389855 0.00041891 0.103899 

-0.00477611 -0.00546853 -0.00453779 
0.00762205 0.000496269 -0.00823824 
0.000712741 0.000390241 0.00529868 

-0.0553659 0.0574205 0.307788 
-0.0496092 0.0396593 0.0899901 
-0.104254 0.0328334 0.26482 

-0.0237695 -0.0101129 0.0401277 
-0.0487793 0.00614896 -0.00579653 
-0.0092949 -0.00557562 0.0126969 

-0.371708 -1.57193 -2.21845 
-0.15606 0.140076 1.30568 
-0.017965 0.0315625 0.299862 

-0.0149536 -0.00127347 0.0441292 
-0.00753901 -0.000232622 -0.33416 
-0.000971665 -0.00170322 0.0975133 

-0.198561 0.0255981 0.324423 
0.129744 0.160311 -0.280813 
-0.0444162 -0.0532851 0.125118 

0.0517145 -0.0582747 0.0495552 
0.0581455 -0.0122963 -0.0099497 
-0.0304941 -0.00865924 -0.101279 

-0.0462847 0.0432236 -0.139572 
-0.0409328 0.0326873 -0.0145599 
0.0983915 0.0261555 0.53855 

-0.0144963 0.0894128 -0.174475 
0.142752 -0.0263144 -0.159177 
-0.0026841 1.12238e-05 0.0124869 

-0.0127335 -0.025804 -0.0507092 
0.00936896 0.00111462 -0.0510482 
-0.00369636 -0.0016656 0.0130113 

-0.00418903 -0.00294496 0.0392368 
-0.00726984 -0.000723727 -0.0566151 
-0.000548716 -0.000125179 0.0367619 

-0.00586552 -0.00727939 0.0014573 
0.00151283 0.00376855 0.00029977 
0.00132561 -0.000143292 0.000643731 

0.00936605 -0.0663917 1.25751 
0.0846473 -0.0166527 -1.05688 
-0.00570557 0.0169105 1.38381 

-0.00333634 -0.0279819 0.0518462 
0.0427105 0.00539473 0.0188789 
0.0030519 -0.00159552 0.0145596 

-0.148841 0.130546 -0.387038 
-0.351763 0.166662 0.63303 
0.0227029 -0.0467162 -0.197436 

-0.00293132 0.0473539 -0.00252609 
-0.0740583 -0.0308268 -0.00281103 
0.00158581 0.0198869 0.0606702 

-0.142077 0.234071 -0.0450815 
0.0874054 0.211559 0.427177 
0.0191276 -0.0739089 -0.1147 

-0.163693 -0.193067 0.733023 
-0.0357617 0.191183 -1.14115 
0.00244853 0.0105877 0.0403353 

-0.00792192 -0.0184982 0.0349875 
0.0118914 0.00820259 -0.0173971 
-0.00380104 -0.000396423 0.0751778 

-0.709289 -1.93928 -3.13037 
0.0938944 0.418313 0.61279 
0.0501642 -0.00145438 -0.305769 

0.0210841 0.136694 0.0428714 
-0.182145 0.00598964 -0.00740662 
-0.0117783 -0.00433119 0.0172258 

-0.00887216 -0.0464286 -0.033768 
0.0128191 -0.00237763 0.0024225 
-0.000334004 -0.00160985 0.0189456 

-0.204217 -0.00317812 -0.0991209 
0.00051958 0.180011 0.410714 
-0.0843934 0.0212938 -0.184712 

-0.00653316 0.000375737 0.00215007 
-0.0151497 -0.00908365 0.139405 
0.00179888 0.000498809 0.0162485 

-0.166989 0.133058 0.250907 
-0.0981455 0.0564121 0.336562 
0.0119857 -0.0232504 0.236523 

0.00263853 0.0879598 57.2868 
-0.000208012 -0.00706383 -0.451278 
7.71728e-05 0.00131765 -0.133002 

-0.00238164 -0.0247315 0.00349031 
0.0205653 0.00158483 -0.00547512 
0.00048373 -0.000959704 0.0125155 

-0.0668529 0.033968 -0.25387 
-0.109152 0.0230633 0.0109392 
0.0200644 -0.00815345 0.0572825 

-0.0964293 -0.269062 -0.103435 
0.0448448 0.070021 0.832022 
-0.0087332 0.000504722 0.110949 

-0.00232975 0.00226746 0.00202057 
-0.00281221 -0.00409937 0.0260113 
-0.000887287 -0.000112305 0.013608 

-0.00303309 0.00388015 0.11173 
-0.0119246 0.0045556 -0.195735 
-8.2822e-05 -0.00101883 0.037984 

-0.129161 -0.262783 0.267291 
0.0431844 0.21165 0.228853 
-0.0192615 -0.080425 0.341653 

-0.0131456 0.0037781 0.0174074 
-0.000255487 0.00566998 -0.00480982 
-0.000412389 -0.000558501 0.0119252 

-0.0143954 -0.0336416 -0.00364892 
0.0163186 -0.00132121 -0.0376039 
-0.0029801 0.00151979 0.0286638 

-0.0648686 -0.198513 1.1194 
-0.0443142 0.136654 0.023803 
0.0340633 0.00476354 0.0653276 

-0.0298035 0.0242426 0.15126 
-0.00364577 0.0309343 -0.275752 
-0.00461423 -0.000660553 0.0335546 

0.00898185 -0.00549057 -1.64664 
-0.0487676 0.029167 0.449051 
0.00423816 -0.000210007 0.0574453 

0.00857238 -0.193622 1.06527 
0.153768 0.0521969 0.414872 
-0.0137188 0.00598926 0.605445 

-0.0086807 0.00694988 0.286749 
-0.0145775 -0.000511408 -0.285663 
0.00534363 -0.011399 -0.0800114 

-0.00337201 -0.0215077 0.00803089 
0.0164347 -0.0126273 -0.0119153 
-0.00137295 0.000880885 0.0246367 

-0.0226672 0.029215 0.136248 
-0.0662849 0.0095801 0.570036 
-0.00186386 0.000747636 0.150691 

-0.164578 -0.11259 0.0339814 
0.199492 0.0959972 -0.252785 
0.0468647 -0.0406498 0.318079 

-0.0774348 0.0661198 -0.25962 
0.184322 0.0749031 0.0903652 
0.0782288 -0.0163444 0.064194 

-0.00944059 -0.0016018 0.00248919 
0.000253096 0.00396672 0.0111931 
-0.000788607 0.000320827 0.00472281 

-0.0107682 0.00278753 -0.000350199 
0.00956372 -0.0136057 -0.00227277 
0.00104686 0.000451953 0.0416881 

-0.279577 0.412298 -0.0720364 
-0.118088 0.110668 -0.173744 
-0.0439921 0.000312395 0.417132 

-0.0484463 0.0353121 1.77291 
-0.0736223 0.0153864 -0.907963 
-0.011672 -0.00819827 -0.332649 

-0.0229993 0.00252946 0.00825014 
-0.0249962 -0.00828987 -0.253806 
0.000499715 0.000691557 0.0217648 

-0.000693437 -0.00176948 0.000242861 
-0.00317563 0.00439258 -0.0155457 
-7.75007e-05 -0.000162315 -0.0141638 

-0.221334 -0.140028 0.481168 
-0.118244 0.185762 -1.11731 
-0.0546608 0.0281743 0.609648 

-0.108721 0.0304406 0.0351818 
0.00929548 0.129566 -0.0673585 
-0.0133874 0.0152631 0.151517 

-0.00514035 -0.00645744 -0.0117961 
0.00537793 0.00121179 -0.0153538 
0.000466381 -0.000357357 -0.0322077 

0.00302415 -0.00445373 -0.00395664 
0.00716842 -0.00447718 0.00815181 
-0.00140097 -0.000909961 0.00078654 

0.00761086 0.0467346 0.0264104 
-0.0514849 -0.00988008 0.0571763 
-0.00115119 -0.000553396 0.00403512 

-0.262102 0.058458 0.952449 
-0.280868 0.371597 -0.53443 
-0.0053866 0.000335602 0.0692618 

-0.0192694 -0.00637867 0.107112 
0.0215554 0.00308585 -0.00341612 
-0.00524315 0.00653068 0.164899 

-0.0793571 -0.0799477 1.14163 
0.117507 0.038345 -0.459644 
0.0146154 -0.0257903 0.19544 

-0.324644 -0.229023 0.258661 
0.298216 0.320667 -0.251608 
-0.0217196 -0.0127 0.210676 

-0.00540818 0.034675 -0.0222867 
-0.0456212 -0.000699327 -0.00993105 
0.00120399 0.00070719 0.015012 

-0.172326 -1.25073 -2.47838 
-0.414256 -0.0139615 -0.543519 
0.02948 -0.0341414 0.31442 

-0.0133848 -0.00882431 0.681918 
0.00134295 0.00357777 -0.389051 
-0.000652541 -0.000170821 0.154954 

-0.011637 -0.00983731 0.0546364 
-0.0179682 -0.0098988 -0.0778881 
0.00175619 -0.00190438 0.0326405 

-0.00304593 -0.0094425 -0.187868 
0.00330117 0.00436443 -0.0154794 
-0.00116155 0.0029657 -0.0123408 

-0.0811058 0.0448643 -0.302676 
0.129761 0.096032 0.147123 
0.013375 0.0171414 0.145384 

-0.0530251 -0.224344 -0.470034 
0.249811 0.110646 -0.150922 
0.0451097 0.029424 -0.0677947 

-0.0080146 0.00153341 -1.91771 
0.00417111 0.005415 -0.15711 
0.00122556 -0.000394728 0.222068 

-0.0213016 0.0967831 0.277885 
0.0794658 -0.00532146 0.0516375 
0.00529528 -0.00225292 0.00866145 

-0.289664 -1.37423 -3.45452 
-0.173173 0.149419 0.0468659 
0.0402267 0.0732498 0.0349709 

-0.0127098 -0.00775713 -0.218353 
0.0636882 0.0255854 0.367744 
0.00429846 0.0029113 0.0831309 

-0.0307411 -0.321261 -0.249331 
0.0147043 -0.122749 0.0398978 
0.0617642 0.0293042 0.0891303 

-0.0754956 0.0821291 0.41623 
0.0211505 0.0674558 0.300702 
-0.000442428 0.00210457 0.0183205 

-0.00800482 -0.00118157 0.0177422 
0.00682209 0.00859841 0.0115989 
-0.000864166 -9.95459e-05 0.000894915 

0.128732 0.0100337 -0.731065 
-0.143044 -0.0284047 -0.0122777 
0.00192493 0.0485137 0.0583696 

-0.0077536 -0.00725394 0.00147978 
0.0104586 0.000956987 -0.0711043 
0.000861968 0.000303967 0.00897132 

-0.212141 -0.146928 -0.0581869 
0.447377 0.24184 0.222247 
0.0501739 -0.0280983 0.0908031 

-0.0152317 -0.0120374 -0.0202048 
0.0616191 0.0080186 0.00716122 
0.0211617 -0.00132483 -0.0519317 

-0.0691252 0.008229 0.0183532 
-0.000118934 0.0587377 0.234698 
0.00793615 0.00362691 0.537357 

-0.0140147 0.0331096 -0.0314518 
-0.0299181 0.00521813 -0.0274373 
0.00354868 -0.00119707 0.0195804 

-0.0191653 -0.0179093 -0.00388753 
0.028805 0.00225434 -0.0098898 
1.45971e-05 -0.000252942 0.0313632 

-0.0101473 -0.02314 -0.0070643 
0.0217187 0.00548402 0.0111393 
0.00287386 0.00366598 0.0140947 

-0.00144592 -0.00225003 0.010339 
0.010946 -0.000666019 -0.000909118 
0.00124667 0.000314631 -0.00207781 

-0.00571845 0.0127847 0.0631132 
-0.00212894 0.00419753 0.0672082 
-0.00157226 0.00200739 0.0395431 

0.0724263 0.0921722 0.042408 
-0.11683 -1.14985e-05 -0.163087 
-0.0301467 0.0500438 -0.0598485 

-0.00107937 0.00494146 -0.0178948 
-0.00293983 0.00270987 0.037748 
-0.000504073 0.00100693 0.00441205 

-0.0564541 -0.0107327 -0.590677 
0.0235879 0.055119 -0.0446706 
0.00248262 0.00495442 -0.0230613 

-0.00495859 0.000233417 -0.0134283 
0.00883226 -0.00432226 0.0286046 
-0.00155785 0.00074892 0.0153901 

-0.0470589 0.0151498 0.247616 
0.0703009 0.0778249 0.106641 
0.00567162 0.00329082 0.0198294 

-0.00481585 -0.00573327 -0.0288171 
-0.0145543 -0.000528086 0.00870139 
-0.000744308 -0.00269276 0.0081646 

-0.00183998 0.00280739 0.0134409 
-0.00107998 -0.000382297 -0.0025127 
3.2339e-05 0.000262504 0.0134042 

-0.00408029 0.00260385 -0.15819 
-0.0066781 0.00104072 0.129772 
0.000445279 8.02923e-05 0.0560237 

-0.00683955 -0.0014549 -0.0264438 
0.00754187 -0.00285354 0.0244073 
0.000702197 0.000229165 0.0230328 

0.115001 0.126084 0.0530932 
-0.234428 -0.24878 0.597316 
-0.115717 0.00952808 0.611937 

-0.0475373 0.010082 0.638549 
-0.194956 0.102318 0.147888 
-0.00296172 -0.0678237 0.537852 

-0.00264679 0.0029546 0.0409666 
-0.00200917 0.000472979 -0.0095261 
-0.000236776 -4.13493e-05 0.00371453 

-0.0171418 -0.252001 -4.38341 
-0.0604289 0.045739 1.3364 
0.00111907 0.0300809 -0.276097 

-0.188094 0.0972293 -5.7206 
-0.0302641 0.153166 4.41621 
-0.00434107 -0.00571493 0.337994 

-0.0167744 -0.00981041 -1.85806 
-0.0982774 0.0231274 -0.226447 
0.00860354 -0.00712926 -0.332688 

-0.083176 -0.0840163 0.353713 
-0.0356588 0.00895036 -0.0100077 
0.0093001 -0.194149 0.798973 

-0.371031 0.284204 2.33166 
-0.222309 0.283982 1.71558 
-0.0217833 -0.0101366 0.170405 

-0.0655611 -0.806272 69.5605 
0.0274816 0.16194 2.4206 
-0.00046417 0.000189836 0.228904 

-0.0575097 0.0395289 0.0703088 
-0.0317533 0.000151128 0.00109596 
-0.00558613 0.00503897 0.0582282 

0.0078376 0.0126043 -0.00897078 
-0.00450154 -0.0147729 -0.0444482 
-0.0011954 -0.000650565 -0.00768659 

0.000949834 0.000607653 -0.000524581 
0.0054781 -0.00331605 0.00111091 
0.000308928 -0.00081594 0.0085401 

-0.00300612 -0.0192592 0.00503204 
0.00854823 0.00322618 -0.0100864 
-0.00915181 -0.00170511 -0.017884 

-0.00754987 0.000706163 -0.00296025 
-0.00113167 -0.00147896 -0.0215816 
8.70215e-05 0.000144521 0.0123291 

-0.00294741 -0.0014116 0.00304487 
0.00115841 0.00165103 0.00681835 
-0.000274375 -3.55279e-05 0.00455377 

-9.74407e-05 0.00390025 0.00180895 
-0.000273644 0.000630951 -0.00231034 
-0.000309846 0.00115771 -0.00597949 

-0.00717596 -0.000746427 -0.0260421 
0.00299516 0.000494907 -0.0266569 
0.000396842 -0.000390452 0.0129143 

-0.00865946 -0.00458199 0.0271797 
0.011767 0.00812648 -0.218352 
-0.00124232 -0.00284566 0.00919385 

-0.255734 -0.19559 -1.03299 
-0.174306 0.316935 1.465 
0.0192795 0.0125983 1.08133 

0.277526 -2.31039 7.53174 
0.612876 0.885575 -2.85529 
-0.0524251 0.0823163 0.322525 

-0.00506356 -0.060608 -0.173808 
0.0343841 -0.0119149 -0.216655 
-0.00434441 0.00633623 0.0432912 

0.0121502 -0.029672 -0.158447 
0.0162535 -0.0191673 -0.0860342 
-0.00780351 0.00274295 -0.11049 

-0.0102374 0.00152771 -0.00175044 
-0.000349881 -0.000546111 -0.00506255 
-0.000155128 -5.22798e-05 0.0214719 

-0.0130277 -0.0601903 -0.161606 
0.0481246 0.00316899 -0.0494268 
0.000856139 6.02322e-05 -0.0846968 

-0.00226166 0.0107287 0.0314159 
0.00527735 -0.0060259 0.0322527 
-0.0051395 0.000434037 0.00307793 

0.011962 -0.00817337 -0.135964 
0.035297 0.00238181 -0.139868 
0.00169261 -0.000467466 -0.00397668 

-0.30777 0.0554902 0.453556 
-0.0956688 0.158437 -0.625845 
0.0591211 -0.00603633 0.525188 

-0.0977031 0.0316602 -0.177723 
0.117925 0.0232357 -0.416343 
-0.0457949 0.0541577 0.141732 

-0.00912296 -0.000482213 0.0597494 
0.00108542 0.00620394 0.0934368 
8.21143e-05 4.79642e-05 0.0378535 

-0.0175738 -0.014221 0.0227086 
0.022268 0.00584296 -0.0248705 
-0.00175101 0.000776973 0.0167813 

-0.0150485 -0.00440942 -0.210438 
0.0382191 0.0152181 -0.0606483 
0.0267275 -0.0208932 -0.0508257 

-0.0239465 0.00639309 0.0139952 
0.00482291 0.00116726 -0.0316425 
0.000731982 0.000572028 0.00208504 

0.044491 -0.00794716 -0.0292565 
-0.025493 -0.0619398 0.0914768 
-0.00271353 0.00420885 0.00329088 

-0.0106577 -0.0170336 0.0847671 
0.00691355 0.00185888 0.00528476 
0.00877721 -0.0243333 -0.10681 

-0.237469 0.0191708 -0.34026 
0.144783 0.143345 0.0564993 
-0.0216973 -0.00847392 0.245792 

0.0177489 -0.00998777 0.0143045 
0.00270309 -0.00698784 -0.00827768 
-0.0021636 -9.13207e-05 -0.0255894 

-0.042408 -0.000979894 -0.0602328 
0.0314465 0.016664 0.04212 
0.00140222 9.06633e-05 0.0351258 

-0.0949314 -0.0911425 -0.498245 
-0.008793 0.0296145 0.0623998 
0.00999023 0.00728497 0.0321279 

-0.510731 0.231762 -5.09925 
0.275215 0.153744 3.78155 
0.0163971 -0.00490298 0.529126 

-0.0476068 0.0214921 0.112637 
0.191835 0.0574649 -0.496871 
-0.000181301 0.000117033 0.0593368 

-0.0310791 -0.0413098 0.0094761 
0.0404656 0.00947051 0.00849523 
0.000522297 -0.000577778 0.0348313 

-0.0664439 0.0181462 0.113783 
-0.0512527 0.0695666 0.0949431 
-0.0581007 -0.00170635 -0.174046 

-0.139213 -0.0391569 0.0345854 
0.117858 -0.0622089 0.200501 
-0.0281955 0.0341588 0.0132103 

-0.0925894 0.119942 0.203452 
-0.121835 0.0255811 0.00231705 
-0.0344861 -0.0677199 0.3086 

-0.220493 -0.117073 0.0711064 
-0.160447 0.0349628 0.130416 
0.0140259 0.0143435 0.764762 

0.0175276 0.147871 0.0898327 
-0.0605022 -0.0234123 0.14212 