# vtk DataFile Version 3.0
Output file generated by Yade's KinematicLocalisationAnalyser
ASCII
DATASET UNSTRUCTURED_GRID

POINTS 13483 float
640.242 27.7967 -0.509687
835.585 48.6281 -0.519922
125.338 6.0795 -0.442125
876.145 5.87003 0.261968
521.227 7.72984 -0.272035
327.226 34.9412 -0.466519
163.147 6.84598 0.433282
597.909 10.089 0.141853
517.969 22.55 0.146696
775.886 12.1716 -0.427983
219.157 8.9643 -0.104792
267.352 6.29195 -0.264681
692.564 28.3018 -0.189399
669.621 13.9273 0.0756474
142.843 17.0948 0.434445
230.603 34.3499 0.405451
226.652 12.9338 -0.286805
300.454 9.5466 0.386335
354.451 32.5921 -0.297486
548.48 8.53278 0.354427
427.748 36.3523 -0.114661
622.429 43.6776 0.255615
873.435 35.4615 0.4731
747.273 41.1491 -0.468039
478.213 16.0191 0.302563
250.737 44.0918 0.132699
512.966 27.1815 -0.49136
615.868 19.3393 0.211812
47.1466 15.5011 -0.424551
770.373 31.3357 0.0887343
503.235 4.91869 0.316225
17.3498 23.1366 -0.286804
849.564 45.1932 0.293759
516.937 2.47773 0.484427
81.4665 44.172 0.100311
545.32 29.9857 0.32989
555.09 16.5934 -0.402662
357.755 22.4266 -0.174448
558.566 25.2564 -0.321341
365.077 32.8593 -0.444236
250.866 14.6476 0.315431
452.329 35.4969 0.0698854
721.746 7.06702 -0.12531
200.967 6.208 0.374332
57.9086 6.90717 -0.127015
71.4993 8.90402 -0.270759
739.882 8.38414 -0.462287
24.5749 11.668 -0.282363
644.17 44.0851 0.332704
723.959 22.9429 0.335366
180.117 32.1798 -0.299809
831.01 35.7629 -0.16032
36.6233 27.9415 -0.114286
559.173 2.96476 0.322218
148.283 7.30865 -0.465819
625.017 33.0378 0.418757
526.912 26.4526 -0.150288
182.367 0.932799 -0.269307
34.1906 2.37055 0.320464
362.904 17.6691 0.28235
656.404 44.8239 0.141364
482.114 33.2906 0.178688
416.235 1.02824 0.195525
752.3 7.62861 -0.318119
27.8137 42.7971 -0.234888
266.992 30.4129 -0.315269
775.908 7.56788 0.204545
715.245 43.2753 0.367682
435.397 8.57441 -0.490552
598.721 3.52212 -0.346732
808.689 29.8995 0.441361
136.494 7.59004 0.285964
520.753 25.4807 -0.137849
498.703 14.7473 -0.145057
306.821 16.645 -0.332053
21.745 13.6261 -0.263894
857.387 35.1551 0.385723
346.634 38.6187 -0.280623
720.698 19.7352 0.347348
739.822 12.4164 0.214622
862.229 11.8943 -0.250763
485.673 34.1569 -0.170124
96.4919 38.1358 -0.263973
733.734 33.5456 0.213726
688.807 38.0582 -0.111814
881.073 41.2167 -0.127836
855.855 0.71619 -0.553632
303.497 28.7227 0.456849
658.078 6.31077 -0.119574
25.422 5.19257 -0.46751
138.841 37.988 -0.160683
537.048 14.3113 0.205405
848.713 27.9619 -0.494777
204.155 28.5521 0.226214
46.4907 34.1772 0.284632
515.829 1.15579 0.122834
246.092 8.9285 -0.360048
811.416 39.1308 0.259937
835.47 28.5927 0.219285
377.268 20.6094 -0.256731
171.572 26.6479 -0.4689
578.148 37.9253 0.417831
396.985 15.3412 -0.433957
432.03 29.4692 0.125976
395.13 4.44521 0.411999
576.122 10.8471 -0.0942158
880.091 12.4581 0.196747
83.8049 39.1346 0.389509
350.322 4.81723 -0.183284
591.15 9.48025 -0.349574
376.463 43.3764 0.448321
27.0636 24.5234 -0.460057
31.8673 5.79759 -0.328725
599.767 31.9649 -0.449501
529.987 24.0181 0.139373
27.6092 36.7548 0.41018
97.5313 30.5048 -0.220571
339.929 15.8774 -0.30086
635.413 18.5376 0.115959
498.335 37.5122 0.312589
794.827 7.46249 -0.374295
786.345 6.29157 -0.224974
405.167 37.014 0.0964469
676.461 25.1445 -0.102097
249.508 16.9048 0.473085
345.364 3.70721 0.462197
108.537 31.3023 0.374384
122.06 24.0563 -0.266087
573.253 38.1755 0.0750429
320.379 18.8213 0.47369
765.859 34.396 0.0989856
719.312 42.4916 -0.11041
504.608 20.4195 -0.370019
839.523 12.1282 0.319621
449.668 23.196 0.22035
290.048 24.308 0.298393
722.143 29.8875 -0.243685
292.257 28.3639 0.375679
609.832 11.4413 -0.199028
347.692 35.2972 0.195158
531.117 11.4212 0.464243
384.633 31.229 0.0970697
451.965 16.6041 -0.106005
333.617 41.8133 -0.303387
200.29 29.6181 0.128922
841.265 46.4306 0.173227
876.457 13.4714 -0.320672
6.3419 12.134 -0.469604
456.003 22.2906 -0.420627
40.3439 22.3858 0.0753386
395.133 31.008 -0.462705
414.961 24.6714 -0.262163
78.7471 11.8763 0.488665
54.4565 33.1064 -0.430875
237.223 13.2973 0.446629
657.986 37.6717 0.477456
612.292 20.2067 -0.454165
78.8887 20.802 0.489453
750.223 44.8086 0.424817
825.521 3.40792 0.574369
707.184 39.8545 -0.459881
747.438 2.36853 0.372388
582.583 26.2717 -0.280047
624 44.2926 -0.434167
540.902 17.6573 -0.411331
873.756 3.18157 -0.451682
235.171 24.5435 0.11254
134.413 34.9248 0.193443
260.007 6.57447 -0.378404
99.5612 4.18391 0.262039
67.7328 10.1244 0.19073
290.133 35.745 0.308435
17.4713 25.0541 -0.379332
588.895 19.26 -0.387077
644.026 38.9967 0.207311
487.774 20.9306 -0.37462
865.949 46.079 0.390999
428.323 8.52245 -0.0991073
459.122 35.5762 -0.36055
567.957 3.43441 -0.189133
24.1312 23.876 0.389272
612.853 4.4317 -0.348975
578.279 4.34001 -0.287724
217.325 11.4571 0.486378
447.954 16.3357 -0.191185
327.706 6.2863 0.332711
408.795 18.8527 -0.329846
797.921 41.1504 0.106711
202.578 25.5237 0.423894
847.875 6.69485 -0.34444
797.145 37.1511 0.415557
403.923 10.1634 -0.174583
772.901 2.41038 -0.440528
644.216 25.3654 0.396335
802.437 17.7066 -0.3747
454.23 42.3541 -0.276311
525.129 12.4973 0.34171
491.181 43.6366 -0.222036
470.043 8.6296 0.119378
710.737 38.564 -0.282035
708.283 35.1827 0.382807
202.821 38.8182 -0.33231
860.129 11.3685 -0.115991
625.919 44.4423 -0.232351
11.9324 16.9218 0.1789
429.614 25.1229 0.379569
197.618 22.9975 0.405976
98.1592 39.0236 0.201071
845.025 25.0501 0.467774
704.193 43.9721 0.236025
336.299 25.398 0.347182
564.666 10.1506 0.318038
86.7626 44.27 0.165136
261.088 25.9419 -0.484837
591.808 23.4445 0.346297
514.504 18.3821 0.44255
277.067 0.886825 -0.343047
587.747 39.5018 -0.371052
566.387 40.2064 -0.467093
509.925 32.7715 0.395597
528.404 0.795825 -0.504821
758.744 18.221 -0.337912
189.617 11.9918 -0.182514
529.913 35.8863 0.452103
600.682 39.4855 0.132992
76.9605 0.943271 0.274983
265.499 4.71778 0.173936
875.583 15.393 0.191085
861.845 13.9821 -0.494133
881.143 17.9646 -0.469019
320.004 8.55682 -0.233288
809.596 21.8646 0.386297
429.687 41.2804 -0.371232
474.356 0.814457 -0.398623
695.419 35.2814 0.579772
28.673 30.4362 0.312738
348.826 41.1083 0.490038
266.366 2.85069 0.321301
854.554 42.7579 -0.0414285
769.902 46.6418 0.238284
303.12 10.8988 0.220678
714.995 28.3981 0.0896383
592.93 2.6656 0.295665
575.99 6.41395 0.417056
102.358 18.2693 -0.48227
319.84 1.03197 -0.223222
362.29 2.27666 -0.358308
14.7596 7.62481 -0.329474
4.64702 30.6518 0.251205
171.075 18.8135 -0.383215
72.1409 41.3818 -0.211446
70.6384 28.5618 -0.326915
447.631 14.4605 -0.428084
387.639 34.9779 -0.46568
828.724 37.6381 0.140693
20.657 4.03143 0.26798
74.633 6.8846 0.122372
668.128 36.8236 -0.173478
310.975 0.914029 0.354041
385.49 16.0133 -0.0910456
248.824 4.67339 -0.373218
700.008 21.1602 0.182773
477.652 8.30436 0.408754
812.741 19.6427 -0.370647
675.585 28.4518 0.317301
719.806 17.8438 0.0782169
444.097 26.6182 0.482782
108.042 44.5762 0.306719
576.947 41.7075 0.0734687
800.22 13.197 0.208989
251.228 30.2308 -0.262754
34.0162 17.002 -0.188486
355.24 13.6766 0.50029
113.976 40.0972 -0.471438
282.812 42.0073 -0.202771
449.885 1.09575 -0.230134
854.319 31.7209 0.420208
739.824 0.794869 -0.500307
350.903 3.19715 0.521011
316.938 26.4664 0.141544
489.956 40.5148 0.209516
86.2163 7.97622 0.41351
209.252 44.7678 0.377693
838.381 31.1525 0.433425
524.838 38.6597 -0.0882116
211.66 41.3148 -0.259634
170.402 41.9576 0.0610155
881.174 35.5845 -0.619186
878.548 13.1369 -0.574496
647.677 3.50309 -0.497842
201.177 24.414 -0.0972732
584.606 27.4048 0.113101
586.617 27.1172 -0.269199
433.02 5.59545 -0.139504
510.596 0.929377 -0.284418
826.541 39.2502 -0.483682
90.0058 30.8667 0.211509
706.131 18.2229 0.420116
289.981 15.4964 -0.350783
10.3758 2.30842 0.348139
132.966 36.7241 0.190143
71.0493 22.9504 0.479097
758.412 35.8746 0.331067
856.649 52.7021 -0.0131858
196.461 28.21 0.186749
871.679 13.0017 0.464712
47.7956 36.2621 -0.250079
96.3667 28.8538 -0.167676
679.897 12.9042 0.481529
437.57 18.1602 -0.474447
551.731 16.6113 0.113552
251.824 28.2677 -0.186048
665.474 4.48944 -0.396589
882.729 12.3104 0.389881
31.655 31.4707 -0.272363
285.623 7.7347 0.189693
235.042 15.0634 0.274976
1.10419 35.2354 0.148161
238.278 14.5154 0.39049
224.095 11.0498 0.10527
226.909 26.328 -0.289864
141.01 27.6851 -0.133351
582.909 14.9782 -0.342164
177.159 14.1292 0.326513
848.285 43.8204 -0.23866
184.463 3.79002 0.508687
50.203 37.921 0.37969
804.305 47.8148 -0.426517
297.309 31.5888 -0.38966
730.546 21.8383 0.476304
863.798 31.741 -0.518375
318.059 9.19033 0.103437
795.827 29.1323 -0.3245
347.702 2.60102 -0.374893
440.668 23.9166 -0.353289
726.294 15.941 -0.421227
111.906 11.8492 -0.44498
512.316 3.90265 -0.474955
815.892 18.5423 -0.160272
93.669 7.71193 -0.205309
297.933 14.6359 0.197874
448.465 11.6487 -0.199532
873.11 2.24231 0.643562
421.292 1.94051 -0.526578
187.547 38.57 -0.297553
803.212 10.2271 -0.372441
136.25 36.0185 0.194326
278.205 31.2705 -0.399189
424.184 21.4563 0.21079
612.309 13.2724 -0.33126
409.954 9.76839 -0.478012
483.887 27.3883 -0.311034
836.698 48.3036 0.39381
50.4704 10.9098 -0.110505
316.573 38.3114 -0.260873
401.893 26.8842 0.350141
433.932 20.8018 0.253528
554.349 43.9819 0.3565
819.973 36.5097 0.259613
714.22 34.1104 -0.375684
239.272 34.105 -0.391491
14.8207 31.2757 0.161788
706.713 36.2979 -0.136623
540.935 40.6116 0.411601
242.991 39.1959 -0.104347
737.261 30.1082 -0.166033
160.344 9.20351 0.214506
388.204 21.1384 0.323847
491.783 41.5544 0.100215
438.62 19.4927 0.205496
832.237 49.8679 -0.291126
451.413 3.43265 0.432383
52.8201 25.0793 -0.304263
498.755 31.2426 0.341169
460.956 41.5781 0.377264
851.597 38.2082 -0.223301
793.032 27.9379 -0.247143
576.413 18.317 -0.206947
842.167 39.939 0.484415
310.488 2.20208 -0.462386
400.625 29.3491 0.484809
30.8629 38.495 -0.293802
798.828 29.784 0.20791
652.478 19.333 -0.478996
491.136 0.768973 -0.479906
133.938 4.48079 0.282103
452.322 39.8383 -0.113038
12.8785 0.89895 -0.318589
871.582 6.39441 0.212501
392.135 38.9576 -0.397911
653.706 7.29804 -0.397791
[...]
POINT_DATA 13483
TENSORS Strain_matrix float
-0.0422565 -0.0183329 1.10744 
0.00728394 0.0315897 0.216028 
0.00171448 -0.00288934 0.595118 

-0.0712979 -0.16031 6.99054 
0.0648899 0.234355 -5.0485 
0.00319212 -0.0276367 0.260308 

-0.0404588 0.00313289 0.00558406 
-0.0045226 0.0118025 -0.0437778 
-0.0166021 0.00758351 0.165204 

-0.221542 0.0550374 -0.326155 
-0.0347919 0.09945 -0.0875504 
-0.0131489 -0.00216036 0.183416 

-0.0439095 0.00755992 -0.00814274 
0.00861843 0.0499988 -0.213365 
-0.00298524 0.0122386 0.129909 

-0.0266542 0.00783826 -0.313323 
-0.000941718 0.0164273 -0.292971 
0.00237554 -0.0114428 0.0560344 

-0.0305266 -0.00387014 -0.0592833 
0.000519891 0.00728192 -0.010685 
-7.36891e-05 0.000423612 0.0307765 

-0.0152654 0.0166401 0.00824273 
0.0038816 0.00838401 7.42976e-05 
-0.00116149 0.000269549 0.0032775 

-0.00972224 -0.0330155 -0.0203038 
0.0177022 0.00445586 -0.00725438 
-0.00211357 0.000674718 -0.0126594 

-0.0540897 -0.0193242 0.102889 
0.0172471 0.0318336 0.0771307 
0.00783783 0.0656252 0.381848 

-0.0182481 -0.0125357 -0.0471254 
0.0149079 0.00536901 0.0289973 
-0.000456344 0.000456162 0.0213505 

-0.0269449 -0.00287472 0.0357591 
-0.00242492 0.00387525 0.0215707 
0.0018718 -9.08885e-05 0.0107988 

-0.00126936 0.094073 0.292793 
-0.114979 0.0350715 -0.227401 
-0.00614989 -0.000143453 0.0845844 

-0.0168215 -0.00538206 -0.0307815 
-0.00717702 0.000242946 0.0148036 
-0.000262295 -5.44337e-05 0.0241786 

-0.0303465 0.00268094 -0.0598924 
-0.00898325 0.00833261 -0.0213961 
-0.00254901 0.00190558 -0.00337024 

-0.0324616 0.00154772 0.127549 
-0.00653369 0.0115745 0.0452501 
-0.00955216 -0.00345062 0.234207 

-0.0229723 0.00669968 0.0214133 
-0.004567 0.0068464 0.00251685 
0.000141195 0.00127918 0.0145643 

-0.0425697 -0.0114151 0.0161154 
-0.00140365 0.0146854 -0.0519039 
-0.00129524 0.000998363 0.0568199 

-0.0337963 0.019299 -0.0282363 
-0.00803723 0.0112899 -0.00479199 
0.00498471 0.0047007 -0.238251 

-0.0287604 0.0021242 0.13469 
-0.0127077 0.00910692 0.17627 
-0.0147056 0.0115787 -0.0818449 

-0.0681864 -0.012987 -0.126229 
-0.0227355 0.0420477 -0.256369 
0.00069 0.016148 0.371932 

-0.0484807 -0.0125294 0.168923 
-0.021304 0.0608616 0.649415 
-0.00222926 0.00472667 0.201715 

-0.303495 0.405082 -0.590857 
-0.182236 0.278622 -0.595831 
0.0220264 0.00253509 -0.0404145 

-0.0584419 0.00577864 -0.22144 
-0.0409709 -0.010568 0.0673879 
0.000608703 -0.00100769 0.109086 

-0.0212541 -0.0080858 -0.0128209 
-0.000279483 0.00701201 0.0465407 
0.00557186 0.00505815 0.0680945 

-0.0849867 0.00862637 -0.0312587 
0.00731261 0.0577704 -0.149324 
0.0616433 -0.0192447 0.407836 

-0.0203426 -0.00260929 0.0522208 
0.00454088 0.0160676 0.32019 
-0.00194129 0.00394283 0.0766345 

-0.00592319 -0.0339224 -0.112829 
-0.0205086 0.00493278 0.0129192 
-0.00106551 -0.00156882 0.0158431 

-0.0262025 0.00368162 -0.207217 
-0.00508375 0.0116928 0.238676 
-0.00198376 -0.00150454 0.0383563 

-0.11825 0.0065754 -0.45086 
0.0627317 0.0820424 0.0715197 
0.0255456 0.0426663 0.225837 

-0.00769702 0.00696617 0.0173003 
0.0136353 0.00414117 -0.00239717 
0.000543899 -0.000145485 -0.00209474 

-0.0566991 -0.00168041 0.0226805 
-0.0237502 0.0296513 0.037153 
-0.019601 0.0179093 0.0978434 

0.0611545 -0.242781 -0.450651 
-0.0743583 0.000169 1.12881 
0.00378099 0.00859115 0.0977255 

-0.0240634 0.00647007 -0.151986 
0.00530948 0.0299875 0.969038 
0.00106233 0.000253987 0.289916 

-0.0144357 -0.0174371 -0.0275374 
0.0278953 0.00170135 0.0192587 
0.00609982 -0.00470996 0.122665 

-0.0118156 0.0084328 0.00780279 
-0.00868612 0.00163306 -0.00281079 
-0.00065157 -0.000597657 0.0253114 

-0.0122263 0.000800024 -0.117296 
0.00373456 0.00751257 0.0191854 
0.00193798 8.96966e-05 0.0123596 

-0.0413853 0.0175245 -0.260057 
-0.00812752 0.0475508 0.174857 
-0.00248253 0.00104314 -0.0159477 

-0.0218858 0.00907037 0.0320223 
0.00552105 0.00786751 -0.0261906 
-0.000465498 -0.000214683 0.0145187 

-0.0490754 -0.00811603 -0.261937 
0.00505229 0.0316536 -0.61227 
0.00493089 -0.0263573 0.0303012 

-0.0236491 -0.00445267 0.00492955 
0.00869067 0.00263129 -0.014769 
-0.000173302 -0.000538671 0.0122486 

-0.0243006 -0.0161893 0.115902 
-0.0185243 0.00632214 -0.0170129 
0.0162875 0.00773174 -0.0480167 

-0.0541743 0.0251297 -0.00474013 
-0.0437872 0.0268505 -0.0125522 
0.000833172 -0.00302848 0.0490409 

-0.0191775 0.00646844 0.104939 
-0.0061024 0.0105563 0.0142199 
0.00686301 -0.00217326 0.0837921 

-0.0272277 0.00378029 -0.00686139 
-0.00651659 0.00700408 -0.00778389 
-0.0015076 -0.000671847 0.0194626 

-0.0246046 -0.00758272 0.0246034 
-0.00517728 0.0133434 -0.0235584 
0.00108676 2.28934e-05 0.00229431 

-0.03089 0.00750066 0.114903 
0.0135506 0.00449195 -0.275352 
0.00108208 0.00113065 0.0575225 

-0.021873 -0.0123653 -0.0177698 
-5.87452e-05 0.0124055 0.0289696 
-0.0015304 0.00262111 0.0213107 

-0.0232304 -0.0152558 -0.0726481 
0.0160426 -0.000280476 -0.00988362 
0.00279611 0.00196271 0.0283772 

-0.00159489 0.0434142 0.13572 
-0.0525558 0.0115316 -0.82861 
-0.00358793 0.0152978 -0.0279627 

-0.0237152 -0.0264193 0.0995649 
0.028652 0.00748217 0.000378916 
-0.0054761 -0.00302062 0.0859349 

-0.0480441 -0.10237 -0.267164 
0.0473547 -0.00506818 -0.0959754 
0.00441912 -0.062894 -0.101146 

-0.0157552 -0.0159951 -0.039873 
0.0258147 -0.00471137 -0.00359813 
-0.000560997 -0.000177737 0.0259028 

-0.0195295 0.0177015 0.010151 
-0.0197046 0.00940391 0.0687951 
-0.00186659 0.000565146 0.0252779 

-0.0286958 -0.000429007 -0.244244 
-0.00199189 0.00893764 -0.0978474 
-0.000580894 -0.00109456 0.0311429 

-0.0294949 -0.0137842 -0.472859 
-0.00193819 0.0174144 0.226315 
-0.00842739 -0.0112301 0.120838 

-0.0297968 -0.00748148 -0.0335308 
-0.0207198 -0.00289767 0.0485214 
0.063723 0.0360206 0.115772 

-0.0317537 0.0721931 0.102233 
0.00223689 0.0516975 0.0719162 
-0.000637227 -0.00282944 0.000256626 

-0.0201413 -0.0011777 0.0336663 
-0.00311221 0.00653336 0.00605097 
-0.000333985 -0.00159568 0.0136339 

-0.0220792 0.00528237 -0.0869233 
-0.0151778 0.0164443 -0.0239874 
0.00328478 -0.00627855 0.0770368 

-0.0393024 0.0523339 0.127501 
0.0121506 0.043599 -0.208174 
-0.00526924 -0.0128339 0.090705 

-0.0179712 -0.0193569 -0.0300004 
-0.0177856 0.00465472 0.0814114 
-0.00977301 0.0127266 -0.0260647 

-0.024673 -0.0302054 -0.0840798 
-0.00684582 -0.00159772 -0.0250353 
0.00299153 0.0237997 0.112 

-0.0249284 0.00474912 0.0629966 
-0.00621891 0.0149513 -0.10698 
-0.028807 -0.0461684 0.53255 

-0.0613718 -0.0126151 -0.00331024 
-0.0163934 0.06772 -0.236535 
0.00419948 -0.0226474 -0.0137965 

-0.0664732 0.0256667 -0.0671847 
0.010446 0.0454262 0.0264143 
0.0332372 -0.0542894 0.303021 

-0.0436832 0.0337422 0.0231201 
0.00593867 -0.00177209 0.0214068 
-0.0014567 -0.00227204 0.0682938 

-0.0415619 -0.00452241 -0.129042 
0.0293453 0.0122892 0.218789 
0.00242295 -0.00105756 0.0617485 

-0.021334 0.00199821 -0.0616444 
-0.00423324 0.00274375 -0.635379 
-4.01582e-05 0.000478627 0.196516 

-0.0223033 -0.00256859 -0.0321832 
-0.00427017 0.0108828 -0.0206649 
0.00120067 -0.00128711 0.0222256 

-0.119619 -0.105911 0.176541 
0.00532471 -0.0669565 0.252777 
0.0315294 0.0503025 0.284596 

-0.0238114 -0.00371059 0.0133776 
-0.00435128 0.00663521 -0.00567608 
0.00142335 -3.25942e-05 0.0274711 

-0.0113432 -0.0303536 -0.0392314 
0.0144925 -4.22917e-05 -0.0109883 
0.0072867 -0.00396206 0.0543847 

-0.0188334 -0.0162545 0.0125272 
-0.00196403 0.00261395 -0.018879 
-0.000893787 -0.000769892 0.033258 

-0.0217072 0.00624562 -0.208447 
-0.00220009 0.00339897 -0.0668535 
0.000206434 0.00148342 0.0343182 

-0.0227917 -0.00140296 -0.0037094 
-0.00291529 0.00920875 0.00292929 
0.0038094 0.00016792 0.0101892 

-0.0183564 0.283723 0.137936 
-0.284507 0.0942471 -0.27355 
0.0343362 0.0328792 0.496451 

-0.0259729 0.00529925 -0.135965 
-0.0132537 0.0111485 -0.0283677 
0.0158274 -0.0192258 -0.0729843 

-0.00821134 0.0654226 0.0474399 
-0.0215442 0.00230465 0.112314 
-0.00117027 0.000524531 0.0573026 

-0.0298844 0.0162738 0.0299737 
0.00678025 0.00900316 -0.0269891 
-0.00178133 0.00389924 0.03037 

-0.26475 -0.181228 -0.162019 
-0.00578635 0.212805 -0.388855 
0.0072334 0.0578004 0.519851 

-0.0114918 -0.00849806 0.00276172 
0.0122521 0.00775754 0.00733486 
-0.0166521 -0.00175824 -0.0562074 

-0.00255072 -0.0118026 -0.00145165 
-0.00313403 0.00868212 -0.120846 
0.064188 -0.0395013 0.648084 

-0.0277282 0.013186 -0.0216224 
-0.00070792 0.0164667 -0.0499575 
-0.0134028 0.0353565 -0.0475979 

-0.0198527 -0.0180692 0.0236473 
0.00138739 -0.00222615 0.0132725 
-0.0014846 0.00171404 0.0307794 

-0.263577 0.0464037 0.527951 
-0.242059 0.328633 0.87655 
0.0336923 -0.085996 0.970912 

-0.132931 0.780326 0.460351 
0.0204445 0.268892 -2.12373 
-0.0032949 0.03582 0.504929 

-0.0290443 0.0102272 -0.0336701 
-0.0121431 -0.00351473 -0.045253 
0.00370983 0.0013407 0.0397449 

-0.02879 0.0176806 -0.0161809 
7.08978e-05 0.0103765 -0.0100737 
2.83125e-05 -0.000287319 0.0263739 

-0.0321263 0.00871814 -0.0699599 
0.0070212 0.00747046 0.0586601 
0.000933829 0.000419345 -0.0109285 

-0.0191565 -0.0130688 -0.0185581 
-0.0171155 -0.00557748 0.00991337 
0.00431726 0.0119108 0.0588293 

-0.0298451 -0.00639202 0.0119464 
0.0176427 6.40941e-05 0.00919807 
0.00191591 0.000648271 0.0338547 

-0.201161 0.179754 5.00612 
-0.0691501 0.0966055 2.02109 
-0.0322127 -0.00144277 -0.340361 

-0.0501231 0.00774435 0.0257703 
-0.0231311 0.0168303 -0.0149647 
-0.00137624 0.00175252 0.0400309 

-0.0164797 0.00102385 0.181127 
0.0297124 0.0167148 0.321811 
-0.0181917 0.00574238 0.081798 

-0.0177637 0.0682396 -0.122686 
0.0052554 -0.0110655 0.0291374 
0.00089428 -0.00537226 0.0125667 

-0.0261463 2.20912e-05 0.00115165 
-0.00340083 0.00618603 -0.0182348 
-0.00221851 0.00115772 0.0233554 

-0.143343 0.176088 -0.034583 
0.0888186 0.133972 -0.300003 
0.00774743 -0.0542958 0.338923 

-0.203318 0.224793 0.958474 
0.112629 0.270184 -0.392666 
0.0181356 0.0291461 -0.0872921 

-0.0173712 -0.0125572 -0.0467299 
0.00775442 0.0226952 -0.0216148 
0.0026844 1.90399e-05 -0.00475707 

-0.0210484 -0.00111356 0.210493 
0.000959807 0.00398751 -0.237974 
-0.0016011 -0.000232027 0.0316576 

-0.0414616 -0.0172362 0.265019 
0.00923119 0.0119381 -0.381462 
-0.0168597 0.0028656 0.0601203 

-0.0254129 -0.00525245 -0.394499 
-0.00460529 0.0254099 -0.0799342 
0.02727 0.00869037 -0.0918706 

-0.0433511 -0.0626022 -0.0121217 
0.0413238 0.00551115 -0.0170048 
-0.0556674 0.01248 0.062811 

-0.0213653 0.000897784 0.0513068 
-0.00075495 0.00986071 0.15268 
0.000373661 0.000730416 -0.00107712 

-0.0103302 0.00303366 -0.0173836 
0.0106015 0.00212975 -0.00448083 
0.000106708 0.00064322 0.0118032 

-0.150647 -0.0984258 -0.00153543 
-0.0131257 0.0632619 0.0463468 
0.029071 0.04641 -0.015206 

-0.0354582 -0.0116821 -0.172841 
0.017879 0.0162497 -0.195031 
0.00500508 -0.00598721 -0.206916 

-0.0306381 0.0304319 0.068191 
0.0117237 -0.00747141 -0.0486989 
0.000878696 0.00199948 0.0446184 

-0.0390211 -0.000834739 -0.286041 
-0.00193219 0.0090238 0.0749681 
-0.00181864 0.00111518 0.0583867 

-0.0362744 0.0237134 0.792013 
0.011067 -0.00745028 -2.0811 
0.00442364 -0.00317263 0.171555 

-0.0279911 0.000288881 -0.0831928 
-0.00412591 0.00551696 -0.0435213 
-0.00103865 -0.000844307 0.0197886 

-0.0277659 -0.000505108 -0.00810169 
0.00635457 0.0091064 0.0163532 
-0.00160953 -0.00127024 0.00373608 

-0.060159 -0.0139036 0.293295 
0.0319468 0.0231641 -0.0171729 
0.00412245 -0.00956321 0.213276 

-0.0199184 0.0158383 -0.0344443 
-0.015308 0.0127342 0.0337132 
0.00149854 -0.00142455 0.0168963 

-0.0201498 0.00800819 -0.020827 
-0.0024985 0.00792609 0.400294 
0.00940895 0.00486071 -0.208066 

-0.018061 0.00018642 -0.017716 
-0.0135118 0.0123299 0.0636638 
0.000164294 0.000618231 0.00605146 

-0.0178524 0.0106996 -0.00456157 
0.000496028 0.00747772 -0.0121252 
-0.00143091 0.000749941 0.0145675 

-0.0146091 0.0249808 -0.0035307 
-0.014139 0.010073 -0.0123593 
-0.00163153 -0.00138837 0.00225284 

-0.0205717 -0.00661636 -0.0294532 
0.0233411 0.00382696 0.0776813 
-0.000455395 -0.00136725 0.0307522 

-0.0449938 -0.0415932 -0.0495149 
0.0340063 0.00305179 -0.029449 
0.005175 -0.00535983 0.0863692 

-0.0930656 -0.00495272 -0.0346581 
0.0141905 0.0284694 0.239278 
0.0101648 -0.00688468 0.15482 

-0.0175067 -0.00222612 0.0152936 
-0.00252775 0.0154121 0.0321147 
0.00159238 -0.000531349 0.0123421 

-0.0469685 0.112796 0.215501 
-0.0313513 0.0858823 0.0363084 
-0.00188929 0.000172925 0.0126773 

-0.0287975 0.00215794 0.22467 
-0.00438169 0.0137231 0.82988 
0.000311963 0.000177922 0.137278 

-0.0208029 0.0156812 -0.0824091 
-3.8759e-05 0.00550129 0.141416 
-0.00117517 -0.000981061 0.0641997 

-0.028794 0.00892165 0.0640571 
-0.0194275 0.00487143 -0.00708209 
-0.00214346 -0.000846966 0.0248639 

-0.023017 0.00275472 -0.0201256 
-0.0199372 0.010182 -0.173497 
-0.000369696 -0.000283404 0.012104 

-0.0124311 -0.0443916 0.0876548 
0.0677587 -0.00268979 0.0748042 
0.0643143 -0.0242871 0.227042 

-0.0310415 0.00375936 -0.402808 
-0.000828696 0.0115821 -1.37385 
-0.00233618 -0.00382525 -0.312847 

-0.0858665 -0.0408782 0.253243 
0.0261079 0.0766261 -0.140016 
-0.00184566 0.00224634 -0.0281239 

-0.094391 0.063803 0.081591 
-0.0817975 0.0313166 0.208424 
-0.0249865 -0.0129428 0.128404 

-0.0133589 -0.00656922 -0.190827 
0.0148872 0.0188552 0.0109964 
0.000719452 -0.0239932 0.198972 

-0.239461 0.322151 0.327245 
0.0232138 0.115815 0.13256 
-0.064383 0.0419475 0.29036 

-0.0345604 0.00737621 0.0297374 
-0.0101917 0.0648525 -0.0525806 
-0.00269483 0.000292724 0.0251472 

-0.0197902 0.015943 -0.0344503 
0.0116969 0.0379865 -0.255868 
0.00104798 -0.00123518 0.0459323 

-0.00213798 -0.0130024 -0.0336928 
0.0155754 -0.00305797 -0.00826879 
0.000651649 -0.000814791 0.00888597 

-0.033004 -0.00275812 0.00777849 
0.0106149 0.0261684 -0.491749 
0.0136352 -0.00941928 -0.107245 

-0.0119662 -0.0388783 -0.0549225 
-0.00349126 -0.0136852 0.0313858 
-0.00348462 0.000423484 0.0426648 

-0.0137109 -0.00794626 0.0221921 
0.0200996 -0.0130447 0.030637 
0.000870939 0.000636529 0.0177384 

-0.027146 -0.0112612 0.0789417 
0.00548261 0.00967721 0.0560869 
-0.000617461 -0.00444335 -0.0470828 

-0.0289958 -0.0136483 -0.0339936 
0.0389956 0.00999167 -0.014596 
0.00129153 0.0527606 0.226827 

-0.0308959 -0.0260848 0.0637702 
0.00765342 0.00695672 0.018671 
-0.0159854 0.00311115 0.0482336 

-0.0244764 0.00242194 0.0509265 
-0.00553051 0.0154567 0.164043 
0.00525537 -0.00190308 -0.000613703 

-0.0191665 0.00143403 -0.0558418 
-0.0180152 0.0100774 0.0137413 
0.00207963 -0.00510435 0.0587322 

0.0156391 -0.129979 0.0322125 
0.105473 -0.00601633 0.0312556 
-0.0125598 0.0206444 0.134832 

-0.0588131 -0.0419032 0.190375 
0.05028 0.0119936 -0.17275 
0.00541215 -0.00355102 0.168712 

-0.026667 0.00259667 0.0748187 
-0.0134378 0.00590142 0.12418 
-0.00917869 -0.00955376 0.0185097 

-0.0233348 -0.00451174 0.0104041 
-0.0109763 0.0155585 -0.0553189 
0.000864989 -0.000325635 -0.00751608 

-0.0328301 0.0174324 0.0144831 
0.00375539 0.0311335 0.097024 
-0.00296579 -0.00027949 0.0278252 

-0.0213099 0.00254844 0.149733 
-0.010749 0.0112462 0.202312 
-0.000332291 0.000729726 0.00279004 

-0.0585322 0.00428427 0.0447468 
0.0142791 0.00797436 0.0356627 
0.00053113 -0.00181507 0.0453152 

-0.0363185 -0.0263155 0.387545 
0.00991677 0.011916 0.154605 
-0.000441619 0.00118873 -0.00150955 

-0.0372301 0.00043916 -0.212166 
0.00204389 0.011029 -0.090071 
0.0017478 0.00196081 -0.07789 

-0.0394404 0.0028162 0.174497 
0.0172911 0.00504835 0.0432855 
-0.0184114 -0.00955985 -0.0363624 

-0.0707411 -0.0191373 -0.187009 
-0.0240523 0.0223149 0.0257286 
0.00170342 -0.0389079 0.204217 

-0.100579 0.00435075 -0.400472 
0.0664096 0.0847086 -1.27855 
0.000260723 -0.0135118 0.156235 

-0.0276912 0.00946359 0.103266 
0.000496623 0.0153346 0.0172607 
-0.00247907 0.00614733 -0.22789 

-0.0607484 -0.00455402 0.503959 
0.0172589 0.105597 0.938887 
-0.00112568 -0.00240977 0.0115139 

-0.402093 0.286186 -0.0628986 
0.0923041 0.159917 0.471647 
0.0145205 -0.00109713 0.173396 

-0.0401136 0.036085 1.08888 
-0.055545 0.00083614 0.657863 
0.0219655 0.0114408 0.192761 

-0.0326851 0.0178108 -0.0497861 
0.00246366 0.0201406 -0.0117333 
-0.000144359 -0.00810989 0.0417098 

-0.0274654 0.021703 -0.185733 
0.0303796 0.0224882 0.117911 
0.00609479 0.00099275 0.0106458 

-0.0522406 0.0748373 -0.72732 
-0.00950308 0.077206 -0.671524 
-0.00883662 -0.00308764 -0.0530444 

-0.047943 -0.014379 -0.0713666 
0.0129334 -0.00940559 0.23639 
-0.00213439 -0.00127323 0.0859454 

-0.437018 -0.177055 0.0460605 
0.269243 0.236767 -0.0287092 
-0.0975726 0.0266919 0.424629 

-0.0205251 0.00886738 -0.0162954 
-0.00771317 0.00608938 -0.0205636 
0.0002108 0.000242518 0.0217803 

-0.0174365 0.0105791 -0.00720772 
-0.00300902 0.00506611 -0.00225359 
-0.00577104 0.0069495 0.039069 

-0.0276217 0.0113888 -0.0132555 
0.00302831 0.00926319 -0.00364982 
-0.00174987 0.00130891 0.0299329 

-0.0393747 0.00440177 -0.172455 
0.00892963 0.0288135 0.225137 
-0.0013299 0.000739265 0.0629705 

-0.0249128 -0.00884718 0.012271 
-0.00567561 0.00620022 0.00458034 
-0.000470519 -0.00129238 0.0140848 

-0.0188422 -0.00648026 -0.0126761 
0.00977197 0.0094529 -0.0227497 
-0.0146134 0.00630864 -0.0465221 

-0.0386273 0.0134856 -0.12977 
-0.0249825 0.0245769 -0.0474308 
0.00933572 0.0284923 -0.0766183 

-0.0282942 -0.00520511 0.0177393 
-0.00148553 0.0288325 0.0530834 
-0.000356278 0.00038889 -0.00557818 

0.0178774 0.0158011 -0.0493893 
-0.0135503 -0.0195295 -0.00409192 
0.00232312 -0.00123899 0.0826548 

-0.00975463 -0.00465402 -0.00790299 
-0.00105432 3.88231e-05 0.00218875 
1.28883e-05 -7.87616e-05 0.0299647 

-0.191731 -0.00691062 -0.350335 
0.0565741 0.165093 0.909976 
-0.00467327 0.0112927 0.131847 

-0.0220464 -0.00666305 0.0148825 
-0.00504847 0.0095067 -0.0135088 
0.00166775 -0.00118028 0.0281299 

-0.0286828 0.0011812 0.0414058 
-0.0115769 0.0115577 0.112343 
-0.00384317 0.00500154 0.0310924 

-0.0244682 0.00256455 -0.0159276 
0.000236077 0.0018791 0.000380521 
0.00183977 0.000961477 0.0238409 

-0.00907689 0.00476396 -0.0297582 
0.000759247 0.0119637 -0.0376857 
0.00958976 -0.00593115 0.0567201 

-0.0192483 -0.00140232 0.0302099 
-0.0278241 -0.00506487 -0.0263807 
-0.00150049 0.00246637 0.0675313 

-0.0125361 0.002964 0.00781107 
-0.00158484 0.0035449 0.00851015 
-6.7153e-05 -0.000179016 0.0108779 

-0.0262615 -0.000319432 -0.393506 
0.00345468 0.01293 -0.0124177 
-0.00039773 0.000126616 0.176415 

-0.0602425 -0.0423633 -0.00780496 
0.0554294 0.0221895 -0.0678359 
0.05666 -0.0330825 0.26496 

-0.0360884 -0.0148767 0.052862 
0.0127965 0.00708737 -0.010534 
-0.00135383 0.00430349 0.041016 

-0.0337803 0.00649418 0.0881127 
-0.0125928 0.0135673 0.0278206 
-0.0141795 -0.0233654 -0.0367621 

-0.108751 -0.0480459 0.020859 
0.129711 0.0904501 0.0488854 
0.00922008 -0.00357514 0.0892106 

-0.030265 0.00996923 -0.107821 
-0.0355006 0.0157833 0.0988797 
-0.00224375 0.00145283 0.0122474 

-0.0136748 -0.0435388 0.0940464 
0.110348 -0.055079 -0.0559943 
-0.0171112 0.00319943 0.176372 

-0.059488 -0.119167 0.0470265 
0.120228 -0.00152465 0.00224841 
-0.00261851 0.0244521 0.261421 

-0.0216097 -0.00865229 0.0264114 
0.010709 0.0107061 0.0243483 
0.00117307 0.00112091 0.00586905 

-0.0724516 -0.000674918 0.348662 
0.0374105 0.00529246 -0.0615971 
-0.00823442 0.00519784 0.109302 

-0.022828 -0.0421377 -0.494536 
-0.026121 0.0552221 0.00597089 
-0.0118496 0.0233167 0.570599 

-0.0819892 0.00930125 -0.758636 
-0.0938436 0.0480564 -0.440964 
0.0160007 -0.0629261 0.0182845 

-0.0261237 0.0156223 -0.0191239 
-0.0230055 0.00468078 0.0254908 
-0.00277655 0.00593706 0.0499033 

-0.022585 0.0377566 0.0399272 
-0.0345692 0.0132054 0.0185047 
-0.0076865 -0.0372792 0.34821 

-0.031985 0.015063 -0.043154 
0.0322446 -0.00613683 0.0156052 
0.00351403 0.0069701 0.0299079 

-0.0257577 -0.00265847 -0.0449707 
-0.0157117 0.014494 0.0286667 
0.00737295 0.0112317 -0.031189 

-0.0305944 0.0475071 -0.0265589 
-0.034088 0.0102988 -0.0633946 