# vtk DataFile Version 3.0
Output file generated by Yade's KinematicLocalisationAnalyser
ASCII
DATASET UNSTRUCTURED_GRID

POINTS 13483 float
627.86 28.4167 -0.526607
800.137 62.7735 0.121743
122.229 6.13684 -0.442131
837.609 5.719 0.562857
511.982 7.7612 -0.256437
321.587 35.1433 -0.468673
159.398 6.91437 0.442309
586.695 10.0328 0.164011
508.844 23.0958 0.141452
755.339 13.2754 -0.577348
214.813 8.99837 -0.103264
262.334 6.30906 -0.260757
678.371 28.5646 -0.193036
655.723 13.8977 0.0795059
139.606 17.2624 0.391709
226.033 34.5607 0.409203
222.251 13.0054 -0.290376
295.11 9.58368 0.386252
348.443 32.7127 -0.489748
538.013 8.56408 0.351253
420.276 36.6337 -0.117365
610.516 44.4115 0.274075
833.494 45.8287 0.520201
729.73 43.3992 -0.478625
469.881 16.0577 0.31023
246.003 44.285 0.136262
503.797 27.6843 -0.489944
603.858 20.1567 -0.259872
45.7829 15.5419 -0.416253
751.785 31.9016 -0.327081
494.468 4.95006 0.315291
16.7593 23.5065 -0.334444
813.948 55.7455 0.275749
507.73 2.59589 0.479686
79.4783 44.5949 0.103784
535.219 30.3106 0.338549
544.62 16.6073 -0.401426
351.306 22.5355 -0.170544
548.162 25.341 -0.317569
358.581 33.0653 -0.452384
246.019 14.6477 0.31843
444.636 35.981 0.070445
705.98 7.12637 -0.0940308
196.787 6.22808 0.373412
56.406 6.94848 -0.126101
69.8596 8.94409 -0.270277
723.29 9.43096 -0.46476
23.4809 11.7581 -0.282428
631.697 45.3031 0.341584
707.894 24.7456 0.315176
176.19 32.359 -0.304639
793.252 52.418 0.129341
35.5357 28.0732 -0.116694
548.625 2.97187 0.325867
144.806 7.28365 -0.470044
613.358 33.6237 0.429334
517.37 27.2586 -0.171364
178.404 0.93384 -0.273957
32.9594 2.3566 0.331396
356.485 17.7969 0.287416
643.249 46.6037 -0.131373
473.517 33.4705 0.173221
409.063 1.02789 0.197135
734.517 8.59496 -0.421409
27.162 43.2314 -0.235254
262.009 30.5721 -0.318867
754.932 7.95339 0.243634
698.476 46.4356 0.440487
427.855 8.67342 -0.479481
587.644 3.52181 -0.348691
787.249 33.3631 0.448666
133.23 7.64639 0.28365
511.361 26.2243 -0.133205
490.12 14.604 -0.174265
301.375 16.7077 -0.334125
20.7678 13.7723 -0.268176
820.676 44.9396 0.366036
340.714 39.0016 -0.281023
705.253 20.47 0.371601
722.878 13.3914 0.22938
825.707 12.6008 -0.290131
476.935 34.2927 0.186163
94.2727 38.6325 -0.264808
716.581 36.8164 -0.223314
674.448 38.2537 -0.118502
840.298 50.2661 -0.142266
819.375 0.734898 -0.556283
298.136 28.8085 0.465734
644.304 6.24427 -0.11542
24.4525 5.26824 -0.539532
135.725 38.508 -0.166792
526.824 14.6089 0.221971
812.502 39.9938 -0.464696
199.913 28.7363 0.232532
45.2469 34.3306 0.295557
506.589 1.35623 0.131053
241.31 8.92494 -0.362972
789.169 42.8943 -0.247596
809.325 38.8786 -0.235108
370.661 20.7152 -0.25967
167.724 26.7879 -0.47189
567.334 38.359 0.42699
390.001 15.6614 -0.453372
424.473 29.7807 0.131476
388.201 4.5303 0.411511
565.306 10.8584 -0.104211
839.648 16.0666 0.204851
81.7577 39.5717 0.394958
344.199 4.81469 -0.198732
580.063 9.46285 -0.355655
369.995 43.4656 0.45785
26.0969 24.8023 -0.467777
30.6306 5.81358 -0.329579
588.555 32.5584 -0.407231
520.411 24.8546 0.145205
26.7583 37.1051 0.427166
95.2563 30.9798 -0.225704
333.883 15.983 -0.279451
622.602 18.7681 -0.174419
489.321 37.9144 0.318131
773.058 7.32787 -0.406846
764.863 6.27859 -0.227101
398.159 37.3384 0.0987832
662.43 25.177 -0.102106
244.638 16.8531 0.463012
339.331 3.69068 0.468847
105.997 31.6113 0.40188
119.307 24.2897 -0.267472
562.495 38.4969 0.0747278
314.821 18.9226 0.477437
747.7 36.8359 -0.10842
702.477 45.0809 -0.108881
495.476 20.7294 -0.365421
814.991 21.4073 0.323109
441.854 23.6328 0.236866
284.912 24.3969 0.295423
707.399 32.2817 0.287739
287.041 28.516 0.374539
598.221 12.2218 -0.199702
341.854 35.72 0.209052
521.215 11.3337 0.482003
377.942 31.3122 0.0939613
443.9 16.7718 -0.103481
327.834 42.1011 -0.349984
196.108 29.8303 0.13208
805.815 59.62 0.174189
837.709 15.3012 0.36898
6.16445 12.6706 -0.466045
447.899 22.4611 -0.41267
39.2054 22.4972 0.0752866
388.343 31.2242 -0.470284
407.825 24.8994 -0.278738
77.0353 11.9919 0.493212
53.0498 33.2247 -0.442923
232.578 13.4805 0.446654
644.469 38.9081 -0.413411
600.505 20.9828 -0.478339
77.0247 20.9161 0.509348
732.736 47.0639 0.430113
797.445 4.54005 -0.713618
692.425 40.6646 -0.470172
729.135 2.05736 0.523384
571.715 26.7431 -0.436093
611.996 45.132 -0.446334
530.621 17.9648 -0.403324
835.214 3.85256 -0.450396
230.582 24.7617 0.11443
131.452 35.3221 0.148519
255.117 6.63385 -0.387227
96.8813 4.42874 0.277886
66.1332 10.1632 0.194646
284.901 35.8606 0.317898
16.8185 25.3937 -0.393314
577.871 19.1859 -0.384571
631.337 40.1621 0.20888
479.422 20.9256 -0.394047
826.494 58.2976 0.405694
420.891 8.64893 -0.110542
451.228 36.065 -0.376825
557.332 3.44336 -0.183684
23.2129 24.1926 0.391492
600.93 4.57613 0.455417
567.371 4.33929 -0.307488
212.988 11.4942 0.488285
440.027 16.3924 -0.20435
321.943 6.36307 0.340468
401.732 18.9422 -0.332129
776.04 43.6415 0.11906
198.381 25.6832 0.426914
811.931 6.98207 -0.416076
775.605 39.4348 0.505982
396.896 10.2275 -0.159046
751.687 2.23385 -0.352367
631.039 25.4974 0.414771
778.855 18.8419 -0.510873
446.451 42.9246 -0.274119
515.302 12.6506 0.371706
482.382 44.0033 -0.218793
461.767 8.66027 0.11854
696.209 40.2903 -0.263698
693.555 36.0326 0.40448
198.655 39.0321 -0.331189
823.741 11.7692 -0.150342
613.674 45.2487 0.243403
11.6426 17.2636 0.186315
422.133 25.3775 0.383752
193.462 23.1772 0.405388
95.9382 39.518 0.20277
816.894 35.6946 0.436726
689.329 45.3369 0.234211
330.582 25.6129 0.339333
554.028 10.1687 0.317197
84.6512 44.8429 0.166547
256.131 26.085 -0.485149
580.692 23.7782 0.351273
505.361 18.8887 0.450384
271.924 0.886792 -0.343005
576.876 40.1344 -0.367053
555.673 40.4022 -0.473526
500.757 33.2812 0.400647
518.672 0.872306 -0.559315
739.692 19.286 -0.364771
185.546 12.0381 -0.187422
520.277 37.0037 0.455686
589.507 40.5562 0.140714
75.2239 0.96064 0.270188
260.518 4.74582 0.174956
835.719 18.899 0.308359
824.902 14.4598 -0.552443
840.339 21.8504 -0.524785
314.358 8.61467 -0.234058
784.078 24.4627 0.501712
422.078 41.6245 -0.37714
466.045 0.813679 -0.399441
681.049 35.6616 0.575453
27.7411 30.7434 0.323642
342.807 41.6441 0.523507
261.379 2.87312 0.331117
817.966 52.3749 -0.214104
750.181 49.4753 0.291135
297.702 10.9511 0.227481
700.552 29.9171 0.109323
581.892 2.64706 0.306427
565.123 6.46742 0.435327
99.8083 18.6103 -0.527509
314.254 1.03664 -0.225781
355.914 2.27897 -0.356636
14.0112 7.58285 -0.417237
4.52818 31.5553 0.268142
167.266 18.9214 -0.383923
70.3625 41.7058 -0.213609
68.8964 28.8171 -0.326539
439.704 14.5388 -0.446544
380.877 35.091 -0.474837
790.793 54.9054 0.120347
19.7634 4.01435 0.268443
72.9458 6.95249 0.129735
654.101 36.887 -0.187445
305.45 0.919454 0.3629
378.786 16.0838 -0.0950455
244.005 4.67123 -0.376421
685.478 21.6016 0.185404
469.306 8.33265 0.414421
787.658 23.018 -0.374297
661.551 28.4855 0.323045
704.302 18.6444 -0.0845504
436.441 27.268 0.543839
105.711 45.0856 0.30783
566.081 42.1134 0.0752072
777.78 13.4152 0.273318
246.45 30.4712 -0.271903
32.7961 17.0977 -0.199571
348.988 13.6782 0.508781
111.327 40.5573 -0.464882
277.735 42.1166 -0.208338
442.088 1.60428 -0.301406
817.094 42.4167 0.371658
722.095 0.775246 -0.667219
344.755 3.21939 0.540195
311.436 26.5958 0.144232
481.124 40.8753 0.22197
84.2698 8.21921 0.453449
204.945 45.0424 0.378059
800.219 45.6207 0.407217
515.376 39.5151 -0.0902267
207.375 41.4485 -0.256114
166.69 42.2743 0.295686
840.118 44.2881 -0.493773
838.104 16.6032 -0.67
634.346 3.54266 -0.548758
196.973 24.6041 -0.100249
573.672 28.1203 0.114237
575.559 27.5828 -0.280519
425.484 5.68502 -0.137717
501.582 0.924791 -0.295126
789.347 55.8447 -0.531699
87.9538 31.2923 -0.244119
691.449 18.5614 -0.523826
284.692 15.5255 -0.357341
9.49217 2.39028 0.333528
129.954 37.2091 0.191483
69.3965 23.1291 0.49039
740.263 38.0265 0.337714
817.911 68.0399 -0.0765202
192.293 28.4441 0.184041
833.158 14.2447 0.534496
46.576 36.4599 -0.258824
94.1113 29.3065 -0.174582
665.946 12.9321 0.488628
429.976 18.5526 -0.509399
541.28 16.6684 0.11701
246.999 28.4953 -0.191114
651.795 4.45139 -0.390821
841.687 16.1572 0.432071
30.6509 31.7111 -0.276855
280.408 7.72349 0.192476
230.334 15.2714 0.236442
1.09576 36.1334 0.151058
233.638 14.6879 0.38337
219.716 11.1094 0.103944
222.401 26.5385 -0.29566
137.863 27.9337 -0.143389
571.894 15.0507 -0.356376
173.232 14.1849 0.32306
812.262 54.8558 -0.235374
180.471 3.78827 0.512688
48.9076 38.0949 0.400766
781.69 50.3059 -0.428925
292.041 31.7838 -0.389099
714.37 23.2795 0.475209
827.059 42.0082 -0.536733
312.426 9.24634 0.104406
774.751 31.2407 0.356635
341.63 2.56786 -0.396355
433.112 24.3345 -0.357678
710.224 16.2242 -0.480875
109.029 11.9353 -0.463328
503.309 3.79617 -0.532729
790.402 22.8603 -0.256194
91.2637 7.68627 -0.222094
292.597 14.668 0.197275
440.5 11.7889 -0.211778
835.827 2.43083 0.558885
414.118 1.99924 -0.519926
183.515 38.7843 -0.308911
780.564 10.6559 -0.340248
133.218 36.4778 0.187407
273.127 31.3819 -0.404523
416.763 21.6743 0.209824
600.752 14.0798 -0.355414
402.802 9.79497 -0.492522
475.433 27.4731 -0.335522
801.633 62.3999 0.359092
49.0606 10.9509 -0.113735
311.043 38.494 -0.263925
394.968 27.2501 0.362567
426.453 21.0228 0.254799
543.84 44.196 0.356395
797.395 43.1202 -0.248515
699.272 35.5955 -0.454582
234.655 34.3545 -0.39243
14.3469 32.1135 0.147904
692.061 37.1723 -0.142166
531.154 40.923 0.476761
238.305 39.4596 -0.112462
719.945 32.9757 0.107577
156.629 9.30249 0.222336
381.493 21.1822 0.33089
482.941 41.9143 0.106851
431 19.8572 0.221474
796.402 65.4107 -0.289376
443.606 3.86322 0.505744
51.3701 25.2236 -0.309217
489.799 31.6722 0.347361
453.152 42.0617 0.377555
814.845 48.5703 -0.253123
771.79 30.312 -0.233232
565.585 18.5652 -0.208544
804.984 52.7363 0.446573
304.982 2.20961 -0.462574
393.713 29.8098 0.513084
30.0165 38.8377 -0.297405
777.36 32.0666 0.152238
639.203 19.5805 -0.481004
482.544 0.764407 -0.483588
130.663 4.52344 0.274701
444.575 40.3764 -0.114909
11.9339 0.9049 -0.318661
833.558 7.05101 0.130931
385.238 39.1647 -0.403313
[...]
POINT_DATA 13483
TENSORS Strain_matrix float
-0.0607369 0.0494204 0.230636 
-0.0267787 0.0147101 0.723484 
0.00983824 -0.00773224 -0.0148623 

0.1837 0.290218 0.0260845 
-0.187996 -0.0498849 -0.0519903 
0.00178276 0.00832367 0.215355 

-0.0201853 -0.00270599 -0.012112 
0.00848436 0.0105556 -0.0409669 
-0.000115138 -0.000617594 -0.00145041 

-0.269354 -0.0816933 0.223106 
0.192948 -0.00870363 0.603083 
0.0199793 0.00197367 0.166761 

-0.137517 -0.0474206 0.0739104 
0.0496373 0.0343732 -0.213467 
-0.101937 0.028082 0.44211 

-0.00920253 -0.00267393 0.0360508 
0.0050297 0.00183788 -0.133296 
-0.000165131 0.00212003 0.00076475 

-0.016218 0.00319784 -0.00495923 
-0.00241518 0.00860052 0.00722054 
0.000688465 0.000423527 0.0252644 

-0.0243863 -0.00629767 -0.00168189 
0.0419231 -0.00184037 0.0583854 
-0.000929087 -0.000863561 0.0174278 

-0.0127691 -0.0431635 -0.142972 
0.0284012 0.0285888 0.0743216 
-0.00153569 0.000390584 -0.00997725 

-0.163011 -0.0327642 -2.45476 
-0.0442281 0.0789533 1.24147 
-0.00265725 -0.00504313 0.649447 

-0.00523858 -0.00560123 -0.00463173 
0.00478922 0.00206026 -0.000459206 
-0.000294573 -5.60653e-05 0.00798633 

-0.0100964 -0.00723906 0.004736 
0.000287639 0.00378444 -0.00049817 
0.000599391 0.000416909 0.00335062 

-0.00514093 -0.0134522 0.0199159 
0.0220055 0.00323477 -0.0108931 
0.000970174 0.000771147 0.0136175 

-0.0181054 -0.0166765 -0.03218 
0.000557068 -0.00417968 0.0139509 
0.00316575 0.0450165 0.163513 

-0.0344063 0.00920777 -0.256243 
-0.0287753 0.0236689 -0.146938 
0.00475962 -0.0254135 0.0986436 

-0.00601125 0.00525781 0.000243501 
0.00524374 0.00142778 0.0211569 
0.00144909 0.00175217 0.0268673 

-0.00673193 -0.00963927 0.0217008 
0.00442592 0.00362261 0.0028355 
-0.00122127 0.000637318 0.00240403 

-0.0158632 -0.00190635 0.00577477 
0.00211419 0.00326454 -0.0165317 
-0.00035654 0.000403001 0.0188107 

-0.0502798 0.03072 -0.0109787 
-0.00738486 -0.00121973 -0.157075 
-0.0252224 0.0238513 -0.316263 

-0.01075 -0.00435049 0.122272 
-0.0177414 0.00573988 0.225256 
-0.00200039 -0.00129657 0.0691942 

-0.0139619 -0.00465192 -0.00812752 
0.00329541 0.0012865 -0.0355226 
0.00144204 -0.00163361 0.0277476 

-0.0639278 0.0865495 -0.13272 
-0.0599026 0.0715322 -0.0432981 
0.0147179 0.131493 0.361565 

-0.301552 -0.148873 8.90333 
-0.0985699 0.091762 -1.44946 
0.00039059 -0.00466906 -0.118756 

-0.0429077 -0.0452297 -1.20815 
-0.0665677 0.0388624 -1.64576 
0.0109987 0.00548174 -0.157282 

-0.0108177 0.00411945 -0.0109015 
0.00862578 0.000654949 0.0071618 
-0.00119645 3.78356e-05 0.00923993 

-0.0229659 0.000972507 0.0278422 
0.00185449 0.0102742 -0.0280465 
4.51795e-05 -0.00295447 0.019567 

-0.021994 -0.0154517 0.487964 
0.0219207 0.00953503 0.211334 
0.00672849 -0.0104013 0.0115204 

-0.0435351 -0.0444906 -0.0178379 
-0.0127686 0.0285654 0.166969 
0.0173762 0.0252596 0.247161 

-0.0128419 -3.71662e-05 -0.142775 
0.00200249 0.00613853 -0.0835798 
-0.000504063 -0.000498305 0.0364541 

-0.161037 -0.0460319 -0.497734 
-0.220877 0.16959 -1.19046 
-0.04032 -0.013003 -0.00772265 

-0.0135616 0.00915466 0.013839 
0.0205284 0.00146556 -0.0135479 
0.00171327 -6.33698e-05 0.00776985 

-0.0487092 -0.00203729 0.0120183 
-0.107033 -0.000242807 0.138532 
0.0179226 0.0590877 0.307651 

0.0392386 0.299842 -0.192364 
-0.270102 0.0218624 -0.125712 
-0.00456896 0.0230513 0.0539808 

-0.0378634 0.0583602 -0.301225 
-0.0209475 0.0643948 -0.047296 
-0.00806867 -0.019684 -0.0394523 

-0.0178146 -0.00187205 -0.0571019 
0.0108931 0.00135129 -0.0654912 
3.9265e-05 -0.000990047 0.0141071 

-0.0194836 0.0493719 -0.0637991 
-0.0563451 0.0199966 0.0166335 
0.000238124 0.00225341 0.0382451 

-0.0106399 0.0079947 -0.0226068 
0.00140208 0.00109718 -0.0669823 
-3.12038e-06 -0.000286437 0.0140464 

-0.0293161 -0.00266897 -0.0352937 
0.0232194 0.041123 -0.0508342 
-2.71221e-06 -0.00209361 -0.0118543 

-0.00763338 -0.00267847 -0.117288 
0.0158775 -0.00161506 0.0866826 
-0.0136033 0.00378786 0.109484 

-0.00813236 0.0119199 -0.250078 
-0.0142289 0.00191743 -0.0769084 
8.9924e-05 -0.000722384 0.0820913 

-0.0133328 -0.018185 -0.00416068 
0.0261193 0.0018321 -0.0157226 
0.000350902 -0.000418395 -0.00141284 

-0.00144462 -0.0215389 0.135251 
-0.00266597 0.00021485 -0.0802113 
0.0302215 -0.0144649 0.268654 

-0.0632552 0.0376762 0.101317 
-0.111966 0.0356521 -0.00435406 
-0.00544362 -0.0105191 0.069648 

-0.00822781 -9.29188e-05 0.00176396 
-0.00229055 0.00364889 0.018876 
0.00226615 -0.000614701 0.0241587 

-0.0152336 0.00601057 -0.00382061 
-0.00603668 0.00775898 -0.00733879 
-0.000784599 -0.000230203 0.00389 

-0.0104616 -0.00708087 0.00816509 
0.00564142 0.00383791 -0.016559 
0.000298879 -0.000265539 0.00396631 

-0.0501841 -0.0395319 1.48295 
0.0362957 0.0597701 -0.152075 
-0.01269 0.0131882 -0.0620342 

-0.0204197 -0.0233226 -0.0149593 
0.0185056 0.00962185 0.0190089 
0.00180204 0.00262336 0.0125076 

-0.0107621 0.0452904 -0.0334845 
-0.0448009 0.00427582 -0.00196802 
0.00663463 -0.000433644 0.0328735 

-0.0976111 0.0666801 1.49895 
-0.0489082 0.030605 0.194238 
0.0137869 -0.00319019 -0.00120485 

-0.00968544 -0.00595959 0.0283559 
0.00396226 0.00367714 -0.0203826 
-0.000912883 2.89353e-05 0.0267109 

0.0604568 0.138652 0.00417285 
-0.320349 0.0440638 -0.0317696 
0.0128667 0.00823402 -0.13208 

-0.0122383 0.00895671 -0.000998729 
-0.0166381 0.00741503 -0.00570529 
0.0172371 -0.00772223 -0.00808136 

-0.0108607 0.00622557 0.0204427 
-0.00205893 0.00217162 0.00299707 
0.000276671 -0.000215167 0.00381304 

-0.0182633 -0.00423008 0.245936 
-0.0049206 -0.000987231 -0.0290171 
-0.00250831 -0.00210521 0.0012752 

-0.0193048 0.0184423 -0.297652 
0.0138463 0.0200973 0.838039 
0.0205603 0.00923542 -0.311654 

-0.0320861 -8.36034e-05 -0.00502136 
-0.00695851 0.00127699 -0.0087028 
0.000365417 0.0140823 0.0037433 

-0.009312 0.0225403 0.0722251 
-3.24266e-05 -0.022073 -0.0642367 
0.00298731 0.25977 0.689338 

-0.00334379 -0.00624331 0.0128572 
-0.0063073 0.00136512 0.0320869 
-0.000452373 -0.000971054 0.0390128 

-0.0213333 -0.0163015 -0.0274261 
-0.00628161 0.00345595 0.012548 
-4.99555e-05 -0.000184665 0.0133645 

-0.0281134 0.0123715 -0.256634 
-0.0288649 -0.478984 0.345567 
0.00162009 0.0176985 0.483 

-0.0199441 -0.0502438 0.0504593 
0.0253587 0.00243796 0.251834 
0.000801565 0.0175459 0.110318 

-0.00750698 0.000516749 -0.0194452 
-0.000800934 -0.000531496 -0.00322222 
0.00023429 -0.000959382 0.0145925 

-0.226849 -0.00448947 0.554955 
0.0329128 0.235324 0.0621434 
0.0165681 -0.00197286 0.26838 

-0.0358387 0.0353115 -0.0528816 
-0.0374735 0.0270857 -0.0489702 
0.00628786 -0.0205643 -0.0426904 

-0.0174504 0.0105617 -0.00708896 
-0.00466864 0.00775368 0.0153479 
0.000200582 0.000796255 0.0136076 

-0.00746102 0.204915 0.0124916 
-0.183153 0.0224565 0.143903 
0.0855974 -0.100175 0.383417 

-0.101574 -0.125469 -2.29292 
0.094594 0.0648105 2.64461 
-0.00807259 -0.0417312 -0.483348 

-0.0203048 0.00579138 -0.0251997 
-0.0134586 0.0133452 0.21119 
0.00147486 0.00119265 0.0455612 

-0.00253358 -0.00929233 0.0202206 
0.00636476 0.00040737 -0.00795312 
0.000441189 -0.000753967 0.00547038 

0.0567617 -0.0272168 -0.0364799 
0.0333829 0.0393299 -0.141726 
-0.00153497 0.0104083 -0.0686181 

-0.0169596 0.00431093 -0.000554084 
-0.00334528 0.0110428 -0.00269064 
-0.000396916 3.25922e-05 0.0120191 

-0.0224964 -0.0336757 -0.118828 
0.0117182 0.0199817 0.0698677 
0.00174839 -0.000893186 0.0231493 

-0.0132437 0.00736843 0.295886 
0.0189625 -0.0173305 -0.314228 
-0.0200984 -0.0182945 -0.0411476 

-0.0061081 0.00175883 0.0222293 
0.00116022 0.00267975 -0.0411913 
-3.03053e-05 0.000214823 0.0208063 

-0.0401538 -0.0120976 -0.00469523 
0.0164058 0.0244549 0.0369986 
0.00536725 0.00163627 0.00738777 

-0.0997029 -0.27419 7.70168 
0.0540346 0.0989115 -2.73859 
-0.0140866 -0.0138919 -0.00398618 

-0.0239667 -0.0174748 -0.045837 
0.02783 0.00497312 -0.0995509 
-0.000113752 -0.00131823 0.0225115 

-0.141457 -0.0305406 -0.383751 
0.112141 0.104891 0.70793 
0.00185139 0.00509859 0.134776 

0.0168458 -0.0855266 -0.0358078 
0.089308 -0.0145644 0.0264663 
-0.000771327 -0.00137785 0.0151756 

-0.274478 -0.18656 0.161087 
0.323253 0.123011 0.103645 
0.0252846 -0.076563 0.183495 

-0.0272258 -0.0612477 0.315986 
0.0320176 -0.000894057 0.303492 
-0.00628976 -0.0181176 0.197852 

-0.00636348 0.00173788 0.0391223 
-0.000142013 0.00359905 -0.0114404 
-0.000499486 0.000168693 0.0091927 

-0.151868 -0.0420062 -0.185665 
-0.02354 0.0804548 -0.0780033 
-0.00442192 -0.00467106 0.120327 

-0.0145732 -0.0131255 0.00338557 
0.0180919 0.00341302 0.00773839 
-0.00016251 0.00033522 0.0183168 

-0.102399 -0.00677086 -0.276859 
-0.285774 0.0239773 -0.341386 
-0.116537 0.0821258 0.558369 

-0.0927206 0.577856 -0.182834 
-0.0150217 0.260685 -0.805218 
0.00128837 -0.01619 0.37195 

-0.0133957 0.00654664 -0.0174224 
-0.00814144 -0.00575849 -0.0167307 
0.00322465 0.000841045 0.0170116 

0.00302506 -0.00326656 -0.0374237 
-0.0405966 -0.0240998 -0.00400892 
-0.000316244 -0.00434228 0.0339803 

0.00970911 0.342261 121.321 
0.00106485 0.028764 1.10559 
0.00266494 0.0403394 5.7299 

-0.0261239 -0.0186308 -0.0157401 
-0.0183148 -0.0106898 0.0285567 
-0.00404526 -0.00786712 0.05185 

-0.0355115 -0.0244411 -0.0248687 
0.00336773 0.00982804 -0.0222136 
-0.0095311 0.0160258 0.0383193 

0.0135444 -1.32813 -2.38648 
-0.108277 0.105743 0.898892 
0.0119051 0.00309194 0.149719 

-0.0157247 -0.000142267 0.012769 
-0.00289277 0.00320716 -0.0155443 
-0.000533002 0.000403839 0.01493 

-0.0155688 0.00723996 0.049897 
0.00170913 0.00307213 -0.00953629 
-0.00122737 0.0041957 0.0422259 

-0.0452906 0.0338604 -0.102233 
0.0128127 0.0463797 0.046025 
-3.34979e-05 -0.162321 0.148604 

-0.00635335 0.00176573 0.00283634 
-0.00894199 -0.00562042 -0.0345108 
-0.000163586 0.000800653 0.0143015 

-0.0446997 -0.0686286 -0.0671874 
0.145047 0.026579 -0.0394328 
0.00612676 -0.00134899 0.016912 

-1.68144 -2.26826 2.14107 
0.374817 0.753747 0.268778 
0.0533394 -0.0818679 0.378457 

-0.00685548 -0.00963447 -0.0174083 
0.000662579 0.002149 0.012186 
0.00033903 -0.000144709 0.00377476 

-0.00982576 0.00260029 -0.225821 
0.00388823 0.00363553 -0.0066046 
0.0042751 -0.0150429 1.87873 

-0.013118 -0.0178031 -0.0254567 
0.019774 0.00197594 -0.0378152 
0.0186501 -0.00110307 -0.494078 

-0.0298646 8.24905e-05 0.181476 
-0.0144785 0.00471437 0.488622 
0.00882479 0.0327089 -0.213753 

-0.013962 -0.0131406 -0.00759967 
0.0158485 0.00159486 -0.000310101 
1.09561e-06 -0.00147664 0.0214814 

-0.0192683 0.00418844 0.126146 
0.00679573 0.0106445 0.00100931 
0.0123946 -0.0118603 -0.0229075 

-0.0333114 0.0429375 -0.014945 
-0.0662822 0.000824444 -0.0197883 
-0.0026488 -0.0413166 0.164852 

-0.429313 -0.273229 0.296209 
0.297437 0.376577 -0.400068 
-0.0933627 0.0448681 0.145088 

-0.0263523 -0.00716596 -0.0893671 
0.00664894 0.0072164 -0.0848236 
-0.000471627 0.000256948 0.0105897 

-0.0186703 0.00579026 0.00589341 
0.00712009 -0.00760255 -0.00657315 
-0.000437557 0.00224978 0.0522435 

-0.0149986 -0.00381379 -0.107794 
-0.0052109 0.00109256 -0.0206577 
-0.000562274 0.000749717 0.00256227 

-0.0280263 0.00424478 -0.695243 
0.00333424 0.0155634 1.68625 
0.000436466 -0.00162263 -0.0260592 

-0.0371678 0.0192535 -0.129984 
-0.0253573 0.0213141 0.246538 
0.000319356 -0.000793424 0.0389918 

-0.0022692 0.0160136 0.0305934 
-0.00965196 0.000507072 -0.0138685 
0.000916487 -2.51467e-05 0.00394315 

-0.0408622 0.113651 0.330385 
0.00264064 0.0696645 -0.370108 
0.0164319 0.00776566 -0.237461 

-0.0691307 0.0874555 -0.0213746 
-0.08241 0.0595385 -0.109184 
0.00693919 -0.00323633 -0.000216532 

-0.0351677 0.0101323 0.0242625 
-0.0119427 0.0139127 -0.0119865 
0.00501721 -0.00969144 0.12074 

-0.01434 -0.00317445 -0.0132118 
0.00450326 0.00377286 0.0243341 
-0.0009752 0.000459118 0.0175387 

-0.0343906 -0.0108313 -0.0742013 
0.00261866 0.0313871 0.0724912 
-0.0263221 0.0520786 0.280023 

-0.0430131 0.0264792 -0.342889 
0.0368083 -0.051281 0.295389 
-0.00685555 0.0294126 0.197693 

-0.019388 -0.0121333 -0.0147845 
0.0163894 0.00245482 0.0464806 
0.00015051 -0.000988927 0.0203497 

-0.00713641 -0.0345256 -0.0284688 
0.0604921 -0.0268655 -0.0690109 
0.00238938 0.000481589 0.0401172 

-0.0517767 -0.00081199 -0.145719 
-0.0185351 0.0022246 0.194257 
0.0214703 0.00455623 0.0379011 

-0.00953837 -0.00977069 -0.00782187 
0.0108012 0.00373139 0.0508954 
0.000813669 0.000110945 0.00911317 

-0.00864507 0.00432929 0.0129289 
0.000342396 0.00561349 0.000929221 
0.000106762 -0.000672312 0.00934065 

-0.0231349 -0.00992014 -0.0045679 
0.00719444 0.00932929 0.722459 
0.00104048 0.00129014 -0.0585516 

-0.0113591 0.00440636 -0.0911808 
0.00145304 -0.0105791 0.058689 
-0.000709715 0.000227049 0.0236954 

-0.0347748 0.012571 0.0124288 
-0.0248667 0.00692059 -0.0217422 
-0.00368142 -0.000386095 0.0235506 

-0.00155706 0.0339151 0.080585 
-0.00300114 0.00944112 0.0656418 
0.000173261 -0.00059226 0.012147 

-0.00948484 -0.020419 0.00503788 
0.0227366 0.00189647 0.00869265 
0.000961169 -0.000388375 0.0167877 

-0.00702752 0.00381045 0.0381552 
0.00426756 0.00573545 -0.260447 
0.00434123 -0.000169168 0.435845 

-0.0409854 -0.0660353 0.0866943 
0.0821304 0.00797908 0.0264796 
-0.0189862 0.0501098 0.230932 

0.0138481 -0.0733977 -0.0543837 
0.0474291 0.00988113 -0.00260276 
0.0215279 0.0623494 0.0417556 

-0.00377155 -0.0337473 -0.272066 
0.0222887 0.00918903 0.000793372 
0.00189793 0.0221525 0.225492 

-0.947759 0.234533 -2.26529 
-0.693995 0.397561 -2.43626 
-0.0332883 -0.0124031 0.273265 

-0.0325838 0.0542438 -0.0536097 
-0.0227123 0.0680342 -0.124259 
-0.0304764 0.00268382 0.15317 

-0.0088038 0.0014824 -0.0498667 
-0.000228279 0.0104376 -0.0995446 
0.000339606 -0.00052513 0.0191933 

-0.00672442 -0.082079 -0.120463 
0.0994527 0.0245302 0.178694 
0.00398079 8.40585e-05 0.0465111 

-0.0121876 -0.00194632 -0.0292927 
0.0100925 0.00810273 -0.197431 
0.000618317 -6.90944e-06 0.0233812 

-0.0119861 0.017162 0.0470067 
0.0555977 0.00391929 -0.00308802 
0.00692202 -0.00470342 0.00433081 

-0.00816137 -0.0257939 0.0181041 
0.0567929 -0.0102164 -0.0410394 
0.000286195 -0.000454803 0.000751965 

-0.0224261 0.00312091 -0.255009 
0.0236241 -0.00188677 0.0122201 
-0.000752892 0.0148425 -0.113837 

-0.0107657 -0.00939499 0.00900767 
0.00385192 0.00656907 0.0127654 
-0.000275551 -0.000143221 0.0125099 

-0.0155248 -0.0182463 0.0109217 
0.00913526 0.00381517 0.00836321 
-0.00391164 0.0011732 0.0207506 

-0.0161599 -0.0250761 0.00996078 
0.0111123 0.00418442 -0.0104318 
0.0222289 -0.0266633 0.119172 

-0.00727158 0.00108259 -0.0182379 
-0.00663958 0.00277419 -0.00126081 
0.0021643 -0.000167776 0.00654766 

0.0699528 0.271483 -0.149277 
-0.301291 0.0504846 -0.131632 
0.00219698 0.00616332 -0.00156644 

-0.197575 -0.604439 0.420157 
0.369922 0.389947 -0.608725 
-0.0209102 0.0408338 0.104628 

-0.0403358 0.0162664 0.477423 
-0.0515207 0.0204482 -0.120451 
-0.00284679 0.00301987 -0.105105 

-0.00718489 0.022506 -0.0819169 
-0.0308465 0.0184723 -0.31018 
-0.00775434 -0.00980056 0.0793994 

-0.00252818 0.0356692 0.050622 
0.0122189 0.0197681 0.0619597 
-0.0032781 0.000339029 0.0136474 

-0.0223719 -0.0110427 0.725167 
0.0170447 0.0150786 0.628648 
-0.00350231 -7.333e-05 0.139577 

-0.051334 -0.0171771 -0.0515022 
0.0166114 0.00262656 0.0638981 
-0.000299933 -0.0249634 0.0353201 

-0.0168281 -0.0124737 0.10387 
0.00743503 0.00618687 -0.291419 
0.0118118 -0.00331145 -0.0564278 

-0.0193294 -0.000359138 0.106843 
-0.00240013 0.00298003 0.021754 
0.000289641 -0.000652084 0.00152924 

-0.0182591 0.0122098 -0.223359 
-0.0254197 0.000997162 -0.0437409 
-0.0528308 -0.0197766 -0.324554 

-0.151359 -0.122087 -0.100353 
0.14599 0.308679 0.0133081 
-0.00582111 -0.0107476 -0.0604652 

-0.0273126 0.00139476 -0.288179 
0.0341948 0.00715225 0.0736158 
0.00602937 0.00649017 -0.0842652 

-0.0238096 -0.00762215 -0.79608 
0.00307253 0.0156232 -0.5916 
-0.00308344 0.000844344 0.116698 

-0.077894 -0.23136 -0.825725 
-0.0269149 0.278973 2.67571 
0.0155643 -0.0329025 -0.436575 

-0.663685 0.802828 35.903 
-0.0210886 0.385313 16.4443 
0.0158992 0.00680211 -0.552338 

-0.0423409 -0.0667892 1.14417 
0.0639521 0.0315976 -2.39103 
-0.00795281 -0.00946063 0.19696 

-0.0871407 -0.0639606 1.65127 
-0.0294889 -0.0528175 0.23045 
0.00158496 -0.0224335 0.290444 

-0.0755531 -0.0214457 -0.250852 
0.048082 0.0502965 -0.111448 
-0.000344034 -0.000179548 0.0899892 

-0.0541168 0.02157 -0.369641 
0.00426829 0.0519376 0.249518 
0.0088081 0.00660568 0.183456 

-0.0146739 0.00493956 0.0874976 
-0.0246786 0.0134543 0.000649226 
-0.00245164 -0.00166095 0.0403641 

-0.273303 -0.11507 0.408508 
0.062031 0.217558 0.0695938 
-0.0312233 0.0147746 0.148374 

-0.00630224 -0.00139499 -0.00103033 
0.00389667 0.0011943 -0.00911099 
-0.000550011 0.000760936 0.00803851 

-0.00809616 -0.0112615 -0.0700547 
-0.00939815 0.0103851 0.0048616 
0.00097151 0.000842675 0.00714226 

-0.0148661 -5.23807e-05 0.0206041 
0.00483391 0.00738361 -0.025905 
0.00668915 -0.000680383 0.057855 

-0.0733179 -0.027247 0.162993 
0.019534 0.055246 -0.433185 
0.000143658 -0.00309169 0.0801169 

-0.0115972 -0.00311636 0.00747133 
-0.00459997 0.00308663 0.022261 
-6.5851e-05 -0.00166247 0.00291688 

-0.0141082 0.00606918 0.00803236 
0.0019432 0.00191346 -0.0101976 
0.0142788 -0.0135893 0.122471 

-0.0233625 -0.0185015 -0.0781995 
-0.061956 0.0353774 -0.116321 
0.0356615 -0.0625719 -0.0532102 

-0.0272804 -0.00146562 0.0964976 
-0.0487522 0.00813803 0.138475 
-0.00703035 -0.0156097 0.122858 

-0.0222243 0.0647323 0.0286688 
-0.0550879 0.0266265 0.118791 
-0.00388155 0.025301 0.145418 

-0.00189027 0.0263344 -0.135887 
-0.0440509 -0.00786068 0.167072 
-0.00544624 0.000476791 0.0923163 

-0.0441545 0.0179892 0.140553 
-0.163793 0.0687559 0.726911 
-0.0268572 0.0156147 -0.0445207 

-0.0249374 0.00041408 -0.0307761 
0.0064521 0.0103413 0.0102367 
-0.00610393 -0.0417152 0.117194 

-0.0268602 0.0411947 -0.0210599 
-0.0366889 0.023456 0.239172 
0.00185546 -0.000461711 0.0596534 

-0.0247664 -0.00552826 0.009115 
0.0122295 0.00591051 0.00943312 
0.00445831 0.000854337 0.0284032 

-0.0155163 0.0221694 -0.177175 
-0.00541455 0.0412345 -0.19276 
-0.00164895 0.00222238 0.0166008 

-0.145054 0.0424687 0.28788 
-0.117943 0.0909027 -0.240531 
-0.0290117 -0.103564 0.579656 

-0.0149758 0.0094764 0.0338951 
-0.00783762 0.00374377 -0.0246463 
-0.00261094 0.00990712 0.158118 

-0.00838677 -0.00579969 -0.0426449 
0.0032939 0.00398754 -0.047173 
0.000485798 0.000226025 0.119245 

-0.0252445 -0.00324935 0.0104475 
0.0147668 -0.0109357 0.0179616 
0.00853977 0.00255423 0.0689216 

-0.0157875 -0.00496299 0.00502324 
0.0039972 0.00544433 0.0065086 
0.00141748 -0.00039845 0.00770203 

-0.00527396 0.00372081 0.026644 
0.00876909 0.00374835 -0.0267605 
0.000363402 0.000390174 -0.0302106 

-0.0183384 -0.0230145 0.00649347 
-0.0114826 0.0230655 0.0237483 
0.000520007 -0.000929571 -0.0142548 

-0.00698954 0.00435981 -0.0506944 
-0.0106487 0.00701676 -0.0428078 
-0.000851758 0.00103941 0.00944345 

0.0035097 -0.166385 0.0173127 
0.109122 -0.00718786 -0.240991 
0.0201603 0.0141928 0.00218536 

-0.0683211 -0.0777752 0.0211024 
0.0511466 -0.0110937 -0.0413229 
-0.00224834 0.00109203 0.0961981 

-0.0267603 -0.00946081 0.0297093 
0.0381181 0.00649072 -0.0158197 
0.00425073 -0.0221595 0.130878 

-0.0923707 -0.069141 -1.50511 
-0.0597793 0.186361 0.883619 
0.0106812 0.0357282 -0.271477 

-0.0749267 0.114049 -0.978271 
-0.086382 0.0610231 0.836003 
-0.0161201 0.00759986 -0.117885 

-0.0677057 -0.220576 0.30576 
0.336504 0.0100418 0.0700325 
0.0362476 -0.0203001 0.261208 

-0.00764783 -0.00722974 -0.00980486 
0.0129244 0.00815981 -0.0230292 
-0.000748197 0.00211248 0.0345742 

-0.0161315 0.0480392 0.0403372 
-0.0426023 -0.0225262 0.00735302 
0.0370034 0.028721 0.182789 

-0.0419976 0.0466892 -0.0167545 
0.0180913 0.00649023 0.00615562 
0.0036463 0.00832846 0.0384018 

-0.00850992 -0.000185805 -0.0148478 
-0.00168635 0.00355391 -0.000607969 
0.00068335 0.000384124 0.00202772 

-0.137768 -0.0432285 0.591498 