# vtk DataFile Version 3.0
Output file generated by Yade's KinematicLocalisationAnalyser
ASCII
DATASET UNSTRUCTURED_GRID

POINTS 13483 float
618.355 29.1466 -0.514874
755.677 74.0325 -0.443295
120.091 6.09802 -0.468372
796.527 5.59062 0.559177
504.12 7.74161 -0.25904
316.192 35.3119 -0.474169
156.582 6.94263 0.447788
577.798 9.9746 0.168813
501.253 23.2182 0.137432
731.25 16.7307 -0.580818
210.963 8.99139 -0.103796
257.869 6.33739 -0.256906
665.603 31.3569 -0.301489
644.218 15.5755 0.106275
137.243 17.3755 0.418717
221.901 34.6307 0.398237
218.4 12.996 -0.293156
290.172 9.68255 0.390091
342.798 33.027 -0.524255
529.574 8.6044 0.337352
413.632 36.8563 -0.116642
600.386 44.6088 0.302858
791.77 56.868 0.483256
705.533 53.3718 -0.427097
462.612 16.0918 0.316875
241.698 44.4347 0.141314
496.068 27.812 -0.487814
594.67 20.2406 -0.261785
44.57 15.6688 -0.399068
724.757 35.8709 -0.3414
486.96 4.96681 0.318731
16.0246 23.5818 -0.33039
771.556 67.4928 0.278005
500.031 2.59684 0.483755
77.7797 44.8653 0.105528
526.912 30.799 0.409567
536.164 16.7457 -0.390677
345.399 22.8101 0.192474
539.608 25.4943 -0.319681
352.68 33.4589 -0.467669
241.738 14.6554 0.324387
437.744 36.1811 0.0716157
688.977 6.87727 -0.0928223
193.027 6.2644 0.340691
55.174 7.00901 -0.122128
68.4301 8.96745 -0.272145
705.513 9.36428 -0.549735
22.8256 11.9562 -0.292797
620.6 47.0159 0.365098
692.32 23.9526 0.362132
173.159 32.626 -0.310172
750.766 62.6652 -0.150842
34.4516 28.3681 -0.118103
540.051 2.97948 0.326998
142.501 7.1428 -0.496189
603.736 33.7927 0.443752
509.495 27.6109 -0.165925
175.502 0.933283 -0.270414
31.9785 2.34373 0.341429
350.577 17.9399 0.286038
631.702 49.2795 0.142667
466.248 33.6736 0.171433
402.571 1.02979 0.199219
715.456 8.49768 -0.515964
26.606 43.6847 -0.235062
257.409 30.8148 -0.327283
731.643 10.0461 0.226704
674.476 52.5132 -0.348536
421.147 8.69245 -0.485527
578.82 3.49431 -0.356005
756.974 39.541 0.448135
131.016 7.68348 0.283597
503.537 26.5028 -0.137115
482.658 14.6329 -0.179718
296.318 16.7856 -0.338761
20.0911 13.894 -0.274374
778.515 56.7384 0.365192
335.072 39.2651 -0.28529
689.791 19.2806 0.469923
705.385 13.2582 0.251799
785.387 13.7813 -0.300058
469.578 34.4491 0.187467
92.4291 38.9133 -0.265922
692.754 43.9179 -0.210102
662.935 40.9453 -0.105298
798.957 61.4533 -0.127237
777.998 0.73129 -0.572676
293.073 28.9237 0.469898
634.578 6.32886 -0.115516
23.9254 5.52033 -0.602693
133.332 38.6767 -0.169857
518.583 14.6564 0.234227
772.844 50.9462 -0.433067
196.497 29.1365 0.242279
44.1233 34.5365 0.299096
498.9 1.36088 0.138819
237.114 8.91556 -0.368799
758.216 48.8731 -0.291276
779.424 47.7294 -0.238897
364.593 20.8737 -0.261688
164.798 26.9964 -0.477056
558.585 38.4883 0.430229
383.741 15.6668 -0.458961
417.803 30.0471 0.147478
381.871 4.51792 0.410472
556.596 10.8974 -0.104887
798.679 15.7168 0.254203
80.0288 39.8441 0.394331
338.451 4.95909 -0.212274
571.202 9.3084 -0.368249
364.016 43.7746 0.462271
24.9125 25.1027 -0.45667
29.8162 5.892 -0.296004
579.555 32.8545 -0.40312
512.364 25.151 0.149615
25.9224 37.4617 0.432051
93.4233 31.2817 -0.22995
328.304 16.1007 -0.25234
613.564 18.8891 -0.1686
481.571 38.0793 0.320426
746.864 7.74614 -0.359467
739.152 6.32398 -0.224021
391.801 37.4053 0.102389
650.585 27.8767 -0.110097
240.377 16.8103 0.454181
333.823 3.8588 0.461052
103.918 31.8076 0.415018
117.076 24.3538 -0.268454
553.801 38.6118 0.074641
309.615 18.9819 0.483797
723.102 42.2058 0.118112
678.096 52.2668 0.0864079
487.876 20.806 -0.367621
784.811 30.4903 0.248087
434.917 23.782 0.241424
280.109 24.5783 0.291052
693.277 31.4326 0.292517
282.146 28.7642 0.377019
589.165 12.363 -0.197157
336.21 35.9821 0.205026
513.124 11.3725 0.494227
371.775 31.5371 0.0949193
436.918 16.8329 -0.095717
322.347 42.4214 -0.430112
192.775 30.2146 0.138081
762.089 72.1989 0.149693
796.682 14.973 0.420369
6.06553 12.7655 -0.464295
440.76 22.5996 -0.402662
38.1031 22.7531 0.0699937
382.141 31.369 -0.467312
401.389 24.9745 -0.282972
75.5164 12.0506 0.498777
51.8089 33.3599 -0.455695
228.48 13.4983 0.452296
633.617 41.6029 -0.378678
591.205 21.1818 -0.456051
75.4245 21.0066 0.509989
708.995 56.6862 0.39766
759.755 4.94423 -0.660235
680.214 41.8846 -0.515172
710.251 1.81714 0.647126
562.988 26.8948 -0.464249
601.719 45.4673 -0.463185
522.294 18.0862 -0.407624
794.026 3.77965 -0.45557
226.486 24.8139 0.112562
129.119 35.4628 0.184895
250.747 6.67893 -0.39669
95.0688 4.4535 0.278693
64.749 10.1873 0.201807
280.014 36.0937 0.320358
16.2533 25.5112 -0.355517
569.135 18.6922 -0.488048
620.641 41.4084 0.233944
472.087 20.967 -0.40208
784.834 69.1764 0.385003
414.237 8.67569 -0.112618
444.379 36.3101 -0.362585
548.699 3.45816 -0.18414
21.9261 24.6478 0.384043
591.959 4.5776 0.453534
558.623 4.33419 -0.312104
209.18 11.4984 0.492172
433.169 16.3581 -0.230637
316.604 6.31181 0.364506
395.332 18.9957 -0.331848
744.491 48.4109 0.133055
195.243 25.9789 0.415727
772.982 7.73633 -0.318256
744.71 44.296 0.478394
390.524 10.2727 -0.155851
730.238 0.866861 -0.485275
621.623 26.4723 0.431328
749.808 22.3635 -0.620749
439.536 43.1343 -0.274665
507.263 12.6504 0.385346
474.745 44.3418 -0.222464
454.659 8.77408 -0.134515
683.881 41.3654 0.280621
680.623 37.4464 0.372765
195.39 39.3916 -0.332649
783.322 13.606 -0.226179
603.352 45.5429 0.244898
11.2082 17.6774 0.178299
415.659 25.5664 0.382499
190.245 23.5362 0.406556
94.1027 39.7811 0.202892
787.184 44.1457 0.423686
677.328 48.2671 0.23842
324.836 25.7444 -0.351295
545.383 10.2148 0.315074
82.9176 45.1403 0.1675
251.671 26.2019 -0.49237
572.17 24.0536 0.369851
497.663 19.0217 0.462768
267.33 0.885929 -0.345053
568.052 40.2595 -0.389498
547.048 40.4949 -0.480694
493.024 33.4244 0.405921
511.108 1.69113 -0.659568
717.924 21.6242 -0.526975
182.332 12.3847 -0.206606
512.231 37.4398 0.465553
580.48 40.9009 0.143574
73.7492 0.963165 0.269529
256.075 4.7832 0.177693
794.786 18.4837 0.315973
785.177 15.8092 -0.537784
799.341 21.4833 -0.492496
309.136 8.63269 -0.237368
753.909 29.5479 0.424928
415.339 41.9082 -0.378962
458.863 0.80608 -0.40568
669.355 38.3922 0.443994
26.6997 31.094 0.326747
337.095 41.9584 0.548799
256.925 2.91251 0.344561
775.772 64.3678 -0.176394
725.69 57.2208 0.238269
292.694 11.0537 0.24105
686.291 30.235 0.122476
573.093 2.60277 0.313658
556.394 6.4888 0.438108
98.0018 18.5941 -0.587146
309.007 1.0416 -0.227829
349.858 2.26213 -0.364164
13.6964 7.51001 -0.465786
4.40786 32.2456 0.285112
164.378 19.0246 -0.375219
68.8358 41.9782 -0.21598
67.3735 29.0543 -0.331982
432.895 14.5065 -0.453699
374.715 35.2939 -0.479366
748.005 64.6881 -0.138793
19.4389 4.03329 0.268759
71.4691 6.98125 0.129142
642.395 40.0582 -0.179506
300.285 0.923977 0.369922
372.618 16.1381 -0.100959
239.741 4.67535 -0.375362
671.457 23.4339 0.175879
462.072 8.37876 0.418868
757.561 28.8576 -0.379725
649.511 31.1985 0.302365
688.324 17.7851 0.19955
429.569 27.5078 0.555708
103.794 45.3344 0.309234
557.33 42.254 0.076132
750.235 15.8881 0.265507
242.124 30.6594 -0.279814
31.9198 17.4289 -0.201199
343.179 13.7808 0.5169
109.247 40.9222 -0.460065
272.912 42.2935 -0.215731
435.238 1.61992 -0.324431
775.096 53.5381 0.388224
703.661 0.775068 -0.722111
338.964 3.42069 0.570581
306.236 26.699 0.147867
473.548 41.2231 0.219955
82.6405 8.28073 0.46761
201.397 45.6597 0.377643
758.567 56.9144 -0.377707
507.375 39.8546 -0.0960262
203.877 41.747 -0.299344
163.843 42.5822 0.387111
798.551 55.6624 -0.521784
797.263 16.1018 -0.694483
625.05 3.5296 -0.541952
193.747 25 -0.0936507
564.915 28.2204 0.116965
566.8 27.6831 -0.279275
418.8 5.69969 -0.137827
493.966 0.928138 -0.296173
746.207 65.3743 -0.466509
86.1575 31.5232 -0.25471
677.117 19.7147 -0.523484
279.785 15.5442 -0.367721
9.24331 2.37629 0.335586
127.626 37.3518 0.192548
67.8912 23.129 0.52655
716.577 46.6314 0.31957
775.959 78.9774 -0.106296
189.004 28.7915 0.191861
792.101 13.9388 0.533582
45.4439 36.6339 -0.264504
92.2547 29.6263 -0.183705
653.773 14.3724 0.509594
423.273 18.6164 -0.518953
532.839 16.8316 0.120754
242.649 28.6731 -0.193034
641.902 4.25013 0.513273
800.715 15.8075 0.440339
29.6242 32.0398 -0.27746
275.647 7.72082 0.195927
226.271 15.272 0.244832
1.0722 36.8389 0.148004
229.527 14.719 0.392195
215.843 11.1166 0.10377
218.361 26.6793 -0.282041
135.494 28.081 -0.148239
563.169 15.0473 -0.365184
170.244 14.2485 -0.356525
770.018 66.3916 -0.244297
177.523 3.77536 0.517533
47.743 38.2151 0.421952
750.555 55.6083 -0.456878
287.086 32.0207 -0.400153
699.954 23.1749 0.488435
784.453 52.5808 -0.475301
307.212 9.26934 0.104909
745.249 36.0847 0.39653
335.896 2.50015 -0.424289
426.351 24.5061 -0.378343
693.575 15.4504 -0.510191
107.06 11.857 -0.475537
495.669 3.83077 -0.542703
760.441 29.184 -0.198611
89.5222 7.70211 -0.23102
287.638 14.7571 0.200298
433.685 11.7793 -0.214428
794.642 2.40174 0.557004
407.575 2.00067 -0.525932
180.405 39.1123 -0.324803
752.54 13.2406 -0.293392
130.865 36.6348 0.188809
268.402 31.538 -0.410448
410.28 21.8108 0.214165
591.623 14.2879 -0.343708
396.384 9.82569 -0.499534
468.164 27.641 -0.373188
757.204 73.6583 -0.232482
47.8164 11.0209 -0.115455
305.833 38.6681 -0.267623
388.619 27.3139 0.366529
419.84 21.0523 0.262112
535.434 44.3794 0.356307
766.704 50.1924 -0.237907
685.98 36.2175 -0.427318
230.507 34.5126 -0.392984
13.553 32.9104 0.178056
679.125 38.6871 -0.149274
522.947 41.2902 0.476804
234.074 39.6751 -0.122137
700.391 40.538 0.128084
153.806 9.33134 0.237635
375.289 21.3205 0.320635
475.347 42.2611 0.110883
424.298 19.8962 0.226931
751.547 75.8649 -0.291036
436.707 3.86902 0.525598
50.1294 25.3805 -0.318638
482.175 31.8454 0.332379
446.138 42.5144 0.362217
772.787 60.3752 -0.239415
742.835 34.7338 0.277821
556.95 18.6204 -0.207364
762.621 64.4318 0.440647
299.843 2.21354 -0.461998
387.377 29.8805 0.516289
29.1659 39.1835 -0.303469
747.267 37.0529 -0.142227
629.562 19.7994 -0.455689
475.157 0.762785 -0.484673
128.453 4.55565 0.271235
437.681 40.5839 -0.116569
11.6707 0.888834 -0.321833
792.234 6.97546 -0.171531
379.049 39.3608 -0.408045
[...]
POINT_DATA 13483
TENSORS Strain_matrix float
0.00470243 -0.0206465 0.865149 
0.0491756 -0.0137868 -1.65267 
-0.00272355 0.00363627 0.0990858 

0.00368497 0.0743547 -29.1994 
0.102487 -0.146562 6.86597 
-0.0228683 0.0338446 -0.796575 

-0.0137902 -0.00741369 -0.169807 
0.0199039 0.0171619 0.865146 
0.000438676 0.00361918 0.279678 

0.0211816 0.0166121 0.0242272 
-0.00524385 -0.0261425 -0.0662821 
-0.000956357 0.0026808 0.0122885 

-0.0290945 -0.0532059 0.00819914 
0.0321021 0.00577752 -0.0149736 
0.000197069 0.000475406 0.0447034 

-0.0130772 -0.00324279 -0.024934 
0.00807277 0.0030814 0.0209235 
0.000172619 0.000602653 0.00634795 

-0.0033014 0.00676567 0.00825354 
-0.00662092 0.00278712 0.347749 
-0.010002 -0.0149116 0.00186866 

-0.00755475 -0.015737 -0.00531036 
0.0174111 -0.00327276 -0.00764485 
-0.00247654 -0.000561444 0.0212543 

-0.0193456 -0.0263669 -0.251601 
0.00515691 0.0315189 0.0804073 
0.00237982 0.00189986 -0.00422429 

-0.0719113 0.0264884 -0.250496 
0.199848 0.00803536 0.400091 
-0.00995294 0.0249945 0.161557 

-0.00740686 0.00689406 -0.0187168 
-0.00120004 -0.00168218 0.00394179 
5.82467e-05 4.36685e-05 0.0192928 

-0.0109419 -0.001554 0.00368307 
0.000427117 0.00403935 0.00110517 
0.000637615 0.00044808 0.00187283 

-0.134395 0.170746 -0.227458 
-0.0929928 0.0892506 0.580507 
0.0085561 -0.0196911 0.105188 

-0.0213072 -0.11288 0.207431 
0.113519 0.0632938 -0.0162858 
-0.0368156 -0.037282 0.265544 

-0.0240169 -0.00923051 -0.0351159 
0.00849956 0.011385 -0.000279651 
0.00121492 5.727e-05 0.0334158 

-0.0350326 -0.0368515 0.145165 
0.00164866 0.01833 0.251534 
-0.0137641 0.00466058 0.333079 

-0.0142699 0.0064387 0.0376152 
-0.00318465 0.00532392 -0.0185764 
-0.0192873 0.029198 0.00854691 

-0.0136802 -0.00581268 0.0054765 
0.000732261 -0.00149602 -0.00531316 
0.000527742 0.000675062 0.0219878 

-0.0169224 -0.00360826 0.568039 
0.0095431 -0.00196826 1.91802 
-0.00270378 0.00192186 0.0477041 

-0.0160779 0.020245 0.0687153 
-0.0151305 0.0114633 0.111213 
-0.000237759 0.00552742 -0.059782 

-0.0119128 -0.0100598 -0.0159204 
0.0145246 0.00586018 -0.0018421 
0.00171215 -0.00235885 0.0214837 

-0.0556155 0.0343927 0.143566 
-0.00373882 0.0313854 -0.0574198 
0.00604115 0.00344424 0.0253153 

-0.0248673 -0.135858 7.4303 
0.0906467 0.0254782 -0.638293 
-0.00553463 0.00494906 0.0234971 

0.0188791 0.028192 -0.697456 
0.195715 -0.00782808 4.75844 
-0.00372438 0.010671 0.649331 

-0.0162556 0.00658581 0.0303167 
-0.0186459 -0.00142218 0.114427 
-0.0024296 -0.000997785 0.0110942 

-0.034703 -0.00413082 0.0459466 
0.00629365 0.0139856 -0.0449664 
0.000191464 5.20063e-05 0.0129432 

-0.0164908 -0.00969651 1.28182 
-0.000281912 0.00741489 1.67486 
-0.000193626 -0.000851377 0.184511 

0.021414 -0.0149449 0.0346776 
-0.0287034 -0.0174254 -0.00833619 
-2.90199e-05 -0.00160392 0.0201775 

-0.0114182 -0.00355983 -0.031987 
-0.00999723 0.00898253 0.0346448 
-0.000410395 -0.00101452 0.00316086 

-0.286096 0.594736 0.644645 
-0.199354 0.242414 0.137953 
0.0124004 -0.00701564 0.228644 

-0.00917632 0.000586275 -0.00286407 
-0.00290059 -0.000217299 -0.0221297 
0.00039961 0.000704178 0.00869914 

-0.0591207 0.00373392 -0.19934 
-0.0889412 0.0342632 0.023824 
-0.0260901 -0.0388175 0.154755 

0.0602028 -0.144166 -0.460191 
0.137137 -0.0184239 -0.166857 
-0.0321149 0.00347699 -0.156735 

-0.0108619 0.038901 -0.290406 
-0.00690361 0.00398953 0.02477 
-0.000464467 0.00617009 -0.0307707 

-0.0106499 -0.00892418 -0.0173112 
0.00838838 -0.00146752 -0.0141894 
0.000183644 -0.000776566 0.00824342 

-0.0475701 0.0227172 -0.0302832 
-0.0360669 0.0298531 -0.22719 
-0.00138037 -0.000635018 0.00816383 

-0.0186239 -0.00257107 0.0689333 
-0.00382669 0.0140363 0.108252 
-0.0705726 0.026048 1.16248 

-0.112448 0.0127066 0.0198893 
-0.0286092 0.100534 0.123128 
-0.000766042 -0.00139185 0.0379614 

-0.005544 -0.00150054 -0.00584727 
-0.00778202 -0.00470206 0.0211171 
-0.0033538 -0.00242356 0.0324776 

-0.0159674 0.0076067 -0.681262 
-0.0104214 0.00339939 0.121784 
0.000703955 -0.0011369 0.0638311 

-0.0146954 -0.00940212 0.0155239 
0.0181466 -0.00198246 -0.0195853 
0.000798215 -0.000104251 0.0124393 

-8.81076e-05 -0.0030274 0.0126344 
-0.00385189 -0.00278718 -0.00401978 
0.000435922 0.000480433 0.0142079 

-0.046366 0.064719 -0.0104316 
-0.0431337 -0.0249783 -0.00346397 
0.00411407 -0.000440429 0.0591981 

-0.0343977 0.033802 0.144872 
-0.0404735 0.0179798 0.897023 
-3.52796e-05 0.00416129 0.260801 

-0.00840632 0.000147276 -0.036724 
-0.00581468 0.0134517 -0.00539278 
0.00071043 -0.000532706 -0.0329004 

-0.00941255 0.000308711 0.0101466 
0.0031087 0.00211361 -0.0130392 
0.000226604 0.000130387 0.00332566 

-0.0776345 -0.0286551 1.58032 
0.0559344 -0.000915557 0.254014 
-0.0539789 0.0251732 0.471718 

-0.00227362 -0.0103967 -0.00687658 
0.0356762 -0.0113996 0.000456101 
0.000843181 0.00051455 0.0161586 

-0.02583 -0.148056 -0.111171 
0.190755 0.0216747 -0.108638 
0.0488331 -0.0795343 0.395971 

-0.075989 0.315786 0.32006 
-0.058907 0.0872193 0.325038 
-0.00284625 -0.00223866 0.616973 

-0.0148234 -0.00476985 0.0180739 
0.0130966 0.0068795 -0.0144537 
-0.00470317 -0.00318617 0.0541131 

-0.00524561 -0.171131 -0.0953142 
0.211271 0.0426138 0.113877 
-0.0246444 -0.00740405 0.949195 

-0.0011623 0.00928435 0.000200066 
-0.00888381 -0.00354502 0.0026477 
-0.000374576 0.000733424 0.0114731 

-0.00828702 0.00064361 0.00352022 
0.00116709 0.00298966 0.000938621 
0.00045974 0.000391884 0.0036932 

0.00114812 0.0253933 -0.00443562 
-0.0344333 -0.00403914 0.51125 
-0.0536028 -0.0309148 0.187309 

-0.00731467 -0.0386022 -0.160459 
0.0310556 0.00230538 0.0318362 
-0.000643111 0.000664401 0.0171026 

-0.00681735 0.000323697 -0.00876945 
0.0395941 0.0184538 0.084738 
-0.00899537 0.00230443 -0.00678647 

-0.00577836 0.0869411 -0.141293 
0.000641809 0.0385008 -0.0206469 
-0.0103929 -0.0250975 0.568559 

-0.00498148 0.0198439 0.144582 
-0.0298233 0.00652434 0.369227 
0.000271591 -0.00243118 0.108749 

-0.0102128 -0.0117238 -0.0298781 
0.00210866 0.00958029 -0.00810364 
-0.000614665 0.000818986 0.010523 

-0.0184934 -1.30333 -0.331228 
0.103932 -0.0464945 -0.272526 
-0.00676847 0.0668985 0.196526 

-0.00375518 -0.0207167 -0.062249 
-0.00171978 0.000563644 -0.0122903 
0.000735441 0.000308508 0.00390265 

-0.0103716 0.00308998 0.00337681 
-0.00651852 0.0012252 -0.00913451 
0.000567632 0.000966043 0.0140733 

-0.108785 -0.0131277 1.05428 
0.0435993 -0.0258169 0.529264 
-0.00190709 -0.0186352 0.440307 

-0.0530023 0.0221543 -0.117167 
-0.0233984 0.0257337 -0.058921 
0.0100116 -0.0387129 0.0722275 

-0.0197502 -0.00640792 -0.054018 
-0.00521443 0.00294176 0.0357208 
-0.00671222 0.00902021 -0.0124334 

-0.279221 -0.424288 -0.0971585 
0.0598364 0.154861 -0.660048 
-0.0792845 0.0279251 0.478339 

0.0375707 -1.57802 -9.90597 
0.28901 0.364952 0.128591 
0.0491502 -0.0230373 0.82451 

-0.01008 0.0024713 -0.00262031 
-0.00199296 0.00376247 -0.0219467 
0.000322095 0.000117386 0.00891092 

-0.00358199 -0.00663168 0.0117385 
0.00373997 -0.0069474 0.0065818 
0.000117153 -0.000278809 0.0108566 

-0.0241752 -0.00636682 0.0149479 
0.196727 -0.0480148 -0.249902 
0.0393898 -0.0625698 -0.177139 

-0.00647374 -0.000110895 -0.00280242 
-0.000868481 0.00288351 -0.000537724 
8.23825e-05 -8.79971e-05 0.00657902 

-0.0160174 -0.0114443 -0.152048 
-0.0187318 0.0165113 0.0780045 
0.00212278 -0.0015849 -0.00573483 

-0.0103086 0.000812243 0.0349552 
0.00150721 -0.000836959 -0.0158186 
-0.000352797 -0.00115559 0.0150958 

-0.00794283 0.0030918 -0.0350401 
-0.00896396 0.00258468 -0.010786 
-0.000134534 0.00037787 0.0200387 

-0.00530325 -0.0204044 0.00881637 
0.0222309 -0.00315867 0.000672014 
0.00280605 0.000769812 0.0157728 

0.0431948 -0.139183 11.8676 
-0.0941295 -0.0143741 0.307207 
0.00248895 -0.013875 0.0443271 

-0.0103565 -0.00699423 -0.120598 
0.00701881 0.00353493 0.0299234 
0.0004538 -0.0013503 0.0275516 

-0.209113 0.135128 -0.155451 
0.0550674 0.0160208 -0.303635 
-0.0200622 0.0820448 0.59182 

0.0172892 0.00747971 0.0812219 
0.131029 0.00834527 0.316071 
0.00698309 -0.00782581 0.134019 

-0.00198391 0.314385 0.0194247 
-0.313963 0.0870356 0.042307 
0.0221795 0.0231725 0.0254864 

-0.0141495 -0.0418495 -0.0758582 
0.0252976 0.0085083 -0.0363065 
0.00438872 0.0384681 0.641061 

-0.00168905 0.00456284 0.0090771 
-0.00409237 -0.0017076 -0.00818589 
-0.0015741 0.00054247 0.0199978 

-1.55091 -2.29988 1.24119 
0.871423 1.43192 -0.667599 
0.0356 -0.0514664 0.455691 

-0.0133003 0.00783687 -0.0135634 
0.0786053 0.0219848 -0.0205842 
0.00056183 0.00281364 -0.040282 

0.0624648 0.0646711 0.0718595 
0.00986352 -0.0138749 0.0430178 
0.00299178 0.000679242 -0.0847405 

-0.243118 0.257291 1.1579 
-0.0349235 0.174948 0.757372 
-0.0135328 -0.0847142 -0.315238 

-0.01148 0.0112754 -0.00988829 
-0.0171385 -0.000275578 -0.00111501 
0.0023479 0.000791311 0.00443389 

-0.0225536 0.0687131 -0.0688846 
-0.0471322 0.00872432 -0.0234151 
0.00100894 -0.00495819 0.024176 

0.00467928 0.0451005 141.118 
-0.0011275 0.0429244 -9.3555 
-0.000390525 -0.00153149 -0.64743 

-0.00640585 -0.00323324 -0.0127641 
0.00345302 0.00117994 0.00132247 
0.00174674 -0.000585598 0.0140199 

-0.0129035 -0.00969606 0.00386136 
0.0124842 -0.00540162 0.0174973 
-0.00105589 0.000158885 0.0356911 

0.0485357 -2.25769 -3.70645 
0.221273 0.701463 2.42006 
-0.047039 -0.0248943 -0.164552 

-0.0400145 0.000818723 0.0700552 
-0.0131654 0.00201532 -0.0100724 
-0.0152214 0.00402218 0.0727356 

-0.0110399 0.00719385 -0.000375824 
-0.0130735 -0.000101071 -0.0392964 
-0.000350302 0.00126223 0.0222359 

-0.0106291 -0.0128773 -0.103169 
-0.00326851 0.01254 -0.0320431 
-0.000703018 -0.000334747 0.0165152 

-0.0124225 0.000144161 0.0109128 
-0.00306869 -0.0011267 -0.0252439 
-0.000807446 0.000658535 0.0198637 

0.0676953 -0.0636393 -0.00958816 
0.0731068 -0.0738779 -0.00104303 
0.0826189 -0.0246933 0.200958 

0.461865 -0.43642 0.363182 
0.554375 0.489499 -1.14559 
0.011682 -0.00527403 -0.0641215 

-0.0130226 -0.012058 -0.000380116 
-0.00825336 0.0152107 -0.0241098 
0.00012984 -0.000431532 -0.0104151 

-0.0130385 0.00212121 -0.038437 
-0.00226514 0.00913946 -0.149144 
-0.0010162 -0.00121272 0.0434281 

-0.0106868 -0.00514439 -0.118281 
0.00379814 0.0018757 -0.0328193 
-0.000205853 -0.000850525 0.00964045 

-0.00904791 -0.00969411 0.101993 
0.0120797 0.00328044 0.134148 
0.000682416 0.00044712 0.0102202 

-0.0214146 -0.0300256 0.0021605 
0.0273073 -0.000115801 0.0153899 
-0.0191341 -0.0186104 0.11785 

-0.00759232 0.000677224 0.0594384 
-0.00672233 0.00425489 0.0368731 
0.000655124 3.17334e-05 0.00720391 

-0.00769259 0.00892526 -0.0063656 
-0.00863345 0.0041518 -0.00404658 
-0.000187807 0.000317661 0.00038354 

0.0012894 0.00780918 -0.0514916 
0.0182874 -0.0209035 0.0207 
-0.00118776 -0.00218818 0.00342823 

-0.0159172 0.00272886 -0.0203584 
0.00163578 0.00630979 0.00852895 
-0.000777504 0.00033667 -0.00433104 

-0.0140507 0.0126672 0.0133419 
0.0219165 -0.00680093 -0.0440039 
-0.00299114 0.00436824 0.0743486 

-0.00343393 -0.0113101 0.0269449 
0.00572416 -0.0161363 -0.0536518 
3.92144e-05 0.000361573 -0.00582593 

-0.00996177 0.00702126 -0.114029 
-0.0110048 0.00249984 -0.383867 
2.08687e-05 -0.000218964 0.0402823 

0.000220536 -0.0106273 -0.353434 
-0.00237264 0.0106406 0.180602 
0.000571932 0.0016201 0.0410537 

-0.0222741 0.0405895 0.00578948 
-0.0533341 0.0128632 -0.0824284 
-0.0240986 0.018505 0.184018 

-0.0356262 -0.0186555 0.101521 
0.0355592 0.00726543 0.0197562 
-0.0034275 -0.0014733 0.0735103 

-0.0493824 0.0590322 0.000281143 
-0.0230698 0.0479498 -0.085383 
0.0147363 0.0512391 0.176405 

-0.0191994 0.0259418 0.25377 
-0.0198463 0.00474702 0.95481 
-0.0017463 -1.80889e-05 0.0888146 

-0.0124856 0.00207078 0.00926632 
0.0010005 0.00322004 -0.0423486 
6.05708e-05 0.000811507 0.0162146 

-0.0158035 -0.00397459 -0.014319 
0.0185623 0.00852066 0.0170051 
0.00247857 -0.000318398 0.032014 

0.0113368 0.0292572 -0.0158033 
-0.0243742 0.00408683 -0.0123358 
0.000799524 0.00114106 -0.0306832 

0.00198417 -0.00618964 0.101338 
0.00242957 -0.00434765 0.0280953 
0.000819526 0.00139147 0.005437 

-0.208125 -0.0942762 0.142772 
0.279498 0.12764 -0.17773 
-0.0987095 -0.075827 0.269459 

-0.284229 -0.101301 0.382431 
-0.273851 0.200864 0.0335033 
-0.0538326 -0.00303815 0.157192 

-0.0141009 -0.000985571 0.00674317 
0.00753056 0.00672718 0.0503388 
0.000548797 4.35321e-05 0.0141708 

-0.0855066 0.101046 0.141337 
0.0500256 0.0677305 0.127226 
-0.00186494 0.000300012 -0.0338588 

-0.0202407 -0.00665912 -0.02031 
0.00496024 0.0067558 0.268079 
0.000658236 0.000629224 0.0103709 

-0.0247121 -0.0261141 -0.086325 
-0.00357016 0.034357 0.0121863 
0.0288636 -0.0911165 0.242382 

-0.0163967 0.0105042 0.00868594 
-0.0146766 0.00563314 -4.79819e-07 
0.000555761 -0.000137294 0.00617726 

-0.00588768 -0.00670002 -0.0312578 
-0.00668361 0.00435629 -0.0652054 
-0.00159715 0.000141938 0.00318522 

-0.0104626 -0.00500427 0.00130604 
0.00159367 0.0024331 0.0058543 
0.00113859 -0.000282412 0.0134488 

-0.0188783 -0.000787837 -0.368399 
0.00338716 0.00662616 -0.137006 
-0.000206405 -0.000346335 0.0165234 

-0.125489 0.320432 0.389459 
-0.254848 0.252502 -0.223689 
0.0416683 -0.0280863 0.128857 

-1.20472 -2.61067 3.59255 
0.409019 0.848786 -0.609815 
-0.132542 0.0603048 0.136643 

-0.0121712 -0.00431628 -0.0135868 
0.00388707 0.00534697 -0.0209173 
-0.000701315 0.000338857 0.0257421 

-0.411332 0.284002 -1.43055 
-0.280475 0.409388 -1.16259 
0.0471267 -0.000671922 0.01452 

-0.026954 0.0181472 0.00839159 
-0.0132502 0.0219525 0.051484 
0.00130531 -0.000946942 0.0257283 

-0.0178628 -0.00604424 -0.0726384 
-0.00697168 0.0143338 -0.136383 
0.000340194 -0.0012668 0.0375982 

-0.00684265 0.12975 -0.0283754 
-0.139622 -0.0322459 -0.217094 
0.0144293 0.0166361 0.122855 

-0.0170021 -0.00471216 -0.0169848 
0.00733344 0.00883232 -0.309918 
0.00176789 -0.000971718 0.0402092 

-0.00336058 -0.0267996 0.0145654 
0.0222135 0.00839549 -0.0112534 
0.00339766 0.00107978 -0.0179299 

-0.00759634 -0.0216941 -0.00860082 
0.0259012 -0.000125766 0.0400141 
0.000835474 -0.00131302 0.0140166 

-0.0201536 -0.0145616 -0.0150536 
0.00294197 0.000603835 0.0127321 
0.000193986 0.00068095 0.0420831 

-0.00929809 0.00422059 0.0120413 
-0.00344063 0.00399094 0.00321258 
-0.000175593 -0.000385135 0.0103616 

-0.0429239 -0.0502566 -0.0583112 
0.0437595 0.0110298 0.0184016 
0.0485264 0.0387208 0.437172 

-0.0166257 -0.0103985 0.0261229 
0.00175143 0.0035136 0.0861646 
-0.00764959 0.0084029 -0.0121762 

-0.0162165 -0.00080915 0.00992259 
0.00957254 0.000555671 -0.0106959 
-0.00639454 0.00272176 0.0728864 

-0.0109163 -0.0317388 0.610698 
-0.0148276 -0.0287494 -1.66084 
-0.0249118 0.0080184 0.826127 

-0.0399565 0.0382238 0.00170188 
0.0767914 -0.0358009 -0.0796868 
0.00985503 -0.0332527 0.108868 

-0.00712833 -0.0238893 -0.0564446 
0.0188216 0.00211924 0.0981339 
0.00364183 -0.00116417 -0.026158 

-0.000928031 0.00794855 -0.0988374 
-0.0158415 0.00928981 0.015137 
-0.000394916 0.000504526 0.00141866 

-0.0137664 0.00131564 0.0415819 
-0.0291538 0.00898018 0.0537859 
0.000140344 0.00265829 0.00964882 

-0.0134147 0.0117204 0.0467911 
-0.0184504 0.00661846 0.0817115 
-0.00096177 -0.000402207 -0.0212418 

-0.00787685 -0.0053167 -0.0031389 
0.004832 0.000777258 -0.000694551 
-0.00021406 -0.000698564 0.0116027 

-0.0112105 -0.00316465 -0.0174182 
0.00350187 0.00206343 0.0638206 
-0.000241821 0.000157081 0.036927 

-0.0147198 -0.00029949 0.235818 
0.00259876 0.00142075 -0.0571236 
0.0110514 -0.011328 -0.0990409 

-0.0158865 -0.00156059 0.000809531 
0.0086626 0.00195163 0.00971309 
-6.93366e-05 -5.85069e-06 0.0418326 

-0.0372892 0.0452605 0.0560271 
0.0792014 0.100762 -0.628493 
-0.0268184 -0.00437285 0.675723 

0.00387519 -0.0154454 -1.1969 
0.020997 -0.0297928 0.9818 
-0.00186034 0.000772618 0.0328058 

-0.0110047 -0.0102027 -0.0294064 
0.00364611 0.00866988 -0.0800307 
-0.00166843 0.000398156 0.067528 

-0.0647412 -0.488391 -0.0561363 
-0.023978 -0.129004 -3.67817 
-0.0274941 0.0429334 -0.147938 

-0.523658 0.984919 -14.3378 
-0.368301 0.63973 -2.28812 
0.0457757 -0.00771945 -0.159458 

-0.0419717 -0.225034 14.0875 
-0.115299 0.137406 -4.62835 
0.00248322 0.000244103 0.221791 

-0.0409021 -0.00406803 1.06736 
0.0306247 -0.104885 2.05417 
-0.00152932 -0.0059727 0.326696 

-0.0112821 -0.0205702 0.170605 
0.00157046 0.017534 0.456839 
-0.000621516 -0.000761309 0.0482656 

-0.0473655 -0.0196615 0.078813 
0.0200157 0.11739 -1.76558 
0.0100978 0.00359662 -0.253819 

-0.00680391 -0.0169675 0.0243042 
0.00877093 -0.00345999 0.00599744 
-0.000662451 0.000139014 0.0232765 

0.0203257 0.00649358 -0.0146899 
-0.00972751 -0.0208832 -0.00822717 
-0.0047507 0.00636099 -0.00814784 

-0.00623211 -0.00405292 0.000908928 
0.00883123 0.00482029 -0.00170553 
-0.000100488 -0.000908142 0.0110636 

-0.00945922 -0.00261738 -0.00825936 
0.00693283 0.00168504 0.00294167 
0.00016743 0.000402785 0.00664853 

-0.0143314 0.000709189 0.00869122 
0.00448883 0.00497126 -0.0144579 
-0.000232316 0.00049929 0.0106887 

-0.0114202 -0.00324172 0.00683195 
0.000274767 0.00295095 0.0161224 
-0.000225149 -1.62895e-05 0.0184752 

-0.0110122 0.0058304 0.000545994 
-0.0111373 0.00153016 0.0361602 
0.000536309 -0.00012753 0.0102887 

-0.00920033 -0.00286469 -0.00573097 
0.00533473 0.00162915 -0.0180683 
7.1776e-05 -0.000466416 0.00974487 

-0.0938444 -0.0689943 -0.523238 
-0.0680369 0.141139 -0.408626 
0.0061166 -0.025919 0.0420039 

-0.0846663 0.01537 0.0988576 
-0.0720443 0.0560732 0.163868 
0.0010211 0.00680128 0.0914382 

-0.029181 -0.118776 -0.125655 
0.208032 0.0177846 0.119833 
-0.040033 -0.054166 0.426706 

-0.00798528 0.0133146 -0.0109026 
-0.0229267 0.000556912 0.0330587 
-0.00352005 0.000360945 0.0249111 

0.0261831 0.0191092 0.0643684 
0.00885254 -0.00502421 0.121924 
-0.00103844 -0.00212031 -0.0704291 

-0.0077575 0.00455466 -0.00472012 
-0.00734128 -0.00201237 -0.0118655 
-0.000195355 0.000302125 0.0158255 

-0.0241791 0.0108729 0.143882 
-0.0170425 0.032455 0.244241 
-0.0259295 -0.00713379 0.167857 

-0.0132258 -0.00509075 -0.00390889 
0.00201968 0.00690851 -0.00224653 
0.00208442 0.00078151 0.0058318 

-0.0481596 -0.0823669 -0.0216753 
0.0112543 0.0648216 -0.0679881 
-0.00232197 -0.0104554 -0.0321195 

-0.00376887 -0.0275799 -0.0440289 
0.00130374 0.00754423 0.0344635 
0.00028567 -0.00146708 0.00942466 

-0.00674431 5.76375e-05 0.000237333 
-0.00529158 0.00208269 -0.00198608 
0.000250594 0.000777766 0.00726273 

-0.0135337 0.0122337 -0.143719 
-0.00535651 0.00278308 0.10216 
-7.8077e-05 0.000277154 0.053236 

-0.0217975 0.0282119 0.0373845 
-0.0287953 0.00364918 -0.0904846 
-0.0480116 0.0208945 0.0429057 

-0.0169735 -0.00288668 0.000866456 
-0.00762224 -0.00317591 0.0386993 
-0.00102043 0.00143103 0.0492633 

-0.00620508 -0.00166091 0.00673004 
0.000675908 0.00176584 0.000307299 
0.00016653 0.00037009 0.0130455 

0.0444044 -0.138094 -0.0567112 
0.159005 -0.0198866 0.010069 
0.0457046 -0.0198687 0.25888 

-0.0333905 -0.0137091 0.0129752 
-0.00701825 0.0254237 -0.0618841 
-0.0325677 0.00903192 0.146793 

-0.0512124 -0.063241 0.0073286 
0.0948299 0.106795 -0.0314916 
-0.0783875 0.0762767 -0.0682621 

0.0354428 -0.133314 -0.0463758 
0.16417 0.0135767 0.0383126 
0.000343422 -0.00232383 -0.0101277 

-0.00999706 0.00200714 0.0135259 
0.00645557 0.00137164 0.00276458 
0.000966543 -0.000128758 0.0147239 

-0.618484 -0.917965 -1.92183 
-0.0594299 0.232048 0.0346351 
0.0887595 0.15235 1.00706 

0.00260158 -0.0164596 -1.01818 
0.000431394 0.0108313 0.365752 
0.00281694 0.00330555 0.167914 

-0.123625 -0.155016 -0.280552 
0.169342 0.0934377 -1.44372 
-0.00435195 0.00176478 0.308713 

-0.00917901 0.00219798 -0.0108842 
-0.00389892 0.00224922 0.00120953 
0.000427442 0.000569286 0.0117657 

-0.0106965 -0.00496753 -0.00127126 
0.00678058 -0.0189618 -0.0205044 
0.00206888 0.0046882 0.0452607 

-0.00145494 -0.011536 -0.0186337 
-0.00965967 -0.0238108 0.0300741 
-0.000931718 0.000335221 0.0195403 

-0.0170881 0.00840402 0.0035301 