# vtk DataFile Version 3.0
Output file generated by Yade's KinematicLocalisationAnalyser
ASCII
DATASET UNSTRUCTURED_GRID

POINTS 13483 float
615.864 28.9595 0.443514
763.962 67.7606 0.548369
121.02 6.19038 0.456848
795.859 4.26607 0.327824
505.602 7.84333 -0.251347
317.534 35.2392 -0.476933
157.762 6.94279 0.433189
578.96 10.1991 0.171407
502.642 23.377 0.15665
727.482 13.9711 0.646394
212.051 9.02521 -0.11338
259.204 6.32144 -0.25684
669.195 35.286 -0.148904
643.841 14.9127 -0.139651
138.025 17.1434 0.426836
223.127 34.5036 0.404826
219.368 12.9834 -0.287723
291.445 9.66782 0.390197
343.948 32.6082 -0.491883
530.799 8.63833 0.339058
415.195 36.7045 0.103598
599.887 47.3173 0.267032
790.688 46.255 -0.498365
706.524 44.302 -0.483508
464.03 16.0836 0.283985
243.07 44.405 -0.126227
497.461 27.7061 -0.53396
595.394 21.5253 0.23579
45.6084 15.6458 0.385771
728.871 49.2872 0.361924
488.482 4.89258 0.360589
16.5276 23.5963 0.321399
778.532 69.3683 -0.284403
501.252 2.5665 0.472781
79.0217 45.083 0.106714
528.442 31.3244 0.339203
537.285 16.7654 -0.408826
346.959 22.4135 -0.213122
540.287 25.6204 -0.321303
353.629 33.6571 -0.428551
243.358 14.6914 -0.375643
439.622 36.1258 0.0745825
686.367 8.85759 0.16336
194.138 6.25378 0.355379
55.9659 7.1349 0.0720155
69.0352 8.9654 0.284458
699.702 8.95847 0.574877
23.6732 11.6561 0.282689
621.454 45.7185 -0.387124
686.5 24.2623 -0.42404
174.152 32.6528 0.314308
764.602 54.8056 -0.176672
35.2766 28.2476 0.127906
541.313 2.97716 0.328532
143.271 7.46854 -0.5008
603.703 36.3608 0.470438
511.295 27.6527 -0.147324
176.58 0.942452 -0.265569
33.1125 2.41994 0.298237
352.295 17.915 0.259979
632.471 46.5104 -0.141503
467.833 33.8754 0.195866
403.607 1.03116 0.198899
710.115 9.84687 -0.391633
26.8055 43.2355 -0.234921
258.914 30.7089 -0.327669
727.671 8.07957 0.335615
685.726 56.298 0.38394
422.212 8.67417 -0.481882
580.039 3.5795 -0.316489
748.115 36.6046 -0.54648
131.787 7.7029 -0.322136
505.211 26.0473 0.138913
484.047 15.0622 -0.149089
297.57 16.7763 -0.342778
20.843 13.6812 0.242999
787.262 62.0009 -0.408839
336.454 39.2778 -0.286236
683.778 21.5083 0.433657
700.666 14.1586 -0.326736
784.485 16.356 0.331152
471.264 34.6317 -0.183224
93.4579 38.8734 -0.281747
695.223 38.5506 0.260017
663.122 42.8898 0.102125
796.73 52.2423 0.124259
781.681 0.694868 -0.726144
294.188 28.7416 0.477619
632.939 6.68751 0.0914574
24.5992 5.27919 0.542292
134.467 38.5835 -0.154201
520.411 14.7537 0.216746
778.549 44.4596 0.498392
197.817 28.9057 0.233245
44.7271 34.4406 -0.312923
500.096 1.29733 0.125722
238.622 8.88125 -0.371674
746.208 48.3995 -0.254319
763.714 42.0687 0.23369
365.863 21.1366 -0.261396
165.843 27.1491 -0.46381
558.455 39.393 0.492993
384.73 15.7348 -0.447714
419.525 29.7136 -0.10273
382.959 4.51682 0.409026
557.775 10.9261 -0.0963664
798.484 13.3442 -0.262969
81.254 39.8473 0.400577
339.765 5.00624 -0.208604
572.467 9.45224 -0.363601
365.111 43.9072 0.463033
25.7666 24.3451 -0.51697
30.7616 5.7562 0.327557
578.943 33.7386 -0.449942
513.099 23.7712 -0.184536
26.7456 37.0578 -0.426775
94.2353 31.2653 0.219644
329.536 16.0299 -0.27899
612.863 18.8776 -0.16971
482.848 37.9986 0.318333
743.212 9.03374 -0.508935
736.473 7.41679 0.263373
392.947 37.4234 0.104637
651.221 27.0999 0.0962819
241.765 17.0994 0.497682
335.139 3.89055 0.456006
104.729 31.6216 0.405623
117.783 24.1073 -0.274982
554.58 39.7501 0.0660955
310.788 18.8734 0.489701
723.638 49.577 0.099146
690.427 55.7239 0.112367
489.833 20.6086 -0.443773
772.867 27.1935 0.300517
436.15 23.2938 -0.247863
281.733 24.2083 0.292047
689.45 40.978 -0.397977
283.761 28.9483 0.38529
589.482 13.6055 -0.192048
337.623 35.9686 0.20086
514.681 11.1878 0.487195
373.194 31.8326 0.0962274
438.267 16.7477 -0.108317
323.537 42.4183 -0.397303
194.033 30.1258 -0.123444
769.099 67.5385 0.109868
795.609 14.5261 -0.324165
6.14342 12.5236 0.480452
442.368 22.4157 -0.424113
38.9713 22.579 0.0877374
383.173 31.5714 -0.396422
402.318 24.869 0.284988
76.1577 12.1013 -0.530517
52.6984 33.3727 -0.427747
230.009 13.5256 0.416449
633.882 38.955 -0.405449
591.809 22.7546 -0.49418
76.152 20.8701 -0.536085
707.285 48.5617 0.5981
769.635 2.53947 -0.635617
679.902 50.0005 -0.501834
706.249 2.36341 -0.568077
563.366 26.9227 0.385111
601.515 47.6213 -0.444517
523.66 18.6088 -0.4489
794.02 3.97739 -0.309878
227.701 24.6226 0.116091
130.067 35.5869 -0.203573
252.093 6.80341 0.404045
95.8949 4.45837 -0.279947
65.3154 10.2186 -0.2483
281.45 36.4871 0.298348
16.8401 25.3238 -0.358878
570.17 18.9428 -0.472373
620.729 40.6284 0.232109
473.181 20.8484 -0.396105
795.18 73.7944 -0.366915
415.258 8.63927 -0.108714
446.145 36.7131 -0.365711
549.919 3.46947 -0.187743
23.1766 23.9283 -0.419591
592.067 4.71057 0.446229
559.844 4.34025 -0.308988
210.282 11.5203 0.491222
434.407 16.5144 -0.206222
317.888 6.33438 0.360436
396.308 19.1899 -0.32191
735.624 44.404 0.109995
196.223 25.9442 0.431867
778.16 14.2386 -0.328005
736.514 39.5853 -0.375469
391.564 10.2885 -0.157665
726.06 2.41657 0.470595
620.04 26.2489 -0.393652
750.482 18.1884 -0.486579
441.193 43.1733 0.313518
509.252 12.7308 0.360223
476.315 44.5605 -0.225924
455.952 8.62969 0.126479
683.689 49.9998 0.264876
682.221 45.6044 0.301614
196.311 39.3298 0.348274
782.486 19.675 -0.0863823
603.981 47.9711 -0.241673
11.6345 17.1057 0.238707
416.85 25.4007 0.356306
191.275 23.2882 -0.418094
95.1259 39.7009 0.206947
775.695 42.5457 0.422661
676.006 53.9556 -0.227802
326.06 25.6905 0.346526
546.565 10.2018 0.31699
84.1602 44.9426 0.172828
253.148 26.0317 -0.473877
571.558 24.8648 0.47894
499.187 18.9215 0.45826
268.624 0.889644 -0.347595
567.731 40.9113 -0.37555
547.94 40.6105 0.492935
494.156 33.1159 0.401112
512.135 0.863882 -0.570754
713.751 21.2566 -0.480135
183.494 12.2767 -0.177905
513.509 37.6185 -0.455127
579.79 41.2083 0.150681
74.5237 0.974588 -0.277598
257.422 4.7159 0.181503
794.603 18.1695 -0.286561
785.147 17.8216 -0.569276
800.062 18.8316 -0.706263
310.398 8.60293 -0.230131
754.386 23.3791 -0.459402
417.051 41.518 -0.330058
460.207 0.804338 -0.405747
669.778 42.6336 0.498603
27.5411 30.7581 0.271062
338.513 41.3927 0.615571
258.29 2.86239 0.344138
781.683 66.3993 -0.248391
721.682 62.6671 -0.16559
293.967 11.0444 0.241051
684.763 35.3313 -0.0957805
574.332 2.65016 0.306587
557.598 6.49404 0.435312
98.6002 18.4676 0.499065
310.293 1.03728 -0.22718
351.077 2.24389 -0.371953
14.1709 7.6016 0.431897
4.45964 31.1773 -0.28265
165.482 19.1655 -0.403112
69.6436 42.3471 -0.208811
68.2406 29.4145 0.331658
434.082 14.6276 -0.442946
376.174 35.3421 0.484925
761.74 55.5492 0.138814
19.9171 4.02913 -0.267832
72.2092 7.00219 -0.133641
643.639 38.0118 0.181144
301.55 0.921314 0.369323
373.746 16.1257 -0.101078
241.145 4.61145 0.37181
668.835 26.3492 0.209465
463.465 8.34985 0.413649
757.839 21.9025 -0.632798
651.522 30.5986 -0.290967
682.999 19.6584 -0.147047
431.447 27.0788 0.527033
104.328 45.5712 0.302659
557.868 43.7378 0.0751343
748.74 13.3411 0.337427
243.638 30.5729 -0.242614
32.8274 17.146 -0.189164
344.634 13.8611 0.508708
109.764 40.7304 -0.464955
274.426 42.3855 -0.20689
436.402 1.6092 -0.309902
784.848 57.4137 0.410313
701.391 2.66424 0.659327
340.274 3.45884 0.566596
307.362 26.5748 0.15606
474.959 41.4882 0.226086
83.4668 8.20497 -0.463549
202.543 45.3606 0.377715
769.23 48.9182 0.363402
508.532 39.8308 -0.0965975
205.035 41.4425 -0.282495
164.73 42.7104 0.317703
798.204 47.4536 -0.39494
797.432 14.9088 -0.60062
624.202 3.2273 -0.62153
194.904 24.7804 -0.108238
564.305 28.6589 -0.100662
566.286 28.1206 -0.255672
419.856 5.68133 -0.139636
495.044 0.946827 0.362153
759.016 56.0589 -0.479201
86.8815 31.3018 -0.245798
673.138 23.0332 0.576183
281.086 15.4977 -0.369603
9.69241 2.33912 -0.349374
128.597 37.2437 0.196632
68.5997 23.1005 -0.505588
716.266 46.805 0.127472
783.912 74.2124 0.0928838
190.281 28.6637 0.190231
792.265 15.8257 0.349369
46.1701 36.6129 0.264511
92.9403 29.7177 0.184613
652.398 13.3505 0.592691
424.301 18.2887 -0.482193
534.014 16.8668 0.121538
244.146 28.5771 0.162331
640.007 4.14117 -0.502944
800.979 14.3596 0.526307
30.5314 31.8108 0.290215
276.918 7.69829 0.196631
227.683 15.1584 0.279788
1.07473 35.7774 -0.154153
230.989 14.5884 -0.373261
216.988 10.9804 0.117287
219.645 26.5163 0.267911
136.248 27.9802 0.125442
564.474 15.0071 -0.355045
171.243 14.2432 -0.361682
776.007 66.6246 -0.234688
178.609 3.82251 0.507053
48.3947 37.6801 0.434891
738.388 54.4314 0.476899
288.77 32.222 0.401577
693.139 24.2593 -0.40535
787.781 56.2396 -0.505939
308.423 9.21123 -0.106639
738.522 31.8505 -0.387785
337.207 2.52235 -0.419981
427.236 23.955 0.354612
689.064 17.6157 0.503121
108.033 12.36 -0.42456
496.957 3.82844 -0.554445
761.408 21.1129 0.205715
90.3768 7.69425 0.225512
288.933 14.7122 0.208433
434.863 11.8144 -0.204764
792.621 4.22432 0.556504
408.602 1.99955 -0.526543
181.377 39.0476 0.301952
750.564 10.3171 -0.397949
131.787 36.7534 0.200748
269.85 31.6977 -0.423019
411.273 21.7843 0.226323
591.79 15.6665 -0.305859
397.428 9.826 -0.495033
469.623 28.0376 -0.454543
765.048 67.5629 -0.425548
48.9837 11.1685 0.119498
306.962 38.5365 0.261253
389.767 27.5039 -0.352265
420.735 21.0136 0.242803
537.117 44.8129 0.356387
754.157 50.2925 -0.225277
686.808 44.9437 0.35322
231.666 34.148 -0.402182
14.1999 31.6814 0.150711
680.234 46.1386 -0.119933
524.288 42.3226 -0.304764
235.526 39.3312 0.128082
698.713 33.0352 0.135908
155.006 9.32096 0.220531
376.26 21.2994 0.349804
476.793 42.4445 0.110242
425.3 19.6568 0.22187
760.118 67.9435 0.290927
437.904 3.86562 0.512859
51.0645 25.4742 -0.333084
483.323 31.712 0.327803
447.543 42.0049 0.427585
780.859 60.2342 -0.236564
740.859 28.5154 0.23947
558.126 18.3825 -0.220804
773.012 60.7186 0.492165
301.109 2.20931 -0.46301
388.717 29.9234 0.468655
29.8238 38.9519 -0.302475
741.423 32.3946 -0.153175
628.595 20.3842 -0.507108
476.611 0.771799 -0.473875
129.297 4.51955 0.275895
439.076 40.4989 0.0989178
12.1532 0.908666 0.316114
791.86 6.74722 -0.110958
380.219 39.5505 -0.401542
[...]
POINT_DATA 13483
TENSORS Strain_matrix float
-0.00836902 -0.0696225 0.417345 
0.0264034 0.0558125 -0.066508 
-0.00140705 0.00264695 0.101055 

-0.322197 0.405059 7.68269 
0.057586 0.151453 -3.14033 
-0.00120692 0.000531983 0.183255 

-0.0196716 -0.00346768 -0.0156032 
0.00837421 0.00781739 -0.0650299 
0.000221018 -0.00077032 0.0131426 

-0.0688786 -0.10501 -0.703579 
-0.01071 0.153127 0.416029 
0.08076 0.0399116 0.174175 

-0.0642563 0.00600938 0.00282734 
0.00236428 0.0303772 -0.0648926 
-0.000788141 -0.000177907 0.0640437 

-0.00730985 0.00033842 -0.0100085 
0.00259791 0.0108667 -0.0455121 
0.00155104 -0.00239209 0.000163867 

-0.0148364 -0.0268711 -0.0187277 
0.0150768 0.0080094 -0.0248079 
0.00144969 0.000982305 0.000672695 

-0.0432943 -0.030817 0.0275792 
0.0871902 -0.000594335 0.0568447 
-0.00335692 -0.00209908 0.0576845 

0.0168872 -0.0153138 -0.0533609 
0.00279441 0.00750565 -0.037344 
0.00683249 0.0130633 -0.00176739 

-0.167935 -0.014553 1.18055 
-0.0285856 0.0105581 1.97974 
-0.0139295 -0.000429713 -0.309593 

-0.00521514 0.00613912 -0.00569363 
-0.0024422 -0.00129144 -0.00938987 
-0.000197044 -0.000245174 0.0176528 

-0.0116577 -0.00862167 0.00952091 
0.0112961 0.00559933 0.00547647 
0.000722355 0.000644536 -0.0026571 

-0.0514358 0.216121 1.83865 
0.22072 0.0561807 1.04002 
-0.0160692 0.0207109 0.081361 

-0.0781645 0.011884 0.184323 
0.0307989 0.0064185 0.0333157 
-0.0362264 0.0261346 0.753765 

-0.0136172 0.0044739 -0.105493 
-0.00765168 0.003034 -0.0821735 
-0.000644954 0.0007184 -0.0146466 

-0.0290188 -0.0308305 0.114087 
-0.0174758 0.0126384 0.253666 
-0.0130275 0.00427553 0.33938 

-0.0136379 0.0013156 0.0137141 
0.00124402 0.00316703 0.00061583 
-0.000282321 -0.000286145 0.00707543 

-0.015733 -0.00175877 0.00710553 
0.00117137 0.00299889 -0.0119681 
-9.45897e-05 0.000656108 0.0188007 

-0.0526548 0.00831322 -1.41971 
0.0463211 0.017749 2.3192 
0.000420093 0.00997492 -0.0441157 

-0.0188232 -0.0193935 0.00672703 
-0.0103249 0.0254881 0.196732 
-0.0204904 0.0145404 -0.160064 

-0.00118958 -0.00512697 0.00114442 
0.00364267 0.000828817 0.00293982 
-0.000372877 -5.90372e-05 0.000291135 

0.031373 0.0539127 0.0558994 
-0.0157773 0.00585188 -0.328397 
-0.00324501 0.000730782 0.0447024 

-0.262581 -0.511245 0.0704043 
0.0616862 0.0675043 0.348235 
0.00586682 0.0118308 -0.0820197 

0.023593 -0.168618 0.213478 
0.141284 -0.0604431 -1.90177 
0.00944911 0.0291981 0.215277 

-0.00599307 -0.00133652 -0.00911073 
-0.00128268 0.00046196 0.00112736 
-0.000133636 0.000146371 0.0114539 

-0.00287798 -0.00998414 0.0113176 
0.00780014 0.000371105 -0.00647022 
-0.000857557 0.000584468 0.00539674 

-0.00571938 -0.0170053 0.472973 
0.0223778 0.00917444 0.13829 
-0.000810849 -0.000786785 0.133133 

-0.00654135 0.0496681 -0.0471988 
-0.0829607 -0.00635905 -0.0289491 
-0.00193162 -0.00309297 0.0260502 

-0.0106008 0.000163971 -0.149839 
0.0137551 0.000985716 0.02933 
0.00213646 0.00254704 -0.0364597 

-0.00886078 -0.351302 -0.298935 
0.439619 0.0912043 -0.0797813 
0.0627277 -0.102914 0.42055 

-0.014747 0.00748892 -0.114321 
0.00146519 0.0134993 0.0441597 
-0.00911335 0.0441837 -0.101991 

-0.0194862 -0.00193392 -0.00137321 
0.00112794 0.0166342 0.00537613 
0.0172491 -0.0108495 0.0500549 

0.00080678 -0.050986 0.0122062 
0.0630312 0.00182684 -0.0229073 
0.000326565 -0.000602321 0.00371625 

-0.0121531 0.0312735 0.0172477 
-0.0329852 0.0164141 0.0826213 
-0.00817716 -0.0419482 0.175785 

-0.00934667 -0.00659241 -0.0209563 
-0.00725656 -0.01503 -0.0751927 
0.000235289 -7.85806e-05 0.00887926 

-0.0237695 0.0374106 -0.0212505 
-0.034945 0.00968107 -0.0466841 
-0.000963391 -0.000205064 0.0272972 

-0.00194709 0.00849091 -0.421311 
-0.0142723 0.00497741 0.273918 
0.000824614 0.000361754 0.0562567 

-0.0210442 -0.104544 -0.0079375 
0.0793864 -0.0099166 -0.00611694 
0.00390893 0.00425603 0.060913 

-0.00296001 0.0469988 -0.0107941 
0.00254807 -0.0122683 0.0184531 
0.0002033 3.80836e-05 -0.000611169 

-0.00694582 0.00867587 -0.970847 
-0.0158547 0.015808 0.124487 
0.0261068 0.0104911 -0.0163045 

-0.0164301 -0.00676302 0.0051202 
0.00535659 0.00104882 -0.00702596 
-0.000362123 -0.00114704 0.0121864 

-0.0213218 -0.00143852 -0.0072349 
0.0478755 0.0150792 -0.0228656 
-0.00477876 -0.00414484 -0.00505008 

-0.234542 -0.204325 -0.325817 
0.166387 0.2325 -0.145613 
0.0230984 0.0226241 0.380528 

-0.0374044 0.0483811 0.196651 
-0.042317 0.0182499 1.01672 
0.00655223 0.00594989 0.301806 

-0.0318098 0.0434387 0.0326858 
-0.0264104 0.0214937 -0.0261246 
-0.001674 0.000228389 0.00725232 

-0.0133661 -0.0163405 0.0814214 
-0.0104538 0.0156474 0.0984954 
-0.0365876 -0.00153622 0.0684828 

-0.209873 0.0362312 1.15752 
-0.0355063 0.124295 -1.17014 
-0.0170473 0.0074399 0.454849 

-0.00683186 -0.00677973 -0.000588511 
0.00159815 0.00129886 0.00251722 
-0.000400982 0.000558503 0.00890076 

-0.0282349 0.0274375 -0.00966296 
-0.0209325 0.00587746 0.00764052 
0.00241371 -0.00335486 0.0454685 

-0.235263 0.297578 -2.05877 
-0.142598 0.148252 0.727879 
-0.0148001 -0.0128044 0.201406 

-0.0119607 -0.00495046 -0.0113535 
0.00808047 0.00508512 0.00257635 
0.00325574 0.00200342 0.0373412 

-0.0408108 -0.256006 -0.0681717 
0.230829 0.0782577 0.15608 
-0.00193474 -0.00871732 -0.0479925 

-0.0132737 -0.00321166 0.0274773 
0.00501888 0.00574249 -0.0228576 
0.00490302 -0.00578262 0.0709926 

-0.0133212 -0.00134255 0.00564664 
-0.00196503 0.00876496 -0.00446129 
0.000130254 -0.000227523 -0.00463879 

-0.011321 -0.00463124 -0.286103 
-0.00228401 0.00496018 -0.205514 
0.000132911 -0.000883694 0.00924106 

-0.0413659 -0.0464797 -0.100717 
0.00827716 0.00846944 -0.310263 
0.00840455 0.000350376 0.058861 

-0.0322244 0.045375 0.171336 
-0.0412049 0.044299 0.202617 
0.0030946 -8.84346e-05 0.0341436 

-0.00245369 -0.105083 -0.206662 
0.00209724 -0.0568952 -0.0584221 
-0.0122461 0.489172 0.609999 

-0.00555643 -0.00219736 0.010934 
0.000474298 0.000608648 0.00219688 
8.91543e-05 0.000183358 0.0025898 

-0.0263823 -0.0281886 -0.041752 
0.0390439 0.0183675 0.00895114 
0.0457933 0.0356654 0.120397 

-0.0213947 0.0158865 -0.028413 
-0.00454524 0.0323034 -0.0605005 
0.0131472 0.0277076 0.0111711 

-0.00940605 0.00562455 -0.0528658 
0.00519717 0.0182771 -0.00873333 
-0.000138324 -0.00102974 -0.0290655 

-0.00490635 0.00208431 -0.0184724 
8.29474e-05 0.00110568 -0.00535506 
0.000116464 0.000124998 0.00476249 

-0.056496 0.0175179 0.0492411 
-0.0332379 0.0103223 -0.263415 
-0.00349865 -0.00374643 0.140118 

-0.0294514 -0.0131216 -0.0412156 
-4.2276e-05 0.0156634 -0.0451085 
0.00678938 -0.0202437 0.0428867 

-0.0453279 0.0107265 -0.0690235 
0.00422842 0.0309981 -0.0326841 
0.0400714 -0.0485034 0.206735 

-0.308259 -0.179871 -0.0849085 
0.0650328 0.201829 -0.0306815 
0.0283685 -0.00307726 0.398674 

-0.00207323 -0.187245 0.201962 
0.109443 0.0306598 -0.435732 
-0.0346873 0.015442 0.225108 

-0.0108884 0.00608908 -0.123459 
-0.00550454 0.00122085 0.00644325 
0.000474676 0.000125855 0.0185544 

-0.0134986 0.0119459 0.0427573 
-0.0236767 -0.000153909 0.109124 
-0.0277878 -0.0410192 0.433444 

-0.0239243 -0.202376 -0.0866916 
0.187795 0.116215 1.53278 
0.00774278 0.0254425 0.296171 

-0.0167207 -0.00182291 0.0269654 
-0.0136081 0.00190118 0.0117442 
0.00178336 3.08063e-06 0.00218392 

-0.0699658 -0.104602 0.183265 
0.0131728 0.0786464 0.0224666 
-0.016695 -0.0868298 0.326077 

-0.00748224 -0.00472097 -0.0198951 
0.00982675 0.00566062 -0.00151428 
-0.000898492 -0.000584621 -0.00164003 

-0.00817726 -0.00150032 -0.0137796 
-0.00135343 0.00367799 -0.0194228 
2.6693e-05 5.02671e-05 0.0226016 

-0.0167895 0.000153059 -0.00757009 
-0.00199294 0.00485762 -0.000395167 
0.000451693 -0.00109545 0.0154185 

0.067983 0.0628783 0.0685534 
-0.088561 -0.10294 0.0118162 
-0.0125911 -0.030174 0.0270587 

-0.0138795 -0.0119183 -0.0510258 
0.031146 0.0134085 -0.250408 
-0.00491658 -0.00158232 -0.000438118 

-0.339225 0.224446 0.439138 
-0.382923 0.225095 0.438024 
0.0506354 0.02402 0.121844 

-0.12983 0.0156582 -0.0150078 
-0.100713 0.0590878 -0.0504167 
-0.00977283 0.00171088 0.229829 

-0.45421 0.118776 0.517264 
-0.351228 0.277323 -0.353254 
0.0821055 -0.0541714 0.122705 

-0.00845776 -0.0523367 0.737379 
-0.0351501 0.0396651 -0.521246 
-0.00210133 -0.00440932 -0.00387649 

-0.00872233 0.0250907 -0.0143269 
-0.0207335 0.00354058 0.0715096 
0.00134494 -0.000978538 0.0232891 

-0.249503 0.0518109 0.332746 
-0.375532 0.285958 -1.31572 
-0.00205343 -0.0427113 0.83524 

0.0343498 -0.218841 0.0171895 
0.231259 0.0334851 -0.0184044 
-0.00227 0.000994636 -0.0411621 

0.0187087 0.0243752 -0.0256755 
-0.0321019 0.00257051 -0.00263682 
0.00414094 0.00190997 -0.0353868 

-0.114804 5.49347 74.4846 
-0.00245503 0.318592 -3.88204 
0.00649659 -0.112913 3.24339 

-0.00286694 0.00452989 -0.0133492 
-0.0127091 -0.0115253 -0.0482846 
0.0057157 -0.000676987 0.035511 

-0.138044 0.0134068 -0.13377 
0.216234 0.0970646 0.190721 
0.0467391 -0.0433963 0.0611225 

-0.0137605 0.00794862 -2.37296 
0.00165705 0.00818761 2.97571 
6.23036e-06 -0.0183287 1.17817 

-0.00973077 0.00651826 0.0654774 
0.00258394 0.00140503 -0.0795867 
0.0075217 -0.000578347 0.0444863 

-0.108437 0.0194231 0.105229 
0.0713427 0.0812816 0.0713057 
-0.00142995 -0.0496165 -0.0635695 

-0.0182641 -0.241473 -0.0488411 
0.121934 0.0925771 2.99039 
0.00535999 0.00429895 0.0131107 

-0.0134536 -0.00886649 0.0274221 
0.0126606 0.000992136 0.0159341 
-0.00123774 0.00116515 0.0130627 

-0.0144652 -0.00735284 -0.0409192 
0.00637337 -0.000199086 -0.0883776 
-0.000332333 0.000928004 0.0312159 

-0.0196401 0.0349766 0.0167366 
0.0104796 0.0361891 0.0408875 
-0.0217788 -0.14763 0.378763 

-0.0132004 0.000268803 0.0138608 
0.00298388 0.0035581 -0.0250774 
-0.000499061 -0.000108738 0.00388268 

0.0515332 -0.2566 -0.866471 
0.212292 0.000181364 0.246455 
-0.0532492 -0.0462632 0.031424 

-0.00596576 0.144455 -0.33163 
0.113141 0.0489542 0.225767 
0.0496466 -0.0147387 0.728919 

-0.00344611 -0.0117509 -0.00609032 
-0.000895185 7.57226e-05 -0.00694755 
-0.000301309 -0.000470843 0.0116575 

-0.0108667 -0.0115341 0.0511544 
0.00588596 0.00623773 0.257621 
0.00250598 0.00141269 0.0120848 

-0.15798 0.0680372 -1.02775 
-0.0390874 0.0885806 -2.97043 
0.00192706 -0.00207312 1.2631 

-0.00561442 -0.000415457 0.0144908 
-0.000901989 0.00228319 -0.0204039 
0.000202497 6.21006e-05 0.00112799 

0.00785807 -0.0101313 -0.0353844 
0.0140081 0.00326978 -0.0158688 
-0.000296524 -0.000541162 -0.00820989 

-0.00843462 -0.00293616 0.0373844 
-0.00510887 0.00489932 0.0164639 
0.000508192 0.000159882 0.0133241 

0.00237144 0.0215037 -0.01863 
-0.00612352 -0.00584976 -0.000202123 
-0.000994444 -0.000319083 0.0170865 

-0.136268 -0.182578 0.115426 
0.372584 0.176284 -0.0899589 
0.00273497 -0.041736 0.0808301 

-0.0139945 0.0185879 0.0121823 
-0.0197112 0.00614297 -0.0606427 
0.000641375 0.000295714 0.0246912 

-0.0133199 0.00576276 0.00140275 
0.00364351 -0.00747565 -0.0119254 
-0.00155311 0.00151074 0.0449778 

-0.0167373 0.00653392 -0.130823 
-0.00466333 -0.00352357 0.0743066 
-0.00232049 -0.000106658 0.0457518 

-0.0115509 0.0177216 0.838468 
-0.00557981 0.0114195 0.214051 
-0.000124857 0.000271275 0.185935 

-0.0153588 -0.00151025 -0.324355 
0.000682157 0.00847349 0.416009 
-0.000552997 -0.000282961 0.37433 

-0.00754188 -0.00212786 0.00129965 
-0.000599661 0.00159109 -0.000432618 
-0.000296832 6.1377e-05 0.00891898 

-0.014818 0.0187775 -0.292056 
-0.020085 0.00317155 0.331165 
0.0270068 0.0248967 -0.449605 

-0.111056 -0.0512446 -0.083561 
0.00258166 0.135282 -0.325343 
-0.000181511 -0.0339767 0.111122 

-0.0182181 -4.23144e-05 0.0177758 
0.00312715 0.00266941 -0.130998 
-0.000321262 -5.31922e-06 0.019784 

-0.0185225 0.0214781 -0.0566834 
-0.0275487 0.00380467 -0.000557735 
0.000833416 0.00048968 0.026684 

-0.0152418 0.0142124 -0.0100239 
-0.00604957 0.00515393 0.00364542 
9.16919e-05 0.00165177 0.0262098 

-0.0252229 0.0164373 0.0372694 
-0.00171872 0.00184317 0.00464051 
0.017812 0.0310013 0.177501 

0.00937101 -0.0151589 0.079387 
-0.00101647 -0.00664248 0.00587393 
0.00190996 0.00200066 -0.0147397 

-0.220065 0.0339272 0.113625 
-0.0421425 0.0896231 0.468059 
0.00602786 0.000114977 0.156818 

-0.00691316 -0.12663 0.117596 
0.0685012 -0.0717745 -0.169823 
-0.0388766 0.0120459 0.109966 

-0.00522906 -0.001997 0.00113536 
0.00487554 0.0018839 -0.000722105 
-0.000946903 0.00247991 0.0062294 

-0.200157 0.591807 0.82277 
0.185094 0.116723 -0.0619957 
-0.00799882 -0.0136686 -0.0426252 

-0.0202122 0.00672659 0.247803 
-0.000293684 0.00626524 -0.271672 
0.000193754 -4.51038e-05 -0.061891 

-0.00888427 -0.00587833 -0.018382 
-0.00510568 0.000207494 0.0178978 
-0.000906674 8.25719e-05 0.0205383 

-0.0275981 0.0209107 0.054021 
-0.0197569 0.00294144 0.00490435 
0.00172491 0.000188304 0.0172239 

-0.0368991 -0.0232905 -0.0551975 
0.0315334 0.0186348 0.162834 
-0.000992613 -0.00322963 0.00791629 

-0.0819207 -0.0627197 0.00325314 
0.127672 0.0343261 0.0407768 
0.00833619 -0.0523026 0.214779 

-0.0146512 -0.00343736 -0.268852 
0.00982261 0.0031464 0.166271 
0.000463576 0.000676057 0.0356407 

0.0642874 -0.372445 -0.0556086 
0.350738 0.0998046 0.0253726 
-0.00399284 -0.00312859 -0.0514715 

0.1338 -0.242476 0.046099 
0.172274 0.0512572 0.164123 
0.0807799 -0.0415287 0.256695 

-0.0137909 -0.00837955 0.471501 
0.0141286 0.00313975 0.555879 
-0.00128269 0.00076623 -0.0392191 

0.0337628 -0.186954 -0.0113953 
0.15691 0.0412984 0.0428624 
0.00227943 -0.00389708 -0.0300099 

-0.0287412 -0.0168999 -0.22214 
-0.013614 -0.0282984 -0.016287 
0.0238679 0.0171971 0.118411 

-0.0302536 0.0079669 -0.160868 
-0.0111144 0.0474016 -0.119111 
-0.00374862 0.00784837 0.0600482 

-1.07501 0.738493 -1.99202 
-0.672343 0.697995 -0.828791 
0.036908 -0.0197198 0.824236 

-0.0181269 0.00783563 -0.18126 
-0.000208253 0.019468 -0.362773 
0.00254423 -0.000742978 0.0118627 

-0.0319526 -0.13914 -0.0670026 
0.090979 0.00570161 0.0555722 
0.0407398 -0.0965041 0.316959 

0.00632526 -0.0518498 0.0812894 
0.098829 -0.0073984 0.00982663 
0.0031774 -4.22156e-05 -0.0184554 

-0.0138145 -0.0101054 0.0225154 
-0.00590201 -0.00586859 0.00984547 
-0.00233515 0.00365522 0.0386262 

-0.00143346 0.00737838 -0.0104971 
-0.0035605 -0.00185304 0.00243817 
0.00277336 -0.000114184 0.00943615 

-0.00885942 -0.00769986 0.00760244 
0.0030645 0.00078932 -0.00420548 
-0.00153699 0.000451684 0.0140144 

-0.0047771 -0.00110946 0.0199609 
-0.00878827 0.000491237 0.0106091 
-0.000356117 -0.00020843 0.00516102 

-0.00686755 0.0133477 0.0214911 
-0.0158187 0.00569482 -0.0369927 
0.00837211 -0.00489723 -0.0326434 

0.00794694 -0.0895322 -0.00367762 
0.0920383 -0.0045443 -0.00494169 
0.000260903 0.0003984 0.00718218 

-0.117999 -0.226421 -0.16781 
0.255535 0.223752 -0.683302 
0.0529738 0.0110772 0.0474485 

-0.0112705 -0.00162884 -0.081576 
-0.00394537 -0.00288623 -0.0270882 
0.000228978 -0.00079179 -0.00418322 

-0.00276216 -0.0320412 0.119882 
-0.0121301 0.0159557 -0.142889 
0.00225993 -0.000769589 0.0100447 

-0.0143987 -0.00302332 -0.0344902 
-0.00476144 0.00559544 -0.0070796 
0.000558249 -0.000403355 0.0117471 

-0.00537959 0.00513311 0.00758268 
-0.00300969 0.000535405 -0.00610301 
-0.000490731 -9.03692e-05 -0.00662495 

-0.00520611 0.0170788 0.0112025 
-0.00282267 0.0077258 -0.000313867 
0.00140398 0.000283415 0.00362161 

-0.0177988 -0.00864565 -0.445248 
0.0108687 -0.00230877 0.748592 
0.00226451 -0.00194833 0.274866 

-0.0117414 -0.0171693 -0.120537 
0.0172872 0.00420339 -0.178061 
-0.000599165 -3.35422e-05 0.0389021 

-0.0057054 0.00587181 0.037712 
-0.00102614 -0.000717446 0.0219911 
-0.000258952 0.000104442 0.0233919 

-0.00739746 0.00672936 -0.0118119 
0.0022643 -0.00171834 -0.003702 
-0.000254528 -6.11959e-05 0.00733647 

-0.0119791 0.0199887 0.0457482 
0.0161924 0.00280657 -0.079024 
0.00307234 -0.000183037 0.0498956 

-0.0240876 -0.00178473 -1.28221 
0.000215784 0.0216191 1.75826 
0.00430327 -0.000894258 0.37969 

-0.372806 0.218545 14.422 
0.0492513 0.395832 -6.07084 
-0.00681278 -0.00988084 -0.150097 

-0.247299 0.0746942 1.09716 
0.159855 -0.0448647 -0.0188696 
-0.12704 -0.0274542 0.317273 

-0.098148 0.0123539 19.0073 
0.092661 -0.015904 28.0001 
-0.00997078 0.00694994 -0.244311 

-0.0450968 -0.0647435 -0.270803 
-0.0268915 -0.00746364 -0.0681295 
0.00860274 0.00106294 0.15333 

-0.137605 -0.125101 0.544514 
-0.050597 0.253286 -0.813352 
-0.0113792 0.0225848 0.0503321 

0.033958 -0.769987 20.6045 
0.0413223 0.233631 -9.23722 
-3.56714e-05 0.00414223 -0.0278444 

-0.0543861 -0.0894955 0.531433 
0.0147665 0.0457053 0.461499 
-0.05599 0.0517485 0.33547 

0.0712963 0.0312026 0.0241528 
-0.028193 0.0505489 0.0836121 
-0.000638251 -0.00718693 -0.075637 

-0.000852693 0.0142283 0.015978 
-0.00614066 -0.0049299 -0.0178627 
-0.000641266 0.000660584 0.0010752 

-0.0121776 0.00573042 0.00143916 
-0.00755196 0.00334675 0.000988288 
-0.00148712 0.000576701 0.0201158 

-0.0173342 0.00429391 -0.0550589 
0.00805176 0.00917427 -0.0854311 
0.0163718 -0.011434 -0.0707315 

-0.0573013 -0.0261191 -0.184966 
0.0130432 0.0630966 0.409093 
0.00052914 0.0021157 0.0317798 

-0.0609252 -0.0052432 -0.0849958 
-0.0421824 0.012004 0.0609359 
0.00670019 -0.0655606 0.207377 

-0.00570496 -0.0106997 0.0113045 
0.00778376 0.00214164 -0.0210814 
-0.000216579 5.70511e-05 -0.00189264 

-0.0110306 0.00154576 -0.00547087 
-0.00280902 0.0125756 0.0677112 
0.0184526 0.00224138 -0.0504297 

-0.109642 -0.0781802 1.57282 
-0.0421558 0.0919178 -0.0029057 
-0.0108954 -0.00708438 0.0376831 

-0.0168972 0.0679554 -0.0134289 
-0.0272642 0.00806349 0.0976501 
-0.00184784 0.00944965 -0.0668542 

-0.00475298 -0.00797117 0.0226788 
0.000749648 -0.00141356 0.00824735 
-0.0014525 -0.000672229 0.0159227 

0.0295039 -0.0906484 0.044914 
0.0784964 0.00444047 -0.000800167 
-0.0092945 0.00167258 -0.0594407 

-0.0204138 0.00854163 -0.0305723 
-0.00260599 0.00543419 0.00419016 
-0.00609552 -0.0417086 0.120436 

-0.0326991 0.0646446 -0.1622 
-0.0316339 0.00417315 -0.392504 
-0.00280472 -0.00134417 0.427071 

-0.0180149 -0.00524894 -0.0126034 
0.00097368 0.0101203 -0.00348128 
0.00222331 0.000735154 0.00549954 

-0.0127423 0.0030883 0.0300464 
0.000227028 0.00669447 0.033074 
0.00294808 -0.00524016 0.037017 

-0.169104 0.0150665 0.200313 
-0.0594172 0.176353 -0.184025 
0.0394523 -0.0636319 1.38606 

-0.0152259 0.00187933 -0.0168564 
-0.0100415 0.00378375 -0.00791647 
-0.00414236 0.00937124 0.148171 

-0.0111726 0.0117643 0.645867 
-0.0111074 0.00216021 2.41357 
-0.000607027 0.0155363 0.83514 

-0.0162847 -0.00503312 -0.0028924 
0.00493857 0.00394033 -0.0114792 
0.00366707 9.98266e-05 0.0228779 

-0.0189252 -0.00215155 0.000303941 
-0.00449193 0.000923956 0.0321929 
-0.000209013 0.00128044 0.0390021 

-0.0111762 0.00016212 0.0157904 
0.000227853 0.00392329 -0.0157177 
-0.000955808 -4.52274e-05 0.00944904 

-0.0211693 -0.134969 -0.161608 
0.097263 -0.0285145 0.264161 
-0.00953015 -0.0235326 0.18503 

-0.00346104 -0.00806466 -0.0380603 
-0.00068444 -0.00109141 0.0533355 
0.00264696 -0.000730665 0.0272009 

-0.529683 0.35642 0.353783 
-0.0821179 0.448914 -0.0566648 
0.0188221 0.0964215 0.332947 

-0.107842 -0.403596 -0.16394 
0.180367 0.0899402 0.336622 
0.00470358 0.0321646 0.471351 

-0.00765622 0.000441424 0.00627602 
0.00215364 0.00136368 0.000884415 
0.000952061 4.49676e-05 0.010559 

-0.14819 -0.101496 -0.466431 
-0.0201814 0.0707626 0.25338 
0.0197037 -0.0249822 0.123189 

-0.0368959 -0.0526246 0.018467 
0.0191423 0.0590293 0.328928 
-0.00635336 0.000879964 0.0138229 

-0.102483 -0.00928554 0.00634352 
-0.110787 -0.0542847 -0.0239429 
0.000183445 0.00560275 0.0651815 

0.00221824 -0.0320562 0.048993 
0.0255423 -0.0106451 -0.122545 
-0.00153167 -0.0121711 0.00415601 

-0.019704 0.0559827 -0.0780329 
-0.0214714 0.0370968 0.0358711 
0.00502034 0.0186065 0.165204 

-0.0101638 0.0417644 0.133082 
0.00505333 0.0110861 0.0461851 
-0.00134454 0.00231045 0.0112471 

-0.00548667 -0.0039303 -0.00702866 
0.00541557 0.00144353 0.000399798 
-4.51871e-05 0.000603359 0.00104313 
