# vtk DataFile Version 3.0
Output file generated by Yade's KinematicLocalisationAnalyser
ASCII
DATASET UNSTRUCTURED_GRID

POINTS 13483 float
587.531 33.0182 0.508936
673.938 84.2145 -0.444898
117.875 6.00648 -0.538371
714.635 5.6069 0.568544
489.88 8.49183 -0.277227
309.969 35.7153 -0.475997
153.331 6.9401 0.46074
552.685 11.0753 0.113276
487.841 24.8606 0.156172
665.862 16.5921 -0.677867
206.686 8.93072 -0.0901865
252.754 6.34136 -0.252202
610.611 46.9672 -0.15895
599.369 25.4913 0.10703
135.035 18.1867 0.551926
217.37 34.6246 0.41217
214.029 13.0447 -0.298016
284.49 9.88682 0.402782
336.259 34.2757 -0.518715
512.278 8.43712 0.45351
404.23 37.241 0.100673
572.205 49.2536 0.398634
709.246 71.5948 0.50212
633.785 73.1684 -0.27927
451.211 16.3591 0.329195
236.651 44.9803 0.14515
482.944 29.3685 -0.492359
565.557 23.2489 -0.260199
43.7067 16.0003 -0.383212
651.02 50.6308 -0.325968
474.757 5.02999 0.368885
15.6568 23.9515 -0.332245
689.126 78.5878 0.259658
486.947 2.71747 0.605834
76.4907 45.0013 0.106549
510.903 34.9345 0.368742
517.454 17.9328 0.49444
337.716 23.6354 0.193561
521.648 26.4965 -0.310432
345.133 34.8681 -0.528718
236.88 14.5566 0.356165
427.217 36.8751 0.0901909
628.003 6.95539 -0.297455
189.067 6.29889 0.346234
53.9602 7.0795 -0.113964
66.9525 9.01442 -0.272053
641.936 9.17715 -0.612724
22.1514 12.1224 -0.28835
566.498 58.1061 -0.351511
635.561 29.637 0.406628
169.149 32.7904 -0.315418
668.548 73.1012 -0.119786
33.7741 28.5997 -0.125057
521.612 4.28666 0.564298
139.589 7.05478 -0.514755
574.232 36.3292 0.459622
496.075 30.1248 -0.187462
171.958 0.942328 -0.281579
31.3451 2.36267 0.334969
343.051 18.1332 0.283738
576.434 68.5 -0.1347
454.829 34.2777 -0.193121
393.088 1.02612 0.203845
651.499 8.5186 -0.69935
26.3755 44.1243 -0.235749
252.175 31.4507 -0.333936
666.453 10.1552 0.259637
599.972 71.3023 -0.343506
411.169 8.6855 -0.511016
553.586 4.40304 -0.453917
683.441 47.3855 0.376828
128.528 7.87651 0.264041
490.882 28.6051 0.13937
470.392 15.0617 -0.18977
290.56 16.9997 -0.344686
19.4497 14.1111 -0.287508
696.709 68.9201 0.357727
328.444 40.2201 -0.295958
631.806 23.111 0.492958
642.25 13.5005 0.295445
706.027 14.0285 0.204983
456.684 35.9487 0.176994
90.9817 39.0155 -0.266547
620.364 65.3406 -0.242674
611.849 58.2009 -0.125696
716.875 77.1369 -0.124669
697.136 2.14663 -0.55738
287.292 29.1454 0.487871
600.681 6.14828 0.139452
23.438 5.85014 -0.642565
130.866 39.38 -0.168066
503.033 15.7543 0.242867
697.078 61.6583 -0.450048
192.414 29.3672 0.24743
43.2677 34.838 0.306265
485.683 2.15636 -0.171106
232.422 8.84735 -0.385307
682.841 57.1183 -0.277648
703.864 59.6992 -0.234486
356.38 21.3177 -0.245932
160.603 27.5303 -0.467099
533.192 46.0622 0.393275
374.76 15.7901 -0.452412
408.043 30.2553 0.139604
372.794 4.54243 0.41797
535.199 11.1378 0.164512
717.178 15.2881 0.159147
78.7006 39.96 0.398335
331.179 4.89966 -0.233776
548.074 9.84286 -0.416692
355.784 44.7549 0.47664
24.3905 25.5006 -0.472982
29.1775 5.9819 -0.294128
551.35 40.7201 0.50577
498.439 27.1588 -0.154303
25.3707 37.7782 0.441777
91.9483 31.3871 -0.230147
322.206 16.553 -0.281832
581.39 19.3136 -0.177857
468.235 39.1803 0.32244
678.743 13.3382 -0.561614
673.223 8.01298 -0.154099
382.799 37.9743 0.105418
596.149 49.9926 -0.096771
235.633 16.8863 -0.561719
326.637 3.86696 0.466015
102.315 31.8405 0.421918
114.839 24.4349 -0.254095
528.839 44.5955 -0.0924282
303.666 19.1711 0.493709
650.498 58.1623 0.118227
604.777 70.4274 -0.106244
474.857 21.763 -0.35133
712.105 42.2688 0.268616
424.366 23.7859 0.24518
274.679 24.7101 -0.153118
638.734 37.329 -0.266955
276.545 28.9969 0.375923
560.411 15.2244 -0.191493
329.61 36.9975 0.1999
497.712 12.4739 0.638335
363.213 32.2511 0.10163
426.409 16.9669 0.119742
315.859 43.0691 -0.439349
188.716 30.4179 0.140004
679.859 82.3759 0.155859
715.154 14.9008 0.345309
6.06114 12.851 -0.470809
429.805 23.0131 -0.393535
37.2753 22.9297 0.0708594
373.616 31.8828 0.016147
391.929 25.2596 -0.291885
74.037 12.088 0.505038
50.8237 33.6448 -0.461218
224.02 13.5745 0.460387
580.847 62.0924 -0.380019
562.475 24.5001 -0.454921
73.9909 21.093 0.506884
637.769 75.6894 0.403717
684.417 11.6398 -0.75434
628.191 51.9176 -0.574202
646.261 1.75575 0.626468
538.894 34.6423 -0.495004
572.336 50.5445 -0.637013
506.254 19.1417 -0.449289
712.223 3.79857 -0.461197
222.135 24.8638 0.110324
126.771 36.0776 0.16407
245.757 6.7163 -0.414277
93.3233 4.48031 0.279903
63.3437 10.3153 0.181175
274.436 36.278 0.317522
15.8114 25.8384 -0.34973
546.718 21.3831 0.407085
571.487 53.8731 0.200774
459.901 21.4497 -0.392298
701.73 82.9607 0.361436
404.386 8.7446 -0.133713
433.543 37.5902 -0.418207
528.523 3.47781 -0.203263
21.3982 25.005 0.385395
563.558 5.10958 0.544937
537.899 4.7957 -0.282274
205.059 11.4484 0.510026
422.823 16.4227 -0.258287
310.507 6.56578 0.335889
386.12 19.0971 -0.338796
669.289 54.5902 0.172577
191.189 26.2586 0.435855
692.828 11.9594 0.307961
669.865 50.6632 0.444214
381.334 10.4076 0.198927
665.703 0.888916 -0.461877
589.499 32.065 0.623857
678.525 28.9419 -0.439107
427.942 44.8357 0.267353
492.291 13.6218 0.346113
461.774 45.7861 -0.220434
443.453 9.21559 -0.202478
631.718 50.5449 0.25502
627.504 47.7399 0.37915
191.338 39.6079 -0.332772
704.108 14.5361 -0.297938
572.473 51.9029 0.343111
10.9014 18.1825 0.170524
406.102 25.7235 0.406584
186.326 23.6263 0.409835
92.6357 39.9155 0.203093
710.744 56.0478 0.446565
626.534 58.7738 0.243632
318.691 26.2632 -0.340889
525.902 10.5841 0.307598
81.6017 45.26 0.173399
246.747 26.5362 -0.45454
544.571 29.422 0.376678
484.676 20.3145 0.382242
262.211 0.87852 -0.338978
542.119 50.8039 -0.363642
525.335 46.2777 -0.453587
479.781 34.995 0.416694
495.641 1.82237 -0.622658
652.618 22.2671 -0.350781
178.558 12.5308 -0.220621
497.646 40.7978 0.485193
552.465 48.1085 0.1159
72.2255 0.976569 0.277062
251.012 4.81373 0.180899
713.747 18.8335 0.212614
706.114 17.0204 -0.541293
717.534 23.5932 -0.695303
303.091 8.75963 -0.2358
681.142 37.3418 0.380837
405.397 43.071 -0.387874
447.385 0.796714 -0.433796
617.008 52.1106 0.438855
26.14 31.4164 0.337769
330.307 43.0488 0.586346
251.851 2.94269 0.363703
693.396 75.7418 -0.22241
655.241 71.9442 0.223976
286.96 11.3193 0.253041
631.538 39.2687 -0.129681
548.823 2.61417 0.303055
535.736 6.2342 0.601384
96.287 18.6616 -0.594687
302.946 1.12452 -0.230814
342.314 2.25025 -0.3711
13.4268 7.53772 -0.470226
4.32041 32.9165 0.298609
160.874 18.9969 -0.396934
67.716 42.182 -0.218392
66.074 29.2577 -0.330723
422.601 14.5443 -0.472409
366.258 35.8985 -0.49057
665.735 75.2493 -0.121866
19.0464 4.11022 0.278636
69.9813 7.04031 0.129697
590.493 63.5949 -0.130818
294.309 0.942452 0.368062
364.282 16.5602 -0.105415
234.897 4.65487 -0.374277
621.153 33.3408 0.217586
450.471 8.35671 0.448799
684.914 37.6232 -0.397722
596.343 53.459 0.328404
629.985 22.3481 0.132187
419.647 28.0638 0.555427
101.607 46.0832 0.306231
531.155 49.6552 0.0706549
679.502 22.3115 0.241748
237.562 31.2344 -0.284761
31.1621 17.6284 -0.210314
335.656 13.8358 0.508738
106.945 41.5211 -0.464183
267.518 42.4575 -0.233697
425.083 1.67246 -0.35804
693.875 65.1663 0.380125
640.704 0.765944 -0.711014
331.668 3.38968 0.590599
300.351 26.9588 0.14952
460.941 42.4815 0.217946
81.0435 8.29025 0.482186
197.295 45.9033 0.377652
676.503 66.8919 -0.354753
492.563 42.6134 -0.101538
199.779 41.9979 -0.30043
160.437 43.2732 0.394471
716.521 71.3455 -0.530854
715.761 16.2004 -0.67933
592.273 3.12342 -0.67484
189.767 25.2025 -0.102057
540.476 34.2452 0.204554
542.294 34.1104 -0.322625
408.904 5.71896 -0.141668
480.976 0.942529 0.382333
664.006 76.049 -0.464396
84.7487 31.5641 -0.262623
625.442 29.8014 -0.414128
274.182 15.6661 -0.38274
9.04847 2.38286 0.334942
125.258 37.9771 0.194842
66.5776 23.1955 0.556319
643.657 63.6132 0.305831
691.47 91.2232 -0.159006
184.964 28.9628 0.196491
710.409 14.0462 0.597607
44.61 36.9504 -0.263653
90.7715 29.7284 -0.187036
607.009 28.0848 0.526348
413.271 18.7817 -0.563238
514.315 18.1096 0.163079
238.034 29.2204 -0.194566
605.768 6.73889 -0.62211
718.564 16.8003 0.428927
29.0176 32.3632 -0.286356
270.211 7.80822 0.200779
221.842 15.3358 0.247589
1.05629 37.5079 0.146713
225.065 14.7961 0.403173
211.492 11.2314 -0.119477
213.984 26.6886 -0.284282
133.257 28.8713 -0.162097
540.684 17.2599 -0.292346
166.681 14.3452 -0.3594
687.541 77.4516 -0.229825
173.917 3.81204 0.519796
46.8439 38.5927 0.435955
674.17 62.2559 -0.4957
281.426 32.3015 -0.404788
639.025 27.0284 0.513065
703.701 66.3961 -0.494485
301.183 9.38923 0.123602
671.017 42.6741 0.376567
328.638 2.47238 -0.447485
416.637 24.931 -0.378042
634.19 19.4069 -0.523857
105.183 11.8656 -0.48514
482.637 4.21359 -0.393727
687.755 38.2029 -0.200455
87.8147 7.69467 -0.243391
281.97 14.9122 0.202519
423.407 11.8238 -0.215244
712.832 2.40507 0.565357
398.008 1.99615 -0.539215
176.492 39.2255 -0.346213
682.35 20.179 -0.298603
128.479 37.289 0.192349
262.884 31.6966 -0.411411
400.699 21.9965 0.218555
562.541 17.4894 0.415224
387.107 9.88575 -0.517303
456.247 28.5485 -0.474631
675.251 84.0233 0.359645
46.8042 11.5294 -0.156447
299.819 39.0629 -0.267054
379.578 28.1442 0.38669
410.144 21.0074 0.288232
519.847 52.4783 -0.356873
690.906 60.2903 -0.196579
632.684 44.5054 -0.387149
225.932 34.7022 -0.39326
13.3326 33.436 0.194469
626.314 49.2876 -0.161821
507.4 46.0676 0.479098
229.24 39.974 -0.131826
639.327 50.7305 0.114318
150.58 9.30066 0.244767
366.725 21.795 0.326689
462.633 43.7076 -0.106269
414.274 20.003 0.243856
670.114 86.1922 -0.291052
426.451 3.91541 0.546141
49.1797 25.6792 -0.326525
469.176 32.98 0.351678
434.578 44.0538 0.3612
690.413 71.5348 -0.22061
668.591 41.2201 0.285521
535.554 20.1207 -0.241196
680.572 74.8535 0.444943
293.865 2.26556 -0.457435
378.022 30.5113 0.502621
28.5519 39.5422 -0.305916
673.362 44.132 0.147878
593.416 21.7629 -0.629001
463.107 0.772074 -0.472734
125.751 4.78047 -0.339773
426.571 41.3735 0.125028
11.4456 0.87905 -0.322516
710.252 6.99738 -0.167479
370.328 39.7986 -0.472329
597.716 7.91069 -0.351374
[...]
POINT_DATA 13483
TENSORS Strain_matrix float
-0.444448 0.0849127 -1.92534 
0.87106 -0.00373612 0.493129 
2.3137e-18 -7.33053e-19 1 

-0.528207 0.124637 -76.0392 
0.104008 -0.104637 22.4823 
4.42059e-18 -1.45663e-17 1 

-0.146399 0.0167399 1.02977 
0.0417855 -0.00843429 2.62221 
-2.96767e-18 1.07915e-17 1 

-1.06511 -0.00928212 0.232382 
0.0367035 0.0224014 0.34578 
3.31101e-18 -3.76251e-19 1 

-0.42095 -0.079156 0.221598 
-0.0536442 0.0349879 -0.0826716 
3.13953e-18 1.2714e-17 1 

-0.123746 -0.0487968 -0.269969 
0.052324 -0.0113155 -0.665846 
4.62422e-18 -3.82973e-18 1 

-0.135045 -0.0252215 0.248676 
-0.00473473 -0.0686824 -0.256806 
3.07665e-18 8.58533e-18 1 

-0.407075 0.16594 -0.340957 
0.0304929 0.0438826 -0.282376 
5.09337e-18 -7.82421e-18 1 

-0.207408 0.0945324 -0.664083 
0.0335325 0.0782489 0.214717 
-1.04017e-18 3.14863e-18 1 

-0.949607 -0.373164 2.39951 
0.271966 0.279918 -5.21169 
-1.19078e-17 5.36448e-18 1 

-0.103378 -0.00484731 -0.15149 
0.0181923 -0.0705897 0.0780954 
-1.53021e-17 8.21778e-18 1 

-0.122884 -0.0574665 0.206703 
-0.080142 -0.0893941 0.0630222 
9.48184e-18 8.33047e-18 1 

-0.105967 0.649373 -0.959009 
-0.4074 0.304124 0.250908 
-7.85176e-18 4.66713e-19 1 

-0.154739 -0.566244 0.0748713 
0.565663 0.18059 0.694811 
8.61368e-18 7.18574e-18 1 

-0.233618 0.0405165 -1.17414 
-0.0180349 0.0638473 -0.157647 
-7.21472e-18 -5.68742e-18 1 

-0.131401 -0.106574 0.622712 
-0.0352249 0.00683502 0.504601 
6.88834e-18 3.85547e-18 1 

-0.0979892 -0.0132576 0.0849563 
-0.0156592 -0.0995482 -0.0744505 
8.88278e-18 -3.50307e-18 1 

-0.19303 -0.0291354 0.00887906 
0.0600358 -0.068583 -0.0156464 
1.57179e-18 1.13724e-17 1 

-0.236613 -0.0314628 1.98412 
0.0599997 -0.0119956 2.07356 
6.21846e-18 4.9162e-18 1 

-0.144394 -0.0343777 0.283533 
-0.0760922 -0.0915802 0.996543 
8.25791e-18 -6.49301e-18 1 

-0.26462 0.0290028 -0.173882 
-0.00342121 0.0551079 -0.409413 
7.42217e-18 5.75487e-18 1 

-0.976539 -0.912444 -15.4617 
0.46148 0.700644 14.796 
-5.66601e-18 7.05046e-18 1 

-1.49139 -0.996766 9.80764 
0.137415 0.584848 -6.18507 
-9.68648e-18 5.51888e-18 1 

-0.0653152 0.169259 0.192501 
0.0576899 -0.0220789 0.671111 
4.67966e-18 3.42414e-18 1 

-0.16847 0.0685654 -0.293885 
-0.0368108 -0.0401354 0.201699 
-2.17129e-18 2.14769e-18 1 

-0.223629 0.0218871 0.0538508 
-0.0134545 0.0669944 -0.0843569 
-2.89554e-18 2.6639e-18 1 

-0.135795 -0.0820418 1.53263 
0.0633351 -0.00606906 -0.485229 
4.63265e-18 -2.93471e-18 1 

-0.197451 -0.0335499 -0.345763 
-0.0969874 0.0212021 0.577478 
8.77718e-18 -1.10192e-17 1 

-0.139042 0.0768395 0.488384 
0.0526757 -0.0888902 -0.838231 
1.17738e-17 1.451e-18 1 

-0.977502 -0.222974 -1.22436 
-1.1039 0.42725 -0.597789 
-1.28152e-17 3.26206e-18 1 

-0.118828 0.0240643 -0.175174 
-0.118938 -0.124819 0.624434 
3.62666e-18 -3.934e-18 1 

-0.18758 0.0455463 -0.216468 
-0.138292 0.0322658 0.466763 
-2.51288e-18 1.2128e-17 1 

-0.031717 -0.265162 -2.12551 
-0.158673 0.173079 1.43981 
1.11609e-18 9.23331e-18 1 

-0.378964 0.0391081 -3.92536 
-0.0419505 0.152288 -2.10415 
-7.63162e-18 -5.41249e-20 1 

-0.0784547 -0.0500936 -0.172931 
3.05865e-05 -0.110633 -0.366525 
7.11256e-18 1.14895e-18 1 

-0.607273 0.0981897 -0.783158 
-0.173057 0.239113 -0.808973 
-1.81947e-18 -3.31787e-18 1 

-0.212307 0.0341894 0.666435 
-0.0661716 0.0124453 -0.0453468 
-4.01908e-18 1.15204e-17 1 

-0.630881 0.154023 -0.362092 
-0.166687 0.270131 -0.233538 
-9.59312e-18 -2.6947e-19 1 

-0.0941213 0.0235936 0.194126 
0.0236451 -0.0033783 0.0471467 
9.17736e-18 -2.31227e-18 1 

-0.195701 0.0242808 -0.647639 
-0.0620515 0.0234943 -0.876995 
-2.54975e-18 6.04215e-19 1 

-0.128176 -0.0418068 -0.090448 
0.0504006 -0.108673 -0.256171 
-1.27561e-18 -8.29143e-19 1 

-0.0607717 -0.104609 0.344586 
-0.0135844 -0.0897632 -0.194413 
3.31119e-18 -5.81732e-18 1 

-0.650791 -0.00959697 0.481371 
-0.337324 0.126229 -0.0975753 
-1.35705e-18 -1.10826e-17 1 

-0.134411 0.00809834 0.315622 
-0.0448192 -0.057756 1.01226 
4.18996e-18 2.72784e-18 1 

-0.0874561 0.0527639 -0.00690393 
-0.0595357 -0.0845153 0.133774 
-6.47535e-18 3.75642e-18 1 

-0.0799783 -0.00941878 0.0923772 
-0.0174834 -0.0496967 -0.0951312 
2.94329e-18 3.98643e-18 1 

-0.358439 -0.0241798 0.554688 
-0.026416 -0.05441 0.656146 
1.6681e-17 1.96609e-18 1 

-0.0815777 -0.0428619 -0.01409 
0.0318744 -0.0698997 0.0399666 
-4.67385e-18 -5.95359e-18 1 

0.225906 -0.816039 0.250532 
0.786197 0.499996 -0.497401 
2.52441e-17 6.31103e-18 1 

-0.811843 0.995148 -0.156181 
-0.684689 0.684155 0.0486523 
2.0006e-17 1.35508e-18 1 

-0.1112 -0.0253447 0.183965 
-0.0264105 -0.00951649 -0.116803 
-7.02624e-18 2.57892e-18 1 

-0.135925 -0.163925 0.342621 
0.153949 -0.0496305 0.589878 
7.71624e-18 1.46727e-18 1 

-0.11735 0.0184845 -0.0961356 
-0.00841746 -0.0149408 0.10807 
-1.30484e-17 1.03664e-17 1 

-0.419195 -0.00564177 -0.439826 
0.00707596 -0.0144398 -1.29409 
-1.01604e-17 1.1285e-17 1 

-0.114815 0.0648054 0.174107 
-0.00102825 -0.121171 0.700089 
9.9426e-18 1.19482e-17 1 

-0.234615 0.0933516 -2.35376 
-0.135822 0.098483 0.45603 
4.76272e-18 -1.09031e-17 1 

-0.284837 0.117669 -0.241079 
-0.067199 0.0560332 0.0955801 
3.17968e-18 6.29447e-18 1 

-0.119575 0.1431 -0.10627 
-0.00223972 -0.0347361 -0.0671511 
2.30449e-18 1.05999e-17 1 

-0.0599117 0.00986276 0.259448 
-0.0704296 -0.101292 0.533923 
1.00151e-18 7.2382e-18 1 

-0.113297 -0.136081 -0.173304 
0.0323103 -0.0275983 0.0909895 
-1.14189e-17 -3.88242e-18 1 

-0.193876 -2.39617 -8.97853 
0.0140687 0.971827 0.543831 
-2.41579e-18 9.60751e-18 1 

-0.259597 -0.239304 1.1071 
0.0548965 0.144985 -0.508929 
1.08002e-18 5.92758e-18 1 

-0.12504 -0.0786418 -0.261123 
-0.015527 -0.0544209 -0.139135 
-7.10914e-18 3.47991e-18 1 

-0.691133 -0.227789 -4.3715 
0.133658 0.268122 -0.189763 
-7.84042e-18 -5.8451e-18 1 

-0.304915 0.110797 -0.604248 
-0.0976262 0.101764 -0.0788995 
5.43566e-18 4.86658e-18 1 

-0.285007 0.11719 0.180049 
-0.0814138 0.0569032 0.308837 
5.27305e-18 3.29566e-19 1 

-0.566635 -0.406394 0.154007 
-0.102319 0.0058345 -0.440446 
3.14522e-18 1.45466e-18 1 

-3.08173 -10.4039 -13.4004 
0.252069 1.02509 -0.318835 
-4.67283e-18 -1.98634e-17 1 

-0.154633 0.00117008 0.000288898 
-0.075816 -0.0599582 -0.082231 
-1.18462e-17 9.58045e-18 1 

-0.424299 0.0431917 0.440962 
-0.0133599 0.048752 -0.514188 
2.2658e-18 -5.75442e-18 1 

-0.0553462 -0.324544 -0.131195 
0.337814 -0.00825896 -0.0597003 
-1.06928e-17 7.69266e-18 1 

-0.125871 0.0417536 -0.155142 
-0.0591113 -0.0315901 -0.0361986 
1.13473e-17 2.97453e-18 1 

-0.085446 0.148128 -0.429228 
0.265617 -0.0573434 -0.0752551 
-2.02206e-17 9.57816e-18 1 

-0.104449 -0.0990016 0.403401 
0.0461356 -0.081101 -0.545815 
-7.35103e-18 -6.27402e-18 1 

-0.113799 0.000361181 -0.459336 
-0.0192672 -0.0423201 -0.151396 
-6.29856e-18 -1.42085e-17 1 

-0.117675 -0.0544926 0.0125059 
0.0042739 -0.0637422 -0.0364209 
-1.15075e-17 7.0565e-18 1 

-0.314663 -0.391853 10.3385 
0.209973 0.27091 -7.66915 
1.74711e-18 -4.96455e-18 1 

-0.134406 -0.00322226 -0.730046 
0.0221058 -0.0198644 0.152065 
4.09815e-18 3.96186e-18 1 

-0.852067 0.364482 -0.930362 
-0.11693 0.145251 -1.70518 
-1.0709e-17 -2.62504e-18 1 

-0.123027 -0.0155577 0.104839 
0.0328732 -0.175394 0.290697 
2.8287e-18 4.52592e-18 1 

-1.52174 0.521656 -0.64841 
0.12759 0.409339 0.537094 
-8.00576e-18 -1.47435e-17 1 

-0.293366 -0.341305 0.638608 
0.0353251 0.21816 -0.779434 
3.89467e-18 -1.23991e-17 1 

-0.0382204 -0.0118816 0.0497579 
-0.0169825 0.00589401 -0.104439 
-6.59379e-19 6.59379e-19 1 

-5.11889 -13.501 -19.8438 
1.33413 4.26696 7.53843 
1.14763e-18 2.28319e-17 1 

-0.118354 0.328273 0.589865 
-0.564474 0.115854 0.43799 
9.67768e-18 -6.51762e-18 1 

-0.610387 -0.191725 -0.999437 
-0.189932 0.217598 0.254483 
1.66257e-17 8.12249e-18 1 

-2.10024 -0.318743 0.423475 
-0.0713655 0.798067 1.90615 
-1.02885e-17 4.10675e-17 1 

-0.121511 0.0694436 0.149999 
0.0146214 -0.101288 -0.586855 
-8.8754e-18 -1.13459e-17 1 

-0.464713 0.227069 0.117556 
0.0481169 -0.00994072 0.281302 
-1.13823e-17 1.61596e-17 1 

-0.13907 0.000497779 -3.09473 
0.00290109 -0.0749721 -0.464283 
1.00593e-18 2.3467e-18 1 

-0.11347 -0.108057 -0.0219115 
-0.00932305 -0.0724658 0.14363 
-1.79962e-18 4.63794e-18 1 

-0.375446 0.230072 -0.481112 
-0.0725898 0.0599192 0.070866 
1.69365e-17 0 1 

0.989808 -5.44291 54.9065 
0.282606 1.43092 3.31116 
4.02781e-18 6.08493e-18 1 

-0.196908 -0.0183182 0.0689688 
-0.0402472 -0.0157913 0.084773 
-4.39346e-18 -5.12571e-18 1 

-0.107988 0.0411247 0.425534 
0.0117906 0.00173755 0.00477832 
-1.26867e-17 3.23333e-18 1 

-0.342827 -0.294349 0.494055 
0.0597808 0.240488 0.527301 
-9.20682e-19 -8.96453e-19 1 

-0.143336 0.0327495 0.103015 
-0.0521816 -0.0685079 -0.155301 
8.94253e-18 -8.38362e-19 1 

-0.318719 -0.221199 -0.329404 
0.33185 0.14775 -0.0199311 
-2.75943e-17 -1.75349e-17 1 

-4.92321 -3.24996 4.77792 
0.377841 1.08841 -1.49944 
-3.08946e-18 -1.39329e-18 1 

-0.0972747 0.0113379 -0.00439641 
-0.0572054 0.0130143 -0.352856 
-4.2854e-19 -1.48041e-17 1 

-0.102696 -0.00483041 -2.92642 
-0.0385751 0.00378836 0.0114107 
-1.24122e-17 -4.38694e-18 1 

-0.149626 -0.288275 1.10147 
0.182811 0.080482 1.23758 
-1.09492e-17 1.37813e-17 1 

-0.152974 0.017544 -0.673189 
-0.040667 -0.0223536 -0.0024376 
-6.88488e-18 1.35289e-17 1 

-0.179074 -0.160495 -0.114164 
0.0934708 -0.0228348 -0.0180023 
9.16643e-18 7.39747e-18 1 

-0.149671 0.0228132 0.340241 
-0.0570816 -0.0721101 0.805996 
2.35446e-18 -8.6934e-18 1 

-0.551063 0.0184056 0.031922 
0.183292 0.170238 -0.179316 
-9.13397e-18 3.88141e-18 1 

-1.21551 -0.273913 0.661041 
0.412982 0.349524 -0.637907 
-1.4375e-17 2.32341e-17 1 

-0.141682 -3.48661e-05 -0.438542 
-0.0240575 -0.000221523 -0.620761 
1.14041e-17 -7.35747e-19 1 

-0.157067 0.0604425 0.0941054 
0.0763651 -0.137268 -0.0989833 
-1.7628e-18 9.12681e-18 1 

-0.503951 0.564664 -0.205427 
-0.137347 0.0487385 -0.167668 
-4.40388e-18 2.20194e-18 1 

-0.184148 0.080899 4.88529 
-0.0516515 0.031094 4.4225 
7.23722e-18 1.24297e-17 1 

-0.170049 0.0236431 -0.876286 
-0.0537404 -0.0225602 0.0227371 
-2.96879e-18 4.34129e-18 1 

-0.0982833 0.0594699 -0.0376926 
-0.0829443 -0.0565554 -0.157619 
5.39904e-18 1.96569e-17 1 

-0.512807 -0.115829 0.469003 
-0.115909 0.234172 -1.8295 
2.42716e-18 1.18078e-19 1 

-0.386661 0.320037 -0.470521 
-0.192535 0.254428 -0.0534592 
-1.71887e-18 6.70886e-18 1 

-0.137979 0.0221143 -0.65306 
-0.0307916 0.0252627 0.00753647 
-3.43326e-18 -3.47443e-18 1 

-0.120687 -0.0193722 0.141767 
0.0432052 -0.0110493 -0.18231 
2.07757e-18 8.00476e-18 1 

-0.130351 0.0461003 -0.116983 
0.0215806 -0.0448481 0.00281389 
6.11837e-18 1.37491e-17 1 

-0.673323 0.207828 2.00147 
-0.249261 0.36856 -0.950543 
1.1819e-17 -6.98565e-18 1 

-0.143484 -0.0503583 0.135451 
0.0700413 0.000388548 0.178107 
-4.2332e-18 4.27849e-18 1 

-0.935452 -0.44016 14.7704 
0.81721 -0.056456 0.937806 
-2.07638e-17 6.08463e-18 1 

-1.16873 -0.291349 0.192313 
-0.0639856 0.382424 0.417492 
-6.6803e-18 -1.21582e-17 1 

-0.10473 0.0378874 0.0326613 
-0.0567732 0.017173 0.0411674 
3.3089e-18 6.84099e-19 1 

-1.04559 -3.06794 -5.88505 
0.098669 0.507799 0.856405 
1.35623e-17 2.75657e-19 1 

-0.135474 -0.000266525 -0.451583 
-0.00357644 -0.0313458 -2.99064 
-4.08879e-18 5.46498e-18 1 

-0.126036 -0.0392123 -0.0235659 
-0.0598812 -0.140371 -0.112447 
1.19711e-17 1.49334e-17 1 

-0.173038 0.0135006 -0.0351366 
-0.0665646 -0.0176467 0.00410765 
4.77872e-18 -1.1316e-17 1 

-0.245631 0.141545 -0.185902 
0.0276849 0.0959054 -0.0678621 
1.62306e-17 2.29021e-18 1 

-0.250895 -0.384233 -1.03935 
0.398859 0.17969 0.386952 
2.0511e-17 5.86354e-18 1 

-0.125876 0.0139004 -2.18715 
0.015327 -0.0433059 -1.21133 
2.02537e-18 2.06175e-18 1 

-0.467122 0.0500329 0.104453 
-0.514998 0.248817 -0.00511821 
1.29054e-17 -7.41964e-18 1 

-2.24376 -9.5765 -21.2508 
0.490722 1.09092 2.3544 
8.72382e-18 -1.40617e-17 1 

-0.130537 -0.0448405 -0.518767 
0.142709 0.059239 1.39796 
3.20847e-18 2.40635e-18 1 

-3.03138 0.230918 -4.63743 
-1.39907 0.7461 -2.72097 
-8.41899e-18 -9.14948e-18 1 

-0.316683 0.176491 0.769332 
-0.104086 0.220057 0.141648 
-1.08552e-18 -8.90202e-18 1 

-0.163537 0.0475035 0.141284 
-0.00340224 0.107293 0.403958 
6.03729e-18 8.86142e-18 1 

-0.0852602 0.419315 0.474066 
-0.384869 0.0236494 0.0961774 
6.31123e-18 -5.48802e-18 1 

-0.109655 -0.0303756 -0.589136 
0.0619185 -0.0207135 -1.8768 
5.65115e-18 -7.47142e-18 1 

-0.459434 -0.34024 0.0917304 
0.542676 0.249111 0.162447 
-6.18581e-18 -1.18316e-17 1 

-0.0816927 -0.114498 0.0346044 
0.14439 -0.0769176 -0.0165268 
-3.36161e-18 -2.16103e-18 1 

-0.324757 0.0135404 2.32942 
-0.0202329 0.0607926 -0.608153 
-1.87054e-17 -1.95908e-18 1 

-0.108848 -0.0234458 0.0151061 
0.0637017 -0.00966784 0.0559687 
5.94155e-18 -9.5306e-18 1 

-0.188261 -0.169842 0.0631349 
0.134408 -0.00388931 -0.119938 
2.73513e-18 -1.62004e-17 1 

-0.115749 -0.08045 0.0783189 
0.0674026 -0.00216653 0.0461932 
-2.42875e-18 4.08246e-20 1 

-0.0721326 0.00680906 -0.168805 
-0.0212446 -0.022487 0.0149349 
-6.10532e-18 -1.37002e-17 1 

-0.0914114 -0.0519377 -1.07724 
0.0377876 0.0352867 -0.296924 
-6.9342e-18 -1.39356e-17 1 

-0.707102 -0.651573 1.06789 
0.297279 0.298379 -1.0027 
9.55703e-18 -1.50901e-17 1 

-0.122141 -0.00585587 1.32416 
0.00729888 -0.0994732 -0.793195 
-1.36688e-17 -2.07286e-18 1 

-0.195738 0.0296358 -1.37978 
-0.0432775 0.0808848 -0.525246 
-2.80606e-18 -5.76996e-18 1 

-0.0726456 0.0840258 0.155561 
0.0127726 0.00456987 0.304036 
-5.22355e-18 1.1708e-18 1 

-0.205812 -0.0162074 0.258322 
0.0812205 0.0515249 0.0281778 
-1.84791e-17 -6.41423e-18 1 

-0.227413 -0.0227705 -0.253526 
-0.0259274 -0.00282652 0.174445 
-9.24459e-18 -1.89844e-18 1 

-0.138465 -0.0577899 0.633364 
0.0238701 -0.047116 -0.194185 
-6.21551e-18 -2.2225e-18 1 

-0.146302 -0.00396276 0.34583 
-0.000569802 0.00317429 -0.114521 
-1.82483e-18 -8.51958e-18 1 

-0.158224 0.025718 0.0990375 
-0.0106066 -0.0535666 0.00609404 
5.18618e-18 -1.40768e-17 1 

-0.312625 -0.0690512 -1.21767 
0.248247 0.282692 -0.360415 
9.12127e-18 4.23946e-18 1 

-0.35284 0.0765254 1.06553 
-0.157792 0.220319 -0.395652 
-5.83622e-18 -9.23824e-18 1 

-0.133183 -0.0191861 0.977029 
-0.0139997 -0.00316254 -0.00551912 
-1.89789e-18 1.73286e-19 1 

-1.01688 -5.79306 -81.9525 
-0.103203 0.672124 10.8302 
4.37569e-19 1.41215e-18 1 

-2.46179 2.22991 -34.6316 
0.154217 0.627911 40.334 
-1.85844e-18 -4.23311e-19 1 

-0.262435 0.171659 3.87971 
-0.272822 0.127225 -0.0232306 
1.10881e-18 1.17137e-17 1 

-0.30821 0.0696472 0.850136 
-0.133872 -0.234213 0.373712 
-5.82922e-18 -7.80326e-18 1 

-0.877409 0.20229 1.86605 
-0.105618 0.338492 3.11755 
-4.39969e-18 -8.27292e-19 1 

-0.250943 -2.17956 155.461 
0.0843673 0.476628 14.0157 
2.24171e-18 -8.7499e-18 1 

-0.371898 -0.0941403 0.0870383 
-0.21397 -0.0552999 -0.0113694 
1.40849e-17 -2.19286e-18 1 

-1.14573 -0.352269 1.56292 
0.251265 0.414191 -0.300101 
9.41192e-18 7.01906e-18 1 

-0.0516174 0.0574761 -0.0684602 
0.0104111 -0.0828704 -0.0440845 
-1.08783e-17 -5.43915e-19 1 

-0.112554 -0.0361693 -0.210791 
-0.025963 -0.014152 0.066624 
4.02628e-18 3.58339e-18 1 

-0.0942233 -0.0457643 -0.123055 
0.0172172 -0.0927407 0.213526 
5.12049e-18 -1.37883e-18 1 

-0.189242 -0.0409542 -0.0406947 
0.0123725 -0.00829841 -0.235353 
7.93132e-18 6.81524e-18 1 

-0.130804 0.0268721 0.0740676 
-0.0449546 -0.0282079 -0.0216243 
1.02911e-17 1.00434e-18 1 

-0.0913947 0.00871029 -0.189493 
0.0240841 -0.0250212 -0.188002 
1.36542e-17 -1.11268e-17 1 

-0.263689 -0.0782095 -0.847997 
-0.144741 0.169384 -0.610709 
-1.97483e-18 2.40929e-17 1 

-0.803184 -0.253192 -2.04782 
-0.510095 0.482079 1.79247 
1.69215e-18 1.11682e-17 1 

-0.192595 -3.62022 10.3931 
0.756925 1.58151 -3.44982 
1.20807e-18 2.85543e-18 1 

-0.123895 -0.0573103 -0.321853 
-0.0328702 -0.0808378 0.268879 
-1.4414e-17 6.20348e-18 1 

-0.487766 0.0892181 0.466734 
0.123604 0.104488 1.18329 
2.0128e-18 -9.52086e-18 1 

-0.15622 -0.0382424 0.0572414 
-0.00527195 -0.0395639 -0.112215 
-5.33003e-18 -6.05542e-19 1 

-0.183346 -0.0805862 1.09672 
-0.0440151 0.0677288 0.339422 
-1.43504e-17 2.47078e-18 1 

-0.228346 0.0149213 -0.122545 
0.0192246 -0.0505702 -0.110095 
-1.59446e-18 -9.51364e-18 1 

-0.145594 -0.112839 -0.764749 
-0.0541624 0.0692814 -0.454262 
-6.08181e-18 1.00056e-17 1 

-0.809212 0.0573477 1.00106 
-0.0160035 0.25938 -0.640012 
5.49391e-18 -1.35652e-18 1 

-0.229406 0.0321399 -0.301007 
0.0928042 -0.0329932 -0.257801 
-1.46899e-18 -1.55775e-18 1 

-0.125401 0.0138506 -0.631339 
0.0107737 -0.0373172 0.659308 
2.81703e-18 -1.29912e-19 1 

-0.259106 -0.0341014 0.206762 
0.1052 0.0466239 -0.44481 
-5.38301e-18 -7.69002e-18 1 

-0.174397 -0.0102056 -0.222319 
-0.0229467 -0.0290207 0.164893 
2.70878e-18 -4.75418e-18 1 

-0.146416 -0.00800674 0.418015 
-0.0388137 -0.0468931 0.487504 
4.29508e-18 -2.53361e-18 1 

-0.114544 -0.307492 0.361167 
0.276281 0.0432772 -0.0846986 
-2.89703e-18 -7.33425e-19 1 

-0.135722 -0.0295815 -0.299263 
-0.0353636 -0.0185331 0.111558 
-1.13738e-17 1.05269e-17 1 

-1.23341 -0.621525 -0.282266 
0.687852 0.591464 1.75769 
-9.57038e-18 -2.36306e-19 1 

-0.0168521 -0.489699 0.186636 
0.43177 0.0152812 0.103531 
5.16164e-18 8.71026e-18 1 

-0.173258 -0.0945087 -0.256829 
0.124891 -0.0148403 0.139129 
1.00569e-17 7.18351e-18 1 

-1.40134 -1.51642 -1.15685 
-0.0124511 0.674021 0.252709 
-1.41965e-17 -3.2576e-18 1 

-2.04783 0.641536 -10.4487 
0.769894 0.277759 11.7204 
-5.4505e-18 -4.40885e-18 1 

-0.348483 -0.558284 -0.328368 
0.790236 0.216041 -0.675545 
-9.63713e-19 3.30416e-18 1 

-0.369894 -0.0449876 0.513432 
0.00690195 0.291954 -0.269412 
-1.27565e-17 -4.13217e-18 1 

-0.157709 0.199113 0.0793395 
-0.238463 -0.0173455 0.111912 
2.39626e-17 1.15375e-17 1 

-0.32776 0.037823 -0.0492254 
0.0803838 -0.0793178 0.155791 
-9.35146e-18 3.03352e-17 1 

-0.228871 0.0977833 0.200254 
-0.20321 -0.00586342 0.162861 
1.01146e-17 -1.34649e-17 1 

-2.36203 -1.02258 6.80939 
0.326961 0.590145 -2.69741 
6.24403e-18 6.39458e-18 1 

-0.0280553 0.499758 0.0596052 
-0.427271 0.0398742 0.336163 
2.14278e-19 -4.35698e-18 1 

-0.0983098 0.0107248 0.0997092 
0.00417363 -0.0318828 -0.0571267 
3.71838e-18 -1.69352e-18 1 

-0.671348 0.584221 1.16161 
-0.254911 0.0946424 -0.687964 
-1.24018e-17 -3.99715e-18 1 

-1.04085 -6.27295 -10.762 
0.965793 2.445 5.73771 
4.4551e-18 1.80883e-18 1 

-0.13992 -0.104332 0.147297 
0.0141617 -0.05551 -0.267423 
1.05735e-19 -1.26118e-17 1 

-0.160085 -0.03895 -0.253929 
0.0291518 0.00868321 -0.288666 
-4.84682e-18 1.14925e-18 1 

-0.100109 -0.0327869 -0.191675 
0.079665 0.0323884 0.837798 
1.68416e-17 -2.5703e-18 1 

-0.0971542 -0.00244342 -0.0622519 
0.0316404 0.000999858 0.0375435 
-7.85267e-19 -9.9249e-18 1 

-0.219474 -2.06966 -9.91626 
0.520909 0.141639 1.84526 
6.02305e-18 -1.17597e-17 1 

-0.251432 0.512005 0.337252 
-0.557849 0.329281 -0.66435 
4.34477e-18 1.7155e-18 1 

-0.117685 0.0091235 0.0643458 
0.0336733 -0.00478524 -0.105715 
-9.68911e-19 -8.4503e-18 1 

-0.225367 0.018336 -0.124454 
-0.0125694 -0.057168 -1.48949 
-1.13318e-17 5.03556e-18 1 

-0.0884817 0.0935356 -0.0850045 
0.05472 -0.0421586 -0.635529 
3.63399e-18 -4.02262e-17 1 

-0.145598 0.0116354 0.482313 
-0.0430792 0.0549412 0.439169 
4.12346e-18 1.39981e-18 1 

-0.728432 -0.155835 4.52746 
0.208322 0.161858 -1.30327 
1.46244e-17 2.59554e-18 1 

-0.227973 -0.0649403 0.110276 
0.0724219 0.0507716 -0.482936 
-1.36456e-17 -2.61169e-18 1 

-0.148248 -0.0369766 0.0492174 
0.00889909 -0.0779075 -0.284723 
-1.25261e-17 -3.42177e-17 1 

-0.0660767 -0.161876 0.508736 
0.303628 0.0919487 0.457944 
1.46404e-17 -1.04149e-18 1 

-1.00046 0.263283 0.421608 
0.266225 0.455636 -0.564621 
-3.62246e-18 -2.56174e-18 1 

-0.154639 -0.117186 -0.174366 
-0.00662798 -0.00116269 -0.0286481 
2.83671e-18 -2.93453e-17 1 

-0.380224 -0.102935 -0.569553 
-0.0579323 0.0160112 0.595668 
-1.16084e-17 -1.6987e-17 1 

-1.00366 0.163943 -0.668199 
-0.39392 0.388292 -0.343916 
-9.76041e-18 5.50261e-18 1 
