# vtk DataFile Version 3.0
Output file generated by Yade's KinematicLocalisationAnalyser
ASCII
DATASET UNSTRUCTURED_GRID

POINTS 13483 float
454.732 40.579 0.513868
514.056 96.1202 -0.474736
105.493 6.17616 -0.642226
550.835 5.51713 0.600795
379.668 14.5919 -0.365839
275.908 43.074 -0.577388
138.103 7.70803 0.457598
426.587 18.8932 -0.160895
387.084 58.8133 0.145898
510.362 25.6788 -0.686002
188.364 8.44857 -0.0995883
226.275 6.91523 0.373985
457.577 62.794 -0.161413
458.846 26.7948 0.10629
121.087 18.4867 0.542876
196.766 36.6874 0.412118
194.787 13.16 -0.307604
252.407 13.0047 0.496824
296.015 49.1117 -0.44658
397.009 8.91319 0.675303
331.419 40.0335 -0.104926
439.83 58.2368 -0.284833
545.149 83.9181 0.448025
478.143 86.4721 -0.339693
362.246 23.5556 0.392555
212.382 51.7748 0.151728
394.747 70.0646 -0.523905
436.048 33.9674 -0.260177
38.173 18.4267 0.650959
495.503 60.7843 0.378776
375.289 9.4675 -0.545421
15.1897 24.9083 -0.313987
527.692 89.0909 0.292233
378.364 4.65588 0.672551
68.8592 47.9603 -0.106145
391.652 47.8819 0.398888
402.104 18.4328 0.59415
289.034 30.2036 0.192023
402.001 35.8465 -0.325699
304.219 53.3762 -0.491551
214.61 17.9028 0.324077
348.074 46.9792 -0.0900383
484.579 6.80376 -0.227245
171.294 6.18311 0.415012
47.9454 8.58807 -0.0861778
58.974 9.44019 -0.28566
498.082 9.49754 -0.608082
20.4445 13.09 -0.313432
420.819 78.8667 -0.389879
488.707 31.3851 0.433822
152.32 33.1619 0.190428
508.148 84.5854 -0.172588
28.6648 32.2988 0.155524
405.964 4.11272 0.581466
125.735 6.5464 -0.632005
441.984 45.6584 0.478033
395.66 65.7916 0.136843
154.742 0.9657 -0.297511
28.1546 2.3705 0.332895
291.389 25.7624 -0.351914
428.349 89.6421 -0.131509
369.941 60.824 -0.181902
324.091 2.34476 -0.464836
506.621 8.58273 -0.606124
22.5378 48.7514 0.262968
229.412 38.2344 -0.382965
512.773 19.0292 -0.240434
445.939 90.3484 -0.349252
339.424 8.58912 -0.700131
426.723 12.2384 -0.475339
525.405 57.3268 0.475183
115.253 8.03917 0.263665
397.518 67.3095 -0.121066
372.645 34.9374 0.0873426
257.313 21.6379 -0.518417
17.79 14.9527 -0.251003
535.043 79.2874 0.373308
287.136 51.4477 0.319687
487.904 23.122 0.642309
497.985 13.9249 -0.459812
543.92 13.2623 0.32391
370.391 63.7243 0.187897
82.5795 41.3463 -0.270895
462.941 82.2401 -0.240658
460.38 72.7389 -0.133428
553.248 89.7286 -0.147956
534.527 1.90409 -0.575778
255.542 34.08 -0.562558
461.285 5.86391 0.226513
22.1452 6.10152 -0.606778
118.523 41.7701 0.142732
389.969 18.5278 0.311414
536.082 72.5524 -0.503773
174.808 29.2392 0.261737
37.8683 38.0475 0.30875
379.174 3.24254 0.164702
210.88 11.5294 -0.423884
524.523 66.8065 -0.341476
543.73 71.128 -0.271332
305.699 42.4458 0.237742
144.215 30.2744 0.592501
405.493 62.4124 -0.497402
313.52 26.9211 -0.498973
335.078 32.7718 0.158994
310.554 15.8045 0.542447
411.173 16.5997 0.157479
553.823 14.9209 -0.24614
70.7397 43.082 0.472928
288.551 5.66026 -0.309636
422.059 17.4897 -0.457325
310.357 66.29 0.513838
20.8235 29.1263 -0.509293
26.709 5.8401 -0.414231
421.398 53.937 0.4792
387.101 37.992 0.165564
21.2819 42.7981 0.42689
83.4097 33.5456 -0.245089
281.494 18.4339 -0.363248
447.262 21.0102 -0.265723
378.075 73.9812 -0.288672
523.405 22.1143 -0.411828
517.77 16.9933 0.203941
337.97 67.8477 0.125921
442.632 68.6691 -0.0924266
214.58 20.7069 -0.55265
285.78 3.76064 0.622017
93.0752 33.3718 0.382047
104.406 25.4674 -0.274667
402.628 61.8745 -0.112961
266.658 22.8787 0.502692
493.442 69.1369 0.12377
449.115 90.4771 0.106167
370.424 46.1703 -0.398947
552.548 51.1305 0.238471
347.707 27.697 -0.275357
244.666 30.7668 -0.328218
484.026 47.4042 0.286994
247.801 36.4055 0.460328
431.993 26.8466 -0.254569
289.131 48.7047 0.192284
383.768 16.3037 0.533496
321.188 55.8477 -0.104945
349.307 18.0884 0.162812
275.977 55.8052 -0.430475
171.471 30.0973 0.139202
518.597 93.0256 -0.142398
551.858 14.5679 0.416553
6.047 13.1954 -0.439358
348.787 25.258 -0.516014
32.0208 26.4945 -0.0965641
330.753 58.3573 -0.59084
323.381 29.9505 -0.289168
65.8886 12.1177 0.594459
45.2441 35.0726 -0.488246
203.676 16.0926 0.43911
432.363 82.2155 -0.414826
432.952 35.4288 -0.466336
66.3461 23.2446 0.575369
482.727 88.1204 -0.374506
528.989 20.061 -0.559575
474.426 61.6786 -0.578476
502.039 1.57354 0.65378
410.26 51.0108 0.426076
441.441 59.057 -0.460949
393.855 20.5818 -0.609144
548.486 3.74795 -0.489335
202.47 27.2441 -0.108449
116.058 36.9155 -0.204355
221.212 8.52286 -0.359296
82.282 4.85764 0.274695
56.1642 11.4097 -0.203872
246.727 45.4551 -0.300964
14.762 26.7007 -0.361474
419.945 29.2744 0.436044
426.057 74.686 -0.19801
363.904 37.2269 -0.405659
538.713 95.5184 0.386845
332.94 8.77716 -0.189277
349.691 51.3759 -0.525849
412.999 3.10051 -0.292827
19.4832 26.2585 0.413289
432.501 5.29027 0.647448
416.427 12.0005 -0.466593
186.842 10.9703 0.546554
346.837 15.7853 -0.326518
271.487 6.81954 0.518443
322.663 26.8522 0.420498
511.534 63.7668 0.161499
173.788 26.0732 0.41245
531.774 15.1689 0.35416
512.414 59.778 0.46762
315.951 17.3372 0.267868
517.393 2.45817 -0.585743
456.886 39.0788 0.450855
522.399 38.0432 -0.529824
343.258 56.1122 -0.333242
382.474 21.5711 -0.484035
368.804 74.7847 0.219387
362.646 12.1391 0.185593
477.91 60.2897 0.271594
473.592 57.6163 0.379866
172.736 40.3907 -0.390064
542.886 16.5141 -0.167545
441.73 61.1312 -0.295865
9.91693 19.3788 -0.223479
333.956 26.4222 0.368856
168.846 23.5383 0.421757
84.2105 42.2264 0.217911
548.571 64.2266 0.425151
473.168 68.7384 0.256851
284.771 34.5211 -0.393436
409.643 10.3746 -0.449179
73.8927 47.5852 0.193794
224.947 32.7381 -0.49136
417.526 38.926 0.378134
380.664 44.3223 -0.471227
233.888 0.904165 -0.40427
414.461 65.5626 -0.428885
412.224 73.2103 0.481482
390.559 75.7361 -0.293144
385.465 1.86498 -0.580183
497.292 31.8298 -0.681195
161.23 12.6479 -0.232668
409.271 83.5217 0.421756
423.45 60.884 0.148918
63.9511 0.997824 0.316328
223.835 4.95469 0.229843
550.03 18.2978 0.195619
543.535 19.0722 -0.562016
553.455 23.3829 -0.614603
266.19 9.96272 0.327782
523.752 45.8134 0.4663
345.415 63.1789 0.356201
365.895 0.812525 0.631549
464.122 65.7462 0.455364
21.4364 36.0316 0.322778
286.646 56.3209 -0.454774
224.888 3.28548 0.446229
531.877 86.0459 -0.207904
498.638 82.7786 -0.189341
253.779 15.6286 0.191945
477.135 49.1874 -0.14549
424.649 2.76979 0.379539
415.139 11.8502 0.575784
86.4775 19.9501 -0.574541
264.716 0.974421 -0.261794
297.893 2.2604 -0.416732
12.7481 7.9934 -0.62467
4.26735 34.0567 0.315296
144.683 20.0636 -0.462059
60.4991 44.9479 -0.231005
57.9463 32.2848 -0.325526
347.569 14.0115 -0.567895
323.005 60.1456 -0.526391
505.64 86.8956 -0.125342
17.9636 4.62689 0.365168
61.897 7.40885 0.13025
441.101 82.9801 -0.1426
259.218 2.60106 0.392636
304.908 31.8506 -0.127845
212.605 6.68318 0.483028
477.949 38.0942 0.215652
366.947 13.6437 0.650261
527.577 46.8966 -0.350807
443.707 71.9486 0.310486
486.068 23.0275 0.168049
346.436 33.0919 0.532263
93.247 47.9597 0.310958
404.885 67.8352 -0.0670156
523.861 31.4185 0.234109
216.512 36.6534 -0.250985
28.3167 20.7737 -0.198165
292.706 14.6427 0.666713
98.3788 43.2855 -0.46785
241.746 52.0055 -0.213462
352.077 2.39763 -0.215807
532.178 75.6855 0.413564
495.898 0.684761 -0.550728
289.26 4.17475 0.554645
268.86 31.5267 -0.145755
369.813 71.5559 -0.199673
71.6632 9.39401 0.594633
177.308 47.6357 0.416237
515.038 78.0456 0.352709
403.881 85.6146 0.0662646
179.95 43.6268 -0.339385
145.988 47.9108 0.458183
552.858 84.0321 -0.536421
552.237 15.8394 -0.699962
453.212 3.28962 -0.636165
172.437 24.9034 -0.0999431
411.831 46.1903 0.104214
413.77 46.8029 -0.308262
337.119 5.66315 -0.157983
376.452 0.881003 -0.582248
503.922 87.754 -0.469777
76.2856 33.8561 -0.27166
482.26 32.4058 -0.568507
243.391 17.8927 -0.518557
8.32829 2.51561 -0.426725
115.184 40.5043 -0.280725
59.9782 24.6145 0.496755
486.467 75.6206 0.302639
528.55 102.898 -0.160653
167.701 28.8923 0.216144
547.017 14.0993 0.552718
39.4792 39.7727 -0.307563
82.2211 31.888 -0.200988
465.619 30.8768 0.619712
340.219 20.7801 -0.67819
400.488 19.1857 0.207383
217.516 34.8754 -0.225768
466.143 6.89919 -0.613631
554.579 16.5963 0.575833
24.2651 36.6943 -0.300082
240.777 8.05069 0.20797
201.795 17.3852 0.270235
1.08241 38.7251 0.157365
204.721 17.372 0.462176
192.809 11.1575 -0.179374
194.578 28.6319 -0.29326
122.213 30.7433 -0.159823
414.508 24.6195 0.479399
149.767 15.033 -0.381147
526.205 87.9803 -0.243103
156.617 3.89485 0.517996
40.8972 40.7515 0.3827
516.939 71.6433 -0.534162
252.73 39.4321 -0.422491
488.056 34.6026 0.600859
542.369 77.8852 -0.530248
264.707 11.3983 0.332182
514.562 51.7479 0.369423
287.475 2.31962 -0.429611
341.6 26.8854 -0.345254
490.158 20.117 -0.518462
93.9926 12.3989 -0.53696
376.462 5.96164 0.703279
529.498 47.1255 -0.175471
77.5196 8.01033 -0.293674
249.028 18.9985 0.243054
348.747 12.1845 -0.366807
548.974 2.33253 0.587168
327.331 1.88669 -0.51797
160 39.4768 -0.359835
526.493 29.057 -0.329441
117.626 38.3799 -0.0623017
236.953 39.6828 -0.395419
330.604 22.8554 0.288011
434.586 28.0936 0.472708
318.159 13.8024 -0.478983
374.195 57.0992 -0.433884
514.978 95.2786 0.383087
41.1624 12.9638 -0.234548
266.907 43.2595 0.301929
337.005 57.6704 -0.383356
337.26 22.7396 0.32446
408.254 74.0682 -0.431043
532.146 70.0502 0.191017
478.368 54.3904 -0.406717
205.305 37.4135 -0.417854
12.5818 36.2696 0.189206
472.449 59.1676 -0.164012
421.573 85.176 0.433906
207.463 43.6799 -0.135172
484.854 62.2576 -0.135046
136.011 10.5774 -0.314051
309.251 37.5074 -0.256544
370.592 73.5378 -0.0986836
341.286 21.851 0.264406
510.409 98.0362 -0.290936
351.866 5.55199 0.534571
42.4974 27.5541 -0.317914
382.21 68.847 -0.341939
348.175 57.4371 0.406237
528.899 81.9319 -0.223089
512.617 50.4016 0.255438
409.8 27.7375 -0.195376
519.614 85.5867 0.475523
258.945 4.99219 -0.633308
335.153 59.8125 0.534486
24.6823 44.128 -0.312504
516.261 53.0139 -0.131129
456.473 21.5864 -0.713054
372.817 4.19217 0.616255
112.505 5.22553 -0.479535
343.933 48.6266 -0.13208
10.742 0.911404 0.384054
546.826 7.06484 -0.13563
325.27 66.7883 -0.405726
[...]
POINT_DATA 13483
TENSORS Strain_matrix float
-0.860286 1.8024 -23.0634 
0.600537 -0.121027 -0.141212 
-3.14209e-19 -8.90259e-19 1 

-0.896734 -0.409521 -68.316 
0.108538 0.466679 3.49111 
1.09036e-19 1.44473e-18 1 

-0.237362 0.0521766 -9.13863 
0.0142529 0.0235866 -1.14611 
-2.12128e-18 -1.0227e-17 1 

-1.10715 0.0520751 2.79092 
0.0218903 0.0152558 -0.0265844 
4.71501e-18 -1.00106e-17 1 

-2.03386 0.0702808 -0.163453 
-0.811937 0.539229 -0.206893 
1.24012e-17 1.24238e-17 1 

-0.318772 -0.290514 -9.81273 
0.312693 0.310235 -34.6783 
-1.95487e-18 2.24936e-18 1 

-0.361628 0.0740708 0.708129 
0.121652 0.0425544 0.102565 
-2.30295e-18 -2.06053e-18 1 

-0.467144 -0.116999 -0.149413 
0.105169 0.0418577 -0.309025 
-2.18444e-17 -9.64518e-18 1 

-7.59424 7.57864 -18.5827 
-4.07375 2.59146 -7.84226 
4.77432e-18 1.35634e-17 1 

-1.21356 -0.644554 -15.8813 
0.405668 0.377729 9.54942 
-1.08431e-17 -6.12263e-18 1 

-0.125277 -0.0332614 -0.104866 
0.013385 -0.105727 0.0366818 
-1.80677e-18 -4.03048e-18 1 

-0.35567 0.102022 -0.449168 
0.0256095 0.0285789 -0.771604 
-2.61905e-18 6.23282e-18 1 

-0.0931355 0.748437 -1.29667 
-0.537553 0.283847 0.225156 
7.26882e-20 -6.15427e-18 1 

0.0115917 -0.816431 -0.0760189 
0.709825 0.245294 0.567895 
-1.50805e-18 6.23329e-18 1 

-0.432889 0.143343 0.932277 
0.00646702 0.169392 -1.70827 
1.47766e-18 -3.8716e-18 1 

-0.157171 -0.160342 0.664243 
0.0117293 0.0112338 0.72785 
-9.29805e-18 -7.49349e-18 1 

-0.180907 -0.198737 0.126501 
0.0575113 -0.0613658 -0.255405 
-4.60362e-18 -8.2002e-18 1 

-1.06124 0.094853 0.471839 
-0.0443095 0.232424 -0.677954 
1.32834e-18 -3.32085e-18 1 

-0.186048 -0.719061 1.94116 
0.502618 0.124163 0.798723 
2.27529e-17 -6.7026e-18 1 

-0.432928 -0.220953 14.7923 
-0.324463 -0.0717489 6.42469 
-1.90652e-17 -4.36594e-18 1 

-0.472321 0.0193869 -0.378965 
-0.07528 0.235031 -0.682482 
-8.30235e-18 -6.83723e-18 1 

-0.703288 0.140653 -0.561826 
-0.135708 0.191073 0.6424 
-6.93783e-18 -6.56785e-18 1 

-1.24813 0.19454 3.23002 
0.000431565 0.4559 -2.23317 
-1.3869e-17 -1.97351e-18 1 

-0.0461636 0.41733 0.601462 
-0.163321 0.0282654 1.64349 
-2.14042e-19 -2.5685e-18 1 

-1.24989 -1.25987 0.950369 
-0.205346 0.550824 0.515272 
1.16532e-17 1.94753e-17 1 

-0.487099 -0.185408 -0.866489 
0.114061 0.25951 -0.170534 
1.92375e-17 -1.127e-17 1 

-1.60993 1.35541 45.6805 
-0.114865 0.968018 22.3275 
-2.2503e-18 4.78715e-18 1 

-0.0382637 -0.0913731 -0.110179 
-0.19835 -0.208438 0.797392 
1.02016e-17 -7.45333e-18 1 

-0.2694 -0.0726843 4.66101 
0.0386042 0.0493268 4.59039 
8.49159e-18 -2.08423e-18 1 

-1.92917 -0.559994 5.82286 
-1.03794 0.267426 4.56052 
-8.78808e-18 2.89533e-18 1 

-4.27727 -0.278554 -4.6218 
-0.52186 0.848467 2.32957 
-6.26613e-18 -1.37072e-17 1 

-0.369339 0.104383 0.712775 
-0.0172208 0.0563992 -0.472876 
-1.31057e-17 2.53107e-18 1 

-0.103328 -0.188808 -1.47705 
-0.171074 0.0471451 1.16654 
-1.57053e-18 -9.36177e-18 1 

-1.81293 -0.392774 3.85045 
-0.0289606 0.413442 -1.84346 
1.41339e-17 -1.90501e-17 1 

-0.0810871 -0.071335 0.00025412 
0.0310354 -0.0748556 0.623512 
-2.77382e-19 1.10953e-17 1 

-0.736729 0.172197 -0.94716 
-0.50637 0.355262 0.0169775 
1.40237e-17 -2.65313e-18 1 

-0.571464 0.211993 1.96101 
-0.211789 0.172334 -1.00913 
-3.22895e-18 -5.39982e-18 1 

-1.37009 1.6583 -7.71969 
0.0418838 0.626779 1.68966 
7.22971e-18 -3.19043e-18 1 

-0.504823 -0.27191 1.41362 
0.461999 0.279431 -0.152792 
-1.35879e-17 1.54279e-17 1 

-0.566924 0.0149255 37.6179 
0.145039 0.153885 33.7943 
-6.59671e-19 -1.74449e-18 1 

-0.296832 0.170642 0.467476 
0.0786909 -0.031565 -0.218982 
-1.34747e-17 -1.03577e-17 1 

-0.175596 -1.21917 0.382124 
0.775816 1.03928 0.312791 
4.31876e-18 5.99122e-18 1 

-0.876334 0.0545434 -0.269199 
-0.403302 0.137507 -0.252871 
2.19521e-17 1.44518e-17 1 

-0.177262 0.0421348 0.246256 
-0.090262 -0.0690003 0.371947 
-4.22694e-18 -7.84772e-19 1 

-0.199115 -0.0533837 0.0466643 
0.0147114 -0.0126849 0.0483026 
9.03362e-18 2.75401e-18 1 

-0.182026 0.0655388 -0.149672 
-0.0184633 0.037698 -0.0268968 
6.39656e-18 8.0347e-18 1 

-0.381894 -0.10083 0.679676 
-0.00913874 -0.0750855 0.319441 
1.48487e-17 -1.13466e-17 1 

-0.0800042 -0.141368 -0.147243 
0.144852 -0.0873088 0.180383 
-7.4231e-18 -1.95688e-17 1 

-12.9249 -4.11868 -3.51391 
-0.0212077 1.03319 1.24386 
1.11737e-17 -4.4864e-18 1 

-3.64497 -0.130454 -3.04966 
-0.0544147 0.786411 0.978425 
-1.35429e-17 -1.48931e-18 1 

-0.25173 0.0720653 -1.18353 
-0.149939 0.17885 0.0774617 
3.16921e-18 -2.02995e-18 1 

-0.253468 -0.0734405 0.0743488 
0.203492 -0.0184252 0.702713 
-4.09239e-18 -6.35782e-18 1 

-0.165047 0.0859221 -0.228362 
-0.140194 0.0251387 0.130252 
-4.19896e-18 1.96237e-17 1 

-0.358503 0.0240446 1.88065 
-0.0065321 -0.133086 0.0561239 
-5.69298e-18 -2.37208e-19 1 

-0.243359 0.0475735 -3.25136 
0.00519846 -0.0392401 -2.90117 
1.93267e-18 -3.93691e-18 1 

-0.217204 0.237868 -2.31727 
-0.26188 0.0891684 0.0778971 
-5.65772e-18 3.26986e-18 1 

-5.75024 10.8758 6.6117 
-1.54862 4.54498 4.46409 
-5.42432e-18 1.21426e-17 1 

-0.14586 0.31765 -0.218836 
0.00421119 0.0565933 0.154577 
5.47565e-19 4.40313e-17 1 

-0.159517 0.116107 -0.000550826 
-0.10584 -0.105209 0.566753 
-7.80763e-18 5.35951e-18 1 

-0.220485 -1.42254 -0.798261 
0.608362 0.955917 2.4689 
-9.43637e-19 5.11137e-19 1 

-10.5751 20.3642 -11.6696 
0.231185 0.876155 0.650728 
-1.53022e-18 -2.9147e-18 1 

0.126014 -0.810774 1.00476 
0.548096 0.338185 -0.705549 
-5.55962e-19 3.89173e-18 1 

-0.744518 0.0042019 -0.545797 
-0.237611 0.337613 0.732118 
-5.59103e-18 3.7714e-17 1 

-1.07939 -0.452078 -3.49604 
0.328838 0.450647 -0.371691 
1.8578e-18 -3.33193e-18 1 

-0.225056 0.289562 -0.311902 
-0.23773 0.158976 0.569549 
-5.2581e-18 -2.14909e-17 1 

-0.493695 0.274696 -0.660098 
-0.0517024 0.200233 -0.267547 
-2.83172e-18 -5.51214e-18 1 

-0.364508 -1.4711 -0.807553 
0.163357 -0.105351 -0.762481 
2.2953e-18 -8.41611e-18 1 

-3.202 -8.7776 -5.43551 
0.202111 0.802362 -2.77522 
-3.0379e-18 -4.53597e-19 1 

-0.396932 -0.0327137 13.5892 
-0.0612133 -0.0257674 -9.13471 
3.59581e-18 4.63414e-18 1 

-1.29731 0.753189 -0.860688 
-0.843447 0.583179 -2.24437 
-1.31784e-17 1.4127e-17 1 

-0.198435 -0.320813 -0.13824 
0.308284 -0.0386742 -0.302661 
3.15663e-18 7.47622e-19 1 

-0.165897 0.0750832 -0.10115 
-0.140349 -0.0184866 -0.0783223 
1.71515e-17 8.16737e-19 1 

-5.01679 7.91121 9.92261 
-2.10228 2.93534 0.901335 
7.22736e-19 -8.58249e-18 1 

-0.595069 -0.238269 -0.113646 
0.675218 0.399517 0.0786428 
1.3469e-17 2.54819e-18 1 

-0.328058 0.019487 2.27295 
-0.158841 0.137312 0.190989 
-4.23282e-18 6.83764e-18 1 

-0.18027 -0.081067 -0.0440425 
0.0558472 -0.0282595 0.0973586 
3.5097e-18 -6.41086e-18 1 

-0.407806 -0.258966 10.9016 
0.174008 0.11793 -3.36748 
-3.92313e-18 -3.80586e-18 1 

-1.02661 -0.493333 0.313923 
-0.404046 0.273104 1.26723 
3.19256e-18 -4.70509e-18 1 

-0.905909 0.442825 -2.60404 
-0.333739 0.1612 -0.523541 
7.29089e-18 -5.54198e-18 1 

-0.299435 -0.019193 0.443267 
0.0984345 -0.0747975 0.141566 
1.13179e-17 1.35638e-17 1 

-2.271 0.0950226 2.29797 
-0.164827 0.951736 0.778264 
5.97915e-18 5.93518e-20 1 

0.0665256 -0.933378 -0.346985 
0.601186 0.383788 0.113658 
-9.19516e-18 9.89926e-18 1 

-0.0862806 0.0322307 0.116954 
-0.0236324 0.0487583 -0.18321 
-4.40548e-18 8.42225e-18 1 

-3.80235 -8.69072 2.168 
0.640545 2.32361 0.694331 
2.68464e-18 1.63075e-18 1 

-0.0381426 0.623928 0.383416 
-0.739463 0.28262 0.394038 
1.64661e-17 1.57949e-18 1 

-0.624796 -0.191458 -0.883617 
-0.174228 0.208164 0.266296 
1.23606e-17 -6.74215e-18 1 

-2.80737 -2.00281 -19.7286 
-0.0536428 0.886528 3.01599 
-1.25791e-17 1.59258e-17 1 

-0.391768 0.274049 1.50108 
-0.233697 0.0663177 3.13118 
-4.47026e-18 -1.4585e-17 1 

-0.471385 0.238972 0.0316853 
-0.00191706 -0.00172818 0.32175 
1.03775e-17 2.10416e-17 1 

-0.384252 0.0955036 2.2211 
-0.0431025 0.0293479 4.34487 
1.88464e-18 2.68989e-18 1 

-0.4366 -0.562532 1.29006 
0.351944 0.171657 0.384952 
1.21743e-17 -2.25186e-17 1 

-0.258755 0.633743 -0.560524 
-0.419913 0.146893 -0.0441981 
-3.95008e-18 2.34313e-18 1 

1.42582 -7.27038 -23.9108 
0.119374 2.39715 15.4349 
-4.26435e-19 -4.09378e-18 1 

-0.282045 -0.137604 -0.150009 
0.123285 0.0635407 0.764229 
-2.19421e-17 4.17944e-18 1 

-0.14183 0.134639 -0.151537 
-0.216176 0.027372 -0.0526082 
-1.47953e-17 -6.20914e-18 1 

-1.97788 -0.0293264 -0.742517 
-0.0218822 0.605115 -0.317468 
1.08193e-17 -3.77816e-18 1 

-0.299809 0.0851098 0.294345 
0.016947 -0.103308 -0.624298 
-5.35485e-18 -3.52769e-18 1 

-0.346781 -0.230222 -0.1072 
0.381129 0.15825 -0.106537 
-1.02333e-17 2.17335e-17 1 

-3.54445 -4.48619 6.1792 
0.503893 1.23073 -0.900972 
-9.58156e-18 -1.74007e-18 1 

-1.64208 2.52625 1.70472 
0.35586 0.306776 -0.3772 
-1.22943e-17 3.37722e-17 1 

-0.311642 0.108797 12.1011 
-0.0708034 0.104584 -0.390896 
2.25103e-18 3.6971e-18 1 

-0.683572 -0.0291762 -5.91932 
0.285177 0.334004 0.692649 
-5.09583e-18 1.11807e-17 1 

-0.327046 0.243417 -0.423195 
-0.335241 0.0498864 0.473761 
1.11677e-18 2.79193e-19 1 

-0.325353 -0.69411 -0.307575 
0.291392 0.170731 0.233352 
4.64369e-18 3.68105e-18 1 

-0.999078 -2.64632 -12.4403 
-0.533674 -0.0797599 -4.66169 
-1.9076e-18 -1.13439e-17 1 

-2.07583 -1.58951 -0.56794 
1.02506 0.943665 -0.272581 
-4.26847e-18 6.93626e-18 1 

-1.36842 -0.344054 0.376481 
0.536634 0.396049 -0.563803 
-1.74347e-18 1.35573e-17 1 

-0.190378 0.107825 1.54514 
-0.0378127 0.0276527 0.233265 
1.40902e-18 4.5169e-18 1 

-0.253653 -0.132512 0.182519 
0.271204 -0.0652482 0.0167221 
9.28993e-18 -2.40994e-18 1 

-0.609249 0.457171 -0.823696 
-0.22689 0.0707812 -0.407692 
-3.04478e-18 -4.22887e-20 1 

-0.349852 -1.83691 -296.869 
0.100138 0.425581 -23.6838 
1.56661e-18 1.39258e-17 1 

-0.679764 -0.63755 -1.33869 
0.184764 0.266842 -0.399998 
-2.51254e-18 -3.17993e-18 1 

-0.436678 0.0946461 0.204167 
-0.128583 0.0110565 -0.142269 
-1.26859e-17 -1.38186e-17 1 

-0.691965 0.307716 4.84686 
-0.235533 0.42257 0.000609676 
-1.90054e-18 -1.50301e-17 1 

-0.898829 0.00844545 -0.838603 
-2.05648 0.496831 0.412634 
1.70376e-17 -4.64199e-18 1 

-0.137929 0.116549 1.25275 
-0.163135 0.0862037 1.76867 
-6.7579e-18 -9.38992e-18 1 

-0.199916 -0.0895428 0.152257 
0.0631889 0.0205094 -0.365653 
-4.9932e-18 4.81777e-19 1 

-0.2126 0.22131 -0.0614181 
-0.188203 -0.0827055 -0.0175755 
2.3208e-19 1.5472e-19 1 

-0.949248 1.0349 1.57714 
-0.518323 0.563478 -0.892556 
-1.64481e-17 -1.10113e-18 1 

0.134756 -0.62107 0.167405 
0.645205 0.197617 -0.0652899 
1.12567e-17 -5.06022e-18 1 

-0.672063 -0.440769 0.0387094 
0.624664 0.261131 0.751693 
-2.82058e-17 -7.36419e-18 1 

-1.88015 -0.430041 0.31703 
0.112917 0.579823 0.42875 
9.18323e-18 -8.36535e-18 1 

-0.168526 -0.149083 -0.490842 
0.19719 -0.00798038 0.179083 
2.87435e-18 -4.68973e-18 1 

-1.20437 -2.44584 -4.09607 
0.094475 0.547522 0.317897 
-9.90871e-18 4.96627e-18 1 

-0.384566 0.0660655 -0.1781 
0.0262419 0.064508 0.0565291 
-8.25352e-18 3.30497e-17 1 

-0.50702 -0.161914 -1.78464 
0.0796048 -0.109219 2.41393 
1.48304e-17 1.44411e-17 1 

-0.160663 0.157405 0.233341 
-0.115169 0.00378141 0.227625 
3.15856e-18 -6.4522e-18 1 

-0.185748 0.74756 0.1332 
-0.101546 0.099714 0.202728 
-8.19978e-18 -1.37821e-18 1 

-0.901993 -0.518615 -1.05669 
0.563525 0.380253 -0.271683 
-2.09152e-18 1.22005e-18 1 

-0.443932 0.448044 2.76498 
-0.0115384 0.159595 -1.45517 
-4.06094e-19 3.18628e-18 1 

-0.507003 0.220926 -0.0590272 
-0.77371 0.406065 -0.00387828 
1.21382e-18 -6.40017e-18 1 

-0.994158 -8.88328 5.21681 
0.265159 1.12514 -1.63334 
-1.53243e-18 4.53656e-18 1 

-2.18302 3.33337 -12.4704 
0.561052 0.298984 3.82068 
-1.45223e-17 -1.52091e-18 1 

-3.57908 2.45086 -5.24301 
-1.50193 1.56869 -3.7829 
-9.37342e-19 4.46702e-18 1 

-1.84585 1.1333 -2.49202 
0.145835 0.679531 0.927377 
8.42407e-18 1.46867e-18 1 

-1.03959 0.797232 6.01085 
0.115181 0.484564 -0.305793 
-6.97539e-18 8.93866e-18 1 

-0.145881 0.318389 -0.581244 
-0.272156 -0.00812852 0.0988792 
2.48653e-18 1.36432e-17 1 

-0.270499 0.180791 -0.23815 
-0.211436 0.0643417 -1.2544 
1.33025e-18 7.62218e-18 1 

-1.29137 0.133061 0.130967 
0.260202 0.760303 0.575342 
-7.68249e-19 1.26154e-17 1 

0.158487 -0.614071 0.187411 
0.581641 0.106622 0.182425 
-1.1826e-18 -1.39404e-17 1 

-0.902843 0.21784 5.39007 
-0.321864 0.313285 0.810191 
-1.11431e-17 -3.19389e-18 1 

-0.0565539 -0.345263 -0.102751 
0.270042 0.0293646 -0.134936 
4.6117e-18 -1.60272e-19 1 

-0.28165 -0.740742 0.978473 
0.74483 0.429485 -0.363794 
-1.95458e-17 -4.91594e-17 1 

-0.491095 -0.443399 -1.74815 
0.163399 0.354891 -0.276485 
-1.10904e-18 2.26077e-17 1 

-0.143547 0.0664593 -0.454051 
-0.0482775 0.0256546 0.522219 
-2.44564e-19 6.7879e-18 1 

-0.217817 -0.330728 0.546703 
-0.111992 0.190517 -0.509239 
9.57268e-18 2.54379e-18 1 

-0.697708 -0.727515 1.07322 
0.230191 0.286709 -0.701826 
9.08879e-18 1.12948e-17 1 

-0.128098 0.040814 1.01816 
0.125324 -0.0581079 -0.857468 
7.40586e-18 1.12824e-17 1 

-1.63148 -0.123333 2.88964 
0.278102 0.550924 -1.52199 
-5.10569e-18 -2.88583e-17 1 

-0.20801 -0.0937649 -0.319444 
-0.206193 0.031754 -0.328045 
1.08986e-17 -6.54049e-18 1 

-0.898159 -0.352695 204.045 
0.00729083 0.509532 29.6534 
-4.03908e-19 -7.20144e-19 1 

-1.73203 -2.25921 1.88144 
-0.688294 -0.0987278 1.66085 
1.95822e-18 -4.54455e-18 1 

-0.223336 0.0528554 0.0477329 
0.0359938 -0.00449929 2.04343 
7.53566e-18 6.58953e-18 1 

-0.229318 0.0526237 0.851579 
-0.0616803 0.0582517 -1.40889 
4.00559e-18 2.578e-18 1 

-0.156647 0.018152 0.0678895 
0.168652 -0.0737034 0.393012 
9.07642e-18 1.87647e-17 1 

-0.865216 0.408907 -0.110603 
0.366376 0.0703326 -1.48812 
-7.87256e-19 1.36914e-18 1 

-0.602241 -0.520045 1.3781 
-0.347101 0.104698 0.196422 
1.66588e-18 1.58656e-17 1 

-0.254458 0.0327304 0.642714 
0.0113778 0.089871 1.97122 
-3.02189e-18 -1.71374e-19 1 

-0.114587 -0.475094 4.54365 
-0.418829 0.174288 3.30738 
-4.64652e-18 1.31135e-17 1 

-7.62775 6.12714 51.8962 
-1.00137 1.07509 12.2237 
-8.84656e-18 1.1305e-18 1 

-0.517372 0.235214 -104.909 
-0.326719 0.22578 25.2229 
-5.40556e-18 -4.02833e-18 1 

-0.31594 0.00637616 0.98323 
-0.11694 -0.33265 0.329724 
-5.78623e-18 6.40618e-18 1 

-1.42368 0.0332006 -4.77536 
-0.216183 0.840402 -7.96767 
-7.15357e-18 2.07684e-18 1 

-2.67098 -3.29907 32.621 
1.04966 2.08641 -14.9507 
-4.30943e-18 5.17131e-19 1 

-0.532001 0.355892 2.72541 
-0.250584 0.202953 -0.632251 
1.40122e-18 -2.96453e-18 1 

-1.36833 -0.243937 1.63411 
0.295991 0.400829 -0.359654 
-2.59955e-17 -4.55523e-18 1 

-0.00136269 0.410581 -0.396602 
0.122521 -0.0724251 -0.108914 
1.38892e-18 2.60422e-18 1 

-0.175662 -0.138104 0.123614 
0.078382 -0.0201626 0.0764249 
2.14929e-17 -7.64873e-20 1 

-0.577489 0.450266 -0.646172 
-0.205545 0.357994 -0.311782 
4.19609e-18 -1.20638e-17 1 

-0.270284 -0.118805 0.168346 
0.0368288 -0.00229114 -0.639186 
8.73313e-18 -5.51377e-18 1 

-0.424961 0.139439 0.0886954 
-0.206093 0.183297 0.280336 
-3.73055e-18 -1.85987e-17 1 

-0.324323 0.07685 -0.698317 
-0.150102 0.232713 -0.226023 
-9.00212e-18 -4.26091e-18 1 

-0.585302 -0.233049 -0.88156 
0.0214932 0.366367 -1.54957 
-6.31043e-18 -2.10348e-18 1 

-0.654293 -0.561662 -4.32192 
-0.364447 0.418628 1.47998 
7.2887e-18 1.13568e-17 1 

-0.86143 -1.0209 -3.20274 
0.886384 0.926225 1.12653 
2.06761e-19 -4.17657e-18 1 

-2.05355 1.62076 0.794089 
-0.468636 0.543789 3.08984 
1.09767e-17 -1.32992e-17 1 

-0.389716 -0.093543 1.46584 
0.100968 0.188207 1.37385 
1.33872e-17 9.95601e-18 1 

-0.223171 0.0149343 0.0639507 
-0.0388441 -0.0436145 -0.124641 
4.49975e-18 -1.08186e-17 1 

-0.061326 -0.720058 0.0125744 
0.568669 0.347327 1.29232 
9.08658e-19 3.87945e-18 1 

-0.220216 -0.0679834 -0.2785 
0.064872 -0.154668 -0.108448 
-7.49342e-18 -3.30479e-18 1 

-0.720509 -0.283328 -0.934342 
0.185462 0.528355 -0.243394 
5.55146e-18 -3.74556e-18 1 

-1.66543 -0.465152 18.2338 
0.0410027 0.476932 -14.7629 
-1.65384e-18 8.35143e-18 1 

-1.00782 -0.190472 1.78983 
0.886423 0.395971 1.15482 
9.21946e-18 -1.63625e-17 1 

-0.190934 0.036465 -1.90499 
0.0144823 -0.0149683 2.35415 
-1.01452e-18 -8.63418e-20 1 

-0.531889 -0.345339 0.445511 
0.154571 0.141061 -0.590106 
-4.77545e-18 1.53497e-18 1 

-0.251317 0.237351 -0.17286 
-0.255833 -0.214848 0.450789 
4.51213e-18 -7.25164e-19 1 

-0.706049 0.220237 -0.119825 
-0.472342 0.283691 0.509363 
-1.18102e-17 -5.90509e-18 1 

-0.122772 -0.378122 0.306822 
0.334907 0.0947772 -0.207812 
-1.15468e-17 -1.67524e-18 1 

-0.130362 -0.100155 -0.379224 
0.0301931 -0.0306985 0.948763 
2.60514e-18 3.07272e-18 1 

-4.0871 -0.762541 35.8066 
-0.0392566 0.632959 6.67003 
-7.98309e-18 5.14627e-18 1 

-0.0225961 -0.581788 0.0626573 
0.506409 0.0794288 0.215367 
1.12112e-17 3.93132e-18 1 

-0.727227 0.741145 -0.750552 
-0.463567 0.487244 -0.626403 
1.05898e-17 4.89202e-18 1 

-5.56178 -0.175705 -6.01128 
-0.0636959 0.883665 0.336359 
1.19482e-17 -1.74102e-17 1 

-3.81588 5.04921 -5.40386 
0.719452 0.0950911 -0.80357 
-7.39145e-18 3.02065e-18 1 

-0.547268 -0.635447 -0.924667 
0.723206 0.301232 0.236818 
-1.26968e-18 -7.61809e-18 1 

-5.32863 4.30614 -9.5551 
-0.929484 1.49124 -11.04 
1.88986e-18 -3.42695e-18 1 

-2.07831 1.87039 -2.1819 
-1.97101 1.36535 -1.86313 
7.79251e-18 -8.11275e-18 1 

-0.0230615 -0.738893 0.190102 
0.544466 0.275822 -0.503396 
2.82454e-18 2.53031e-18 1 

-1.78551 -0.397942 0.579826 
-0.343648 0.448136 0.918163 
3.68315e-18 8.26517e-18 1 

-2.20357 -0.439822 -5.81362 
0.336415 0.497712 1.64534 
7.45411e-19 1.01873e-17 1 

0.0175035 0.586364 -0.0708225 
-0.486899 0.0585913 0.260038 
8.30737e-18 -3.36501e-18 1 

-0.44194 -0.3075 -0.432367 
-0.00530885 0.159249 -0.0793553 
-4.86545e-18 -5.78694e-18 1 

-2.27258 1.00332 -0.294341 
0.0620037 0.137735 0.493667 
-8.78227e-18 8.34315e-18 1 

-5.75188 -10.6052 6.15494 
2.46668 5.17175 -3.1551 
-3.38248e-19 7.38507e-18 1 

-0.204698 -0.120395 -0.0548677 
0.0897356 -0.00817797 -0.23084 
5.7694e-18 6.05583e-18 1 

-0.674813 -0.283629 1.77704 
0.067325 0.0235241 0.739643 
2.27838e-18 -1.33208e-17 1 

-0.090074 -0.0279891 0.104701 
0.0410951 -0.0133823 0.567902 
-7.69384e-18 -2.56461e-19 1 

-0.133978 0.0535121 -0.0949097 
0.00328636 0.0267458 0.0779909 
1.33353e-18 9.40031e-19 1 

-0.750888 -0.04322 3.56656 
0.976458 0.465919 -0.159624 
-2.68709e-17 1.68512e-17 1 

-1.76004 -0.991374 -20.2657 
-0.233862 1.62833 9.5908 
-3.37966e-18 -1.70865e-18 1 

-1.16474 1.52359 3.56956 
0.172709 0.286083 -0.409737 
2.1828e-18 -2.66029e-18 1 

-0.437653 -0.258267 0.595122 
0.143062 0.0638283 1.6579 
2.4444e-18 6.24353e-18 1 

-0.150604 0.0241024 -0.786126 
-0.073267 0.0240717 -0.213289 
-2.98114e-18 3.71162e-18 1 

-0.558902 0.0423893 0.63686 
-0.15228 0.172507 -1.39475 
4.11226e-18 6.98355e-18 1 

-1.55052 0.542899 5.77813 
0.0671438 0.413772 -2.1921 
-1.54308e-17 -1.22039e-17 1 

-2.69898 -1.89266 1.5662 
-1.19846 -0.288167 0.774809 
1.35156e-17 -1.83659e-17 1 

-0.281575 -0.0194784 0.208312 
0.0116746 -0.0323793 -0.129678 
2.4061e-18 -6.37853e-17 1 

-0.135077 -0.0848537 1.7129 
0.215623 0.0697989 1.39955 
5.04438e-19 -8.7613e-18 1 

-0.286253 5.41937 -1.91234 
-1.1579 1.81335 0.476905 
6.78254e-18 -3.62631e-18 1 

0.0125436 -0.594905 0.180036 
0.546671 0.24459 0.435817 
3.51711e-18 -5.86571e-18 1 

-0.96743 -0.570024 -2.9637 
-0.215325 0.203513 1.07026 
-1.91141e-18 2.81359e-17 1 

-1.57424 -0.954791 34.1118 
0.146684 0.694128 -25.7277 
-2.27033e-18 -1.32608e-18 1 

-0.172185 -0.0452753 0.171021 
0.0467051 -0.0142617 -0.0778183 
6.53811e-18 -2.37665e-17 1 

-0.0717581 -0.0753409 -0.103612 
0.0718626 0.00470327 0.292551 
-3.81176e-18 1.65176e-18 1 

-0.0857033 0.600096 -0.240707 
-0.596668 0.127135 -0.138326 
-3.84334e-20 1.45278e-17 1 

-0.253916 -0.550428 0.67295 
0.00421889 0.234659 0.510473 
3.00089e-18 -1.23412e-17 1 

-0.263893 0.119224 -0.330091 
0.150386 0.00491947 -0.229559 
-3.19846e-18 1.80195e-18 1 

-1.30263 -0.112976 -0.179039 
0.172268 0.598497 0.403543 
-9.1318e-18 -2.63598e-18 1 

-1.61224 -0.0469249 -0.379677 