# vtk DataFile Version 3.0
Output file generated by Yade's KinematicLocalisationAnalyser
ASCII
DATASET UNSTRUCTURED_GRID

POINTS 13483 float
682.37 26.6622 -0.422056
900.304 43.1011 -0.449257
133.6 5.91829 -0.446255
954.358 4.19536 0.266528
554.373 7.41042 -0.302148
348.012 34.0747 0.408325
173.632 6.72127 0.398543
636.228 9.89115 0.13087
550.886 21.8642 0.136894
830.964 11.7875 -0.351832
233.243 8.73907 -0.109592
284.233 6.23872 -0.273188
739.227 27.4454 -0.130638
714.109 13.6215 0.0754567
152.19 16.7059 0.356567
245.41 33.7459 0.393829
241.015 12.6766 -0.263009
319.106 9.31584 0.38012
376.653 31.7607 0.0556457
583.547 8.5376 0.337291
454.857 35.6755 0.0998693
663.013 42.1943 -0.251187
949.665 28.1855 -0.442252
799.49 40.0358 -0.433084
508.83 15.6851 0.298104
266.287 43.2734 -0.124977
545.594 26.3843 -0.477941
656.564 18.3777 0.230377
50.1048 15.2304 -0.462699
825.321 29.6532 -0.317919
535.194 4.81363 0.317236
18.5202 22.4446 0.280392
916.502 39.5152 0.253742
549.765 2.49205 0.457549
86.95 42.663 -0.100755
580.049 29.2362 0.250952
590.693 16.3628 -0.405987
380.245 21.9363 -0.183854
594.038 24.7351 -0.322146
388.053 32.2009 -0.385113
266.792 14.4521 0.293909
481.336 34.4128 -0.0640866
771.957 6.72796 0.12269
214.075 6.0789 0.382419
61.4585 6.74178 -0.118522
75.8298 8.75878 -0.271839
791.955 8.21428 -0.465278
26.1665 11.4101 -0.279982
686.813 42.4579 -0.11571
773.879 21.8547 0.331738
191.637 31.4093 0.279037
894.209 31.9847 -0.130171
38.8338 27.3746 -0.11361
594.899 2.93061 0.312587
157.974 7.23897 -0.445903
665.668 32.0976 0.3603
560.67 25.1698 -0.124877
193.827 0.911374 -0.267593
36.3766 2.41389 0.281774
385.569 17.3077 0.268549
699.818 43.0175 -0.131797
513.014 32.4861 0.175022
442.107 1.03187 0.18663
805.183 7.4212 -0.301172
29.4243 41.5622 -0.234947
283.761 29.7275 -0.290822
831.032 7.16586 0.179039
764.457 41.6755 -0.342637
462.723 8.47048 -0.456616
637.19 3.46339 -0.332063
868.248 27.4752 0.362758
145.48 7.41827 0.280793
554.006 24.4976 -0.127681
530.469 14.6175 -0.11388
326.026 16.3851 -0.210514
23.1937 13.3186 -0.253071
923.644 29.8997 0.328614
368.308 37.7653 -0.261587
770.816 18.6848 0.30617
791.604 12.0605 0.226709
935.664 10.5498 -0.180339
516.757 33.4707 -0.16832
102.703 36.9489 -0.259704
784.832 31.8575 0.209374
735.371 35.9772 -0.0984444
958.112 34.2542 -0.104009
926.909 1.24016 -0.470345
322.531 28.1257 0.418037
701.849 6.21595 0.0881115
27.1408 5.21884 -0.381487
147.576 36.9237 -0.142595
571.434 13.9385 0.18048
913.062 22.7277 -0.470151
217.409 27.8607 0.225307
49.5728 33.3714 0.263993
548.552 1.16358 0.0947724
261.822 8.77891 -0.337716
871.483 36.4003 -0.260044
898.58 24.309 0.233569
400.863 20.1075 -0.254024
182.607 26.1748 -0.442869
615.31 36.6475 0.410462
422.077 14.9 -0.431776
459.691 28.8031 -0.0964227
420.062 4.42117 0.407459
612.971 10.6391 -0.0929874
959.921 11.0396 -0.147473
89.4644 37.8004 0.388084
372.33 4.68748 -0.178999
629.066 9.188 -0.310107
399.97 42.5257 0.442146
28.9095 23.9101 -0.348651
34.0094 5.72515 -0.330303
638.491 30.5694 -0.392007
563.989 22.9319 0.149747
29.4563 35.9307 0.407101
103.776 29.4088 -0.210395
361.061 15.474 -0.304211
676.853 18.0023 0.124658
530.119 36.5846 0.298623
852.085 7.43465 -0.342747
842.045 6.12277 -0.198059
430.469 36.0252 0.09433
721.523 23.9062 -0.100518
265.344 16.7299 0.482539
367.04 3.60666 0.465718
115.632 30.4403 0.317166
129.752 23.2222 -0.257177
610.139 37.1753 0.0707805
340.394 18.4199 0.438622
819.217 32.4521 -0.102598
769.396 40.9044 -0.111231
537.04 19.8931 -0.373642
903.582 8.4315 0.282725
478.501 22.4434 0.221451
308.307 23.6244 0.30713
772.059 28.6043 -0.264026
310.485 27.5661 0.317224
649.34 11.3074 0.166362
369.56 34.498 0.185413
565.136 11.142 0.406059
408.79 30.2188 -0.0830128
481.124 16.1056 -0.104437
354.576 40.6713 0.430111
213.052 28.8616 0.119135
906.203 41.0504 0.153396
954.712 11.4916 -0.261268
6.70704 11.7531 -0.474786
485.522 21.7547 -0.405407
42.6863 21.6987 0.0748659
419.666 30.1719 -0.450058
440.996 24.0808 -0.242573
83.6859 11.6895 0.322134
58.1599 32.1852 0.419434
252.559 12.9492 0.428206
701.287 36.7151 0.237891
652.307 19.4262 -0.437926
83.9029 20.3358 0.468226
802.652 43.4203 0.405168
887.808 2.39889 0.40317
755.81 37.8998 -0.452848
799.895 2.31546 0.375499
619.968 25.5481 0.39296
664.691 42.8794 -0.434021
575.965 17.7596 -0.359551
951.062 2.91885 0.23328
250.175 24.1168 0.10955
142.878 33.8698 0.188506
276.511 6.42279 -0.35864
105.953 3.98126 0.233308
71.8208 9.73787 0.187262
308.253 34.8469 0.300588
19.0036 24.1652 -0.337391
626.563 18.6056 -0.384128
686.709 37.4394 0.19348
518.864 20.5044 -0.348144
938.633 34.8488 0.355396
455.3 8.32303 0.0910991
488.67 34.6439 -0.370147
604.36 3.39154 -0.176192
25.8708 23.3487 0.381392
652.336 4.22161 -0.377545
615.196 4.33365 -0.278473
231.284 11.2023 0.466386
476.759 16.0388 0.179481
348.249 6.22986 0.301293
434.514 18.4901 -0.335411
856.921 39.6428 0.100657
215.429 25.0147 0.393729
917.717 6.77775 -0.30873
855.887 35.913 0.323535
429.422 9.86606 -0.196205
827.499 2.36056 -0.381119
686.816 24.146 0.381589
861.304 17.4169 -0.391629
483.254 41.2255 -0.262793
558.535 12.0474 0.321105
522.694 42.7003 -0.0628764
500.076 8.47779 0.148763
759.662 37.0233 -0.262055
757.239 33.6161 0.303649
215.571 37.8382 -0.33458
933.27 10.423 -0.110395
667.233 43.2992 0.241748
12.6232 16.611 0.179586
456.889 24.7057 0.333303
210.215 22.373 0.391562
104.416 37.826 0.0636689
910.707 20.2207 0.411051
752.007 41.3337 0.22547
357.319 24.7625 0.364639
600.807 9.98139 0.321388
92.4717 42.6638 0.128107
277.574 25.4357 -0.465213
629.519 22.5368 0.362646
547.263 17.7948 0.416415
294.55 0.88851 -0.34092
625.62 38.4331 -0.345534
602.863 39.5186 -0.384595
542.361 31.8854 0.383606
561.951 0.758409 -0.46843
812.095 17.4641 -0.332156
201.89 11.5428 -0.163878
563.647 34.4242 0.419293
639.522 37.4099 0.109805
81.4603 0.950975 0.273018
282.286 4.65083 0.165262
953.966 13.3572 0.18425
936.012 12.5174 -0.348995
962.262 15.3889 -0.451387
340.103 8.37262 -0.228844
869.199 21.0699 0.386596
457.243 39.9255 -0.309069
504.604 0.806987 -0.403037
743.268 32.909 0.421005
30.7387 29.7729 -0.293189
370.612 40.0181 0.445317
283.199 2.79874 0.298145
919.754 36.7506 -0.190666
823.94 44.3416 -0.217428
322.174 10.601 0.155691
764.701 27.1652 -0.0793147
630.756 2.6437 0.221758
612.839 6.34274 0.412109
108.928 17.4856 -0.444012
339.882 1.03071 -0.216906
385.301 2.2629 -0.362105
15.6882 7.60064 -0.229799
4.87302 29.8042 0.234497
182.279 18.5572 -0.347141
76.8552 40.5267 -0.214489
75.2119 27.8356 -0.314561
476.134 14.3485 -0.35861
412.212 33.8044 -0.458851
891.901 33.8535 0.113902
22.1032 3.84159 0.293753
79.1264 6.74253 0.135804
713.072 35.9555 -0.137349
330.788 0.930958 0.316921
409.456 15.6503 -0.0918451
264.848 4.55367 -0.387159
748.292 20.2401 0.173654
508.042 8.17314 0.390788
872.506 19.0549 -0.345471
720.702 27.2469 0.294923
769.809 16.8233 0.0766475
472.437 25.6666 0.452992
114.887 43.1138 0.302611
614.216 40.469 0.066971
858.121 12.9289 -0.173324
267.083 29.496 -0.239229
36.4584 16.543 0.165958
377.426 13.4955 0.46824
121.469 39.0939 -0.341788
300.472 41.1276 -0.186398
478.446 1.0478 0.193685
920.117 26.8563 -0.397892
791.631 0.800877 -0.456775
372.957 2.97706 0.44094
336.743 25.864 0.138284
521.482 39.4954 0.196709
91.5748 7.73878 -0.453419
222.866 43.4918 0.378033
901.556 26.5485 0.358841
558.321 37.2347 -0.073273
225.055 40.4135 -0.245503
181.004 40.7843 -0.389487
961.98 30.3093 -0.382867
958.009 10.9925 -0.431761
690.296 3.3661 -0.437343
214.02 23.7833 -0.0937284
622.104 26.5426 0.110543
624.205 26.2475 0.171484
460.222 5.50825 -0.138105
542.947 0.936409 -0.280288
889.542 35.8264 -0.465613
95.9598 29.6456 0.216397
754.378 17.4458 0.416742
308.339 15.2741 -0.328849
11.2795 2.28398 0.331763
141.425 35.5276 0.189532
75.6468 22.2108 0.431662
811.363 34.3607 0.295715
927.021 40.4557 -0.158855
209.133 27.3721 0.176601
948.823 11.2117 -0.287891
50.7697 35.2464 -0.243532
102.621 27.781 -0.147389
725.128 12.5079 0.350946
465.329 17.8215 -0.443926
587.222 16.2578 0.104886
267.694 27.6003 0.180287
709.648 4.45236 -0.41377
963.205 10.5839 0.301008
33.7939 30.7787 -0.269883
303.607 7.66595 0.188215
250.139 14.6748 0.245595
1.19559 34.3102 0.145804
253.647 14.1507 0.35311
238.293 10.8245 0.110615
241.448 25.5677 -0.277936
149.957 27.0375 -0.143263
620.253 14.525 -0.318181
188.623 13.8407 0.335141
913.794 38.2414 -0.214636
196.268 3.78589 0.444993
53.5379 36.4928 0.342227
864.435 45.3441 -0.42645
315.641 30.8032 -0.379997
780.651 21.7444 0.412935
931.891 26.6274 -0.504114
338.111 9.02688 0.0973578
853.825 27.8873 -0.333429
369.541 2.67137 -0.336992
468.674 23.3044 -0.36688
777.027 15.3636 -0.419809
119.292 11.5924 -0.357673
544.712 3.96995 -0.451321
876.487 16.8751 -0.195035
99.5208 7.50398 0.178854
316.607 14.3477 0.195635
476.997 11.436 -0.197149
949.241 2.51097 0.349664
447.657 1.7664 -0.416422
199.655 37.6709 -0.269665
861.018 10.3562 -0.275107
144.831 35.0135 0.183115
295.783 30.6253 -0.381478
450.911 21.0936 0.209764
652.154 12.9936 -0.317152
436.008 9.93201 -0.388972
514.756 26.7626 -0.276189
901.614 43.0348 0.363285
53.6706 10.6956 -0.0896892
336.458 37.1805 -0.25409
427.17 26.1423 -0.312149
461.187 20.4678 0.249582
590.472 42.8814 0.356849
881.619 33.9534 0.206954
763.631 32.7727 -0.354435
254.115 33.154 -0.387046
15.8342 30.183 0.149702
755.364 34.3569 -0.127368
575.473 39.7713 -0.429799
258.526 37.966 -0.0919646
789.073 29.0908 -0.112316
170.712 9.02171 0.188382
412.889 20.4936 0.25923
523.277 40.6001 0.0987406
466.59 19.1044 0.18266
896.804 45.3591 -0.290916
479.89 3.32645 0.406501
56.6254 24.3813 -0.283265
530.667 30.3543 0.346722
490.191 40.3783 0.349272
917.12 32.3842 -0.219537
850.792 26.9218 -0.237028
613.086 17.8215 -0.156641
906.372 34.1571 0.403809
329.828 2.04359 -0.436262
425.951 28.1116 0.229748
32.8437 37.5646 -0.295545
857.129 28.5668 0.139953
696.137 18.9522 -0.476778
522.597 0.79614 -0.457581
142.819 4.38315 0.291038
481.392 38.603 -0.105553
13.9267 0.902199 -0.313315
947.914 5.2399 0.108006
[...]
POINT_DATA 13483
TENSORS Strain_matrix float
-0.0348975 -0.00665815 -0.446411 
0.01695 -0.0508025 0.476273 
-6.0137e-18 -7.95145e-19 1 

-0.0666295 -0.0651944 1.42515 
0.0115123 -0.00777115 1.14829 
2.73974e-18 5.1611e-18 1 

-0.0103489 -0.00853851 1.41047 
0.00328835 -0.087619 0.0116485 
7.70986e-19 1.71121e-18 1 

-0.133938 0.0020877 -0.147878 
-0.0231863 0.000868472 -0.0735361 
2.84062e-18 -1.43925e-17 1 

-0.0282376 -0.00662422 -0.0167115 
0.0349505 -0.0964821 -0.00518198 
-1.44601e-18 6.02505e-18 1 

-0.0203569 -0.000536146 0.0128286 
0.017325 -0.0591367 -0.0530286 
5.12159e-18 2.53544e-18 1 

-0.0229759 -0.0274072 0.0514078 
0.011567 -0.0881881 0.141118 
7.02876e-18 6.17059e-18 1 

-0.0334683 0.0142451 -0.0751048 
-0.00629322 -0.0688077 -0.0586003 
1.83831e-18 -8.48452e-19 1 

-0.00861964 0.0497316 -0.122707 
0.0750599 -0.0536639 -0.202441 
0 -2.70608e-18 1 

-0.0994608 0.0197508 -0.0226192 
0.0110608 -0.0296398 -0.1278 
6.81313e-20 -1.70328e-18 1 

-0.0153111 0.0107943 -0.147488 
-0.00912391 -0.072784 -0.0533891 
-1.80691e-18 6.3242e-18 1 

-0.0267654 -0.0299489 0.0894547 
-0.0661315 -0.0985802 0.056001 
-1.33113e-17 -6.32616e-18 1 

-0.0218312 0.0338843 0.0775067 
-0.00549918 -0.0701456 -0.112989 
2.42663e-18 2.60946e-18 1 

-0.0860228 0.0222163 -0.249157 
-0.00818143 -0.0536035 0.170653 
3.54508e-19 3.16331e-18 1 

-0.0420923 -0.0127858 0.0452187 
0.0235016 -0.0806233 0.0705908 
2.78314e-18 -4.40684e-18 1 

0.00153204 -0.0338575 -0.0877452 
-0.00100727 -0.049618 -0.234411 
7.09857e-18 -5.85502e-18 1 

0.00850486 -0.0293653 0.0648298 
-0.0148824 -0.135577 -0.101266 
-2.82744e-19 -8.01965e-18 1 

-0.0507049 0.012892 -0.000231007 
0.0226435 -0.101058 -0.0597091 
1.12766e-17 8.56092e-18 1 

-0.049406 -0.0575716 -0.137769 
-0.0531879 -0.038972 0.14374 
1.76123e-18 2.71733e-18 1 

-0.0271086 0.0263607 0.194605 
-0.0572683 -0.0909003 -0.141349 
6.32937e-18 5.49342e-18 1 

-0.0197683 0.00692999 -0.0489399 
0.0201232 -0.039553 -0.0105815 
-3.92051e-19 4.41058e-19 1 

-0.0679288 -0.0495009 0.0893053 
0.0521293 0.011747 -0.00721517 
-1.71679e-18 8.90585e-18 1 

-0.109595 0.00655056 0.324729 
-0.0153296 -0.011822 -0.00358007 
6.23426e-18 -4.06225e-18 1 

-0.0404968 -0.0125551 1.87819 
0.00313872 -0.0342434 0.175444 
1.23127e-17 -5.89982e-18 1 

-0.0173799 -0.0124985 -0.165521 
0.0797937 -0.0650592 0.0874562 
-2.38304e-18 1.24767e-18 1 

0.0129926 0.0157203 -0.00383344 
-0.0747346 -0.0207813 0.0346733 
-1.18815e-18 2.70445e-17 1 

-0.0334316 -0.000198207 0.468053 
-0.00869884 -0.0567536 -2.74749 
1.18154e-18 -1.91335e-18 1 

-0.0341174 -0.00360515 -0.0844869 
-0.0193653 -0.065548 0.0274865 
-1.68815e-17 1.47527e-18 1 

-0.0271443 0.033484 1.52611 
0.0395889 -0.111323 -0.988997 
-5.23379e-18 -6.69812e-18 1 

-0.123843 -0.00224315 0.0825016 
-0.00274047 0.000664993 0.0113798 
2.65355e-19 1.11184e-17 1 

-0.0367002 -0.0405533 -0.0209895 
0.0115434 -0.161252 0.391887 
6.5509e-18 -6.08957e-18 1 

0.0320699 0.0620796 -0.0857562 
0.0764309 -0.134116 0.0439495 
7.42016e-18 -8.13536e-18 1 

-0.089374 0.0110683 -0.331215 
-0.0037855 -0.00713685 -0.2001 
1.0937e-17 9.3538e-18 1 

-0.0098506 0.00394988 -0.164055 
-0.0133859 -0.000442131 -0.418347 
-4.47187e-18 -2.83995e-17 1 

-0.044453 0.0109061 0.0126531 
-0.031778 -0.0686571 0.0375066 
-8.10486e-18 -7.87417e-18 1 

-0.0303473 -0.035645 0.0104384 
0.0210174 -0.0561062 0.184929 
6.96604e-18 -2.50522e-18 1 

-0.0299896 0.0063258 0.35278 
-0.0092646 -0.0645115 0.164187 
8.76805e-19 8.55626e-19 1 

0.0211194 0.0266032 0.0233955 
-0.0155419 -0.168979 0.110479 
-3.76017e-18 4.83808e-18 1 

-0.0278575 -0.0332343 -0.000501507 
0.0471982 -0.0598706 0.0984174 
5.91831e-18 -2.81362e-18 1 

-0.00751419 0.00112399 0.765112 
0.00557347 -0.0677769 -1.31574 
2.39297e-18 -1.35817e-18 1 

-0.0139623 0.0281794 -0.0618495 
-0.0395161 -0.0944924 -0.212275 
-2.18879e-17 -2.09937e-18 1 

0.0209955 -0.0286571 -0.116412 
-0.0368666 -0.0568412 0.0754642 
6.35822e-18 -1.64589e-17 1 

-0.059126 -0.0308476 0.0709007 
0.0156967 -0.0717653 -0.0472206 
-2.84228e-18 6.4816e-18 1 

-0.0147929 -0.0386447 0.155327 
0.00744741 -0.104936 -0.0931181 
7.33638e-18 -9.39625e-18 1 

-0.00869777 0.00305215 -0.0133736 
-0.000449873 -0.114341 0.136242 
-6.51788e-18 4.80154e-18 1 

-0.00404984 -0.00906124 -0.0548367 
0.00574391 -0.102304 0.0923981 
4.63576e-18 -4.01469e-18 1 

-0.0493493 0.0210709 -0.807486 
-0.00866718 -0.103238 -0.813328 
8.06498e-18 -9.33138e-19 1 

-0.0242511 0.0119721 0.021717 
-0.0261143 -0.0933391 -0.00923643 
2.99301e-18 1.93097e-18 1 

-0.06208 0.000924868 -0.0434836 
0.00128201 -0.0257844 -0.0486046 
-4.84098e-18 -2.10477e-19 1 

-0.0502598 0.0178595 0.408839 
0.0134098 -0.0516792 -0.741259 
-1.77491e-18 7.55474e-18 1 

-0.0271523 0.0187861 -0.0411377 
-0.0286401 -0.0416474 -0.0100678 
0 5.52557e-19 1 

-0.0521708 -0.0364862 0.0884637 
0.0223655 -0.0385031 -0.135785 
-1.28439e-18 -1.05528e-17 1 

-0.0108379 -0.0067353 -0.0747252 
0.0182366 -0.0374428 0.13221 
1.18161e-18 -3.04203e-18 1 

-0.0405005 0.0137577 0.0143095 
0.0105768 -0.0678585 -0.162085 
-1.64693e-18 -3.33504e-18 1 

-0.021577 -0.0133087 0.267733 
0.0169497 -0.106189 -0.924256 
6.65799e-18 -6.48769e-20 1 

-0.0325485 0.00716041 -0.204638 
0.00399776 -0.0472403 -0.153796 
4.37452e-18 -3.42201e-18 1 

-0.03714 -0.0402426 0.0382275 
0.0164653 -0.063963 -0.134536 
4.02456e-18 -1.85749e-18 1 

-0.0107951 0.0654086 0.104858 
-0.0251103 -0.170876 -0.0348564 
9.5089e-18 4.26051e-17 1 

-0.00652826 0.0076089 -0.0708362 
-0.0197383 -0.142522 0.106443 
-1.20884e-17 4.18458e-18 1 

-0.0198054 0.0189075 0.288264 
-0.0390791 -0.102485 0.087346 
5.75486e-18 7.45969e-19 1 

-0.0454704 0.0628987 -0.0309298 
0.00809899 -0.0276606 0.136884 
-2.93105e-18 -2.4975e-17 1 

-0.0316415 -0.0166509 0.10622 
0.0388604 -0.0244114 0.242289 
2.81434e-18 -7.1155e-18 1 

-0.028789 0.00662738 -0.0663576 
0.00169211 0.00928858 0.0487113 
1.01921e-17 8.70164e-17 1 

-0.0505561 -0.0360848 -0.0549802 
0.0229002 -0.0636344 -0.0550195 
3.42637e-18 9.5658e-18 1 

0.0076965 0.0513402 0.423984 
0.0193441 -0.0910739 0.269687 
4.23525e-18 3.43399e-17 1 

-0.0627631 -0.0155109 -0.0327171 
0.00775028 -0.0719241 -0.00559777 
-2.57511e-18 -4.75835e-18 1 

-0.0821063 0.0330885 0.00950004 
0.0425525 -0.073311 0.0412395 
-6.31913e-18 4.7265e-18 1 

-0.0324258 0.0372644 0.0611669 
-0.0511005 0.0190614 0.0110736 
7.98569e-19 3.00638e-18 1 

-0.0361254 0.00533416 0.362292 
-0.0377327 -0.0983992 0.0599083 
6.64308e-18 3.61528e-18 1 

-0.0609556 -0.0236561 0.0936307 
-0.00594518 -0.109644 0.087936 
2.44843e-20 -1.42009e-17 1 

-0.100798 0.00799092 0.118242 
-0.0674662 -0.0384221 0.0972191 
-1.27484e-17 -1.34394e-17 1 

-0.00596421 0.00588986 0.0252139 
6.01437e-05 -0.0970902 0.0680538 
7.60271e-18 6.69295e-18 1 

-0.0248575 -0.0110807 0.0786894 
-0.0162159 -0.0946349 0.169968 
1.31028e-18 -4.05929e-18 1 

-0.0211055 -0.0132468 0.00329694 
-0.00859949 -0.0749036 -0.0914124 
1.4419e-18 1.39161e-18 1 

-0.0298098 -0.0171872 0.0156205 
-0.00681702 -0.0564266 -0.0659507 
4.13155e-18 4.38725e-18 1 

-0.0111696 -0.0326999 -0.0113229 
-0.00627838 -0.117845 -0.0595244 
3.64776e-18 0 1 

-0.101388 0.004156 0.0693551 
0.0380022 -0.0225967 0.409027 
-6.06879e-18 -1.30135e-18 1 

-0.0379799 0.0257733 -0.148301 
-0.0471007 -0.0640584 0.0703489 
-1.87985e-18 -2.34981e-18 1 

-0.0429639 0.0120712 0.253876 
0.0694133 -0.0913918 -0.0649973 
9.11643e-18 -1.6443e-18 1 

-0.0434018 0.0264249 -0.0920168 
-0.00416168 -0.0487638 0.0125638 
4.62621e-18 -1.42175e-17 1 

-0.0962016 0.0312851 -0.0862063 
-0.0160954 -0.067628 0.188009 
-2.12804e-18 -2.09092e-18 1 

-0.0114424 -0.00854259 0.0813268 
0.0105548 -0.027573 0.0492032 
-2.3507e-18 7.89714e-18 1 

-0.00720049 0.0133509 0.0181596 
-0.021826 -0.0381246 -0.0167697 
4.73703e-19 4.57462e-18 1 

-0.0487953 -0.014803 0.0334108 
-0.0381413 -0.0615254 0.124696 
-1.00613e-17 2.34438e-18 1 

-0.0361817 -0.024926 0.17853 
-0.0181815 -0.0468677 0.149801 
1.85451e-18 -4.40053e-19 1 

-0.0438644 0.000770531 -0.0052279 
-0.0285012 -0.0221303 0.112489 
1.17722e-17 1.11058e-19 1 

-0.0973107 0.0127554 -0.835487 
0.00868246 -0.0625698 0.470077 
-3.61603e-18 -1.66691e-18 1 

-0.0292165 0.0119552 0.351278 
0.0447308 -0.0850035 -0.124313 
-3.58656e-18 3.66287e-18 1 

-0.0462119 -0.0126436 0.0314006 
0.0483583 -0.0756755 -0.0988355 
1.0718e-17 3.43464e-18 1 

-0.0279735 -0.00571713 0.0392075 
0.0126965 -0.0994337 -0.161341 
1.52621e-18 -5.31072e-18 1 

-0.0439865 -0.0277094 -0.0178064 
0.00115325 -0.061774 0.0811568 
-9.28988e-20 -2.78697e-18 1 

-0.0129584 0.013063 0.0517005 
0.0148233 -0.0849035 -0.0575792 
6.21156e-18 -1.49466e-17 1 

-0.121281 -0.0140124 0.259324 
-0.01278 0.00249287 -0.9553 
9.38127e-19 3.4398e-18 1 

-0.018105 -0.00481384 -0.0783117 
0.000988395 -0.0489175 0.140426 
5.88175e-20 -2.23768e-18 1 

-0.0213311 0.00628562 0.0389935 
0.00687143 -0.0319538 -0.0678817 
1.92026e-18 4.43849e-18 1 

-0.0237879 -0.0255215 0.122016 
-0.0199744 0.0108512 -0.293854 
-1.46056e-18 3.33044e-17 1 

-0.0367902 0.00471645 -0.0137695 
-0.0137907 -0.0656254 0.00246591 
-1.45717e-18 -3.85953e-18 1 

-0.0620583 -0.00897948 -0.0248249 
-0.0151821 -0.0473726 0.0261085 
-8.70721e-18 -2.03126e-18 1 

-0.0889296 0.0113877 -0.0221489 
-0.0210675 -0.0146196 -0.0753422 
-5.75687e-19 4.50475e-18 1 

-0.00629258 0.0287528 0.135279 
-0.0460378 -0.0798728 -0.0444648 
1.03444e-17 3.74983e-18 1 

-0.0132049 -0.00724888 -1.58724 
0.00133974 -0.056163 1.03894 
-7.82117e-18 -6.16272e-19 1 

-0.0303495 -0.0112653 -0.711239 
0.00306953 -0.0450447 0.34582 
3.69605e-18 -8.41053e-18 1 

-0.0078538 0.00668397 -0.445853 
0.0303405 -0.111217 0.423253 
9.44362e-18 8.89617e-18 1 

-0.0221615 0.00621994 -0.0425332 
-0.0439542 -0.0490026 -0.0318226 
3.2351e-18 6.65262e-19 1 

-0.0192458 -0.0156464 0.0566178 
0.0196586 -0.0995058 -0.155547 
-1.53706e-18 6.7206e-18 1 

-0.0275452 0.0130391 0.226778 
0.0349294 -0.08639 0.0472274 
-1.95124e-17 -3.45195e-18 1 

-0.0692407 0.0234168 0.0331682 
-0.0146174 -0.0487119 0.0117115 
-1.0946e-17 1.27526e-18 1 

0.00650761 0.00530972 -0.0741972 
-0.0291222 -0.0565129 -0.0854699 
6.11365e-18 1.2296e-17 1 

-0.0308981 -0.0198728 -0.0544691 
0.00525189 -0.0960942 0.0797885 
-6.08363e-19 -1.31812e-17 1 

-0.0456489 0.0213074 0.212823 
0.0298789 -0.0913426 -0.3632 
7.74907e-18 1.43463e-17 1 

-0.024637 -0.00359817 -0.258852 
0.0219338 -0.0524599 2.31048 
-1.86937e-18 -6.68246e-18 1 

-0.0192759 0.0176873 0.0619461 
0.0294643 -0.0666989 -0.0858653 
1.12969e-17 -5.83827e-18 1 

-0.00592465 -0.00192576 -0.0512618 
-0.0133436 -0.0869807 0.0891587 
-1.05967e-17 7.41027e-19 1 

-0.0115887 -0.00679959 -0.361086 
0.0182684 -0.0459213 0.374245 
3.98059e-18 -3.97615e-18 1 

-0.0474137 0.000661551 -0.0891821 
0.0175505 -0.0211349 -0.0905137 
3.95464e-18 1.63823e-18 1 

-0.0115047 0.000163714 -0.481791 
-0.012783 -0.0490815 0.326384 
4.81625e-18 -1.87659e-18 1 

-0.0145878 -0.0167803 -0.0432706 
0.0310193 -0.0548657 -0.029902 
4.67249e-18 -8.76092e-18 1 

-0.0268266 -0.000205054 -0.0543239 
0.0500716 -0.0680342 -0.0936546 
2.82294e-18 1.00086e-17 1 

-0.0364685 0.0210548 0.0104647 
-0.108704 -0.0877646 0.125513 
-1.37785e-17 5.97476e-18 1 

-0.0475254 0.0176205 0.006561 
-0.0212051 -0.0160731 -0.105287 
-9.35554e-19 -1.67244e-18 1 

-0.0700665 0.00748643 -0.0448252 
0.0107754 -0.107001 -0.149246 
5.09687e-18 6.39669e-18 1 

-0.072687 0.0292154 0.0240117 
-0.0442838 -0.0582206 0.113829 
-8.30054e-18 -1.0323e-18 1 

-0.0248139 0.0156281 0.00635865 
-0.0183343 -0.0205711 -0.0662713 
-2.80977e-18 9.79015e-19 1 

-0.047445 0.00715643 -0.00103308 
-0.0195004 -0.0535863 0.127603 
-5.29232e-18 -1.11876e-17 1 

-0.0171336 -0.00584705 -0.117599 
0.00331529 -0.0832406 -2.73158 
-1.56798e-18 -4.06929e-18 1 

-0.0258572 -0.00702016 0.00309849 
-0.0106923 -0.13013 0.407927 
3.04675e-18 -3.28331e-18 1 

-0.0435643 -0.021015 -0.0341039 
-0.00102259 -0.0436807 0.0389615 
2.9362e-18 3.77374e-18 1 

-0.0506592 0.00538147 -0.217208 
-0.0362403 -0.076644 -0.562223 
-6.55597e-18 -1.14065e-17 1 

-0.0262264 0.0096768 -0.038785 
-0.036205 -0.0406918 -0.153424 
-4.45114e-18 2.00301e-18 1 

-0.0192435 -0.00963443 0.103377 
-0.00951117 -0.0793664 0.447973 
4.24651e-18 -2.64374e-18 1 

-0.0402384 -0.0200979 0.106933 
0.0229638 -0.0190331 -0.0835909 
5.50655e-18 9.86983e-18 1 

-0.081984 0.0209367 -0.166622 
0.00862382 0.00974181 0.117121 
-5.41147e-18 1.08229e-18 1 

-0.0239884 0.017913 0.071968 
-0.0084268 -0.0559463 0.452515 
-2.15546e-18 7.48323e-18 1 

-0.109151 0.0246067 0.02574 
0.0041537 -0.048729 -0.0199469 
5.78759e-18 -1.8603e-18 1 

-0.0248225 -0.00680124 0.0639313 
-0.0293354 -0.0431399 -0.0833099 
-9.82822e-18 1.89004e-18 1 

-0.0145393 0.0138153 -0.196833 
-0.0349439 -0.04428 -0.226805 
-2.51768e-18 5.82213e-18 1 

-0.0534266 -0.00769796 0.0442985 
0.0503524 -0.0231152 0.1765 
-8.80505e-19 -4.33872e-19 1 

-0.0240469 -0.0148703 -0.404378 
0.0358755 -0.0639918 -0.559415 
-9.46042e-19 5.36265e-18 1 

-0.0325133 -0.0025668 -0.0157273 
0.0189886 -0.0759848 0.086551 
-3.11539e-18 -3.00169e-18 1 

-0.0300279 0.0018022 0.00596365 
-0.075456 -0.0437574 -0.129186 
4.73608e-18 -5.99504e-18 1 

-0.0283539 -0.0182741 -0.0163793 
0.000378066 -0.0645935 -0.0305864 
-1.21097e-17 6.09772e-18 1 

-0.0203705 -0.0174791 -0.0329917 
0.00860762 -0.0544611 0.0147555 
1.59273e-18 1.63652e-18 1 

-0.0105459 -0.00388821 -0.0448486 
-0.00839333 -0.0566301 -0.0971934 
1.24302e-17 5.59358e-18 1 

-0.00949236 0.0149494 -0.261762 
-0.00688628 -0.0524519 -1.08884 
2.23804e-18 -2.59545e-19 1 

-0.00638858 0.0286276 0.050886 
-0.00995815 -0.0528309 -0.0184427 
-4.73071e-18 -7.4328e-18 1 

-0.0421084 -0.0327987 -0.1203 
-0.00513909 0.000830208 -0.105526 
1.01187e-18 1.50149e-18 1 

-0.0849156 0.00962096 0.0118999 
0.00289269 -0.0630252 0.026202 
-6.25815e-18 -4.09187e-19 1 

-0.0113806 -0.0062286 0.507844 
0.0211113 -0.119754 -0.520375 
-9.12125e-18 8.95186e-18 1 

-0.0287815 -0.0234362 0.0529984 
0.0274474 -0.0810395 0.168613 
-5.45426e-19 6.2118e-18 1 

0.0611135 -0.00784478 -0.193248 
0.0273963 -0.134387 0.310642 
1.40936e-18 -8.59037e-19 1 

-0.0181707 -0.0106921 0.193854 
0.0164886 -0.0541021 0.0352307 
-5.33607e-19 -4.16189e-18 1 

-0.00131267 0.019901 -0.232379 
-0.0647283 -0.0398674 0.11473 
-1.9779e-18 1.80337e-18 1 

-0.0277028 0.0147067 -0.00156943 
-0.00160211 -0.0737651 0.0542085 
-3.87598e-18 -2.42738e-18 1 

-0.00982178 -0.00551709 0.320426 
0.0075679 -0.0639512 0.17184 
3.73481e-19 -5.05298e-19 1 

-0.0387526 -0.00781666 0.386765 
-0.0206338 -0.0673427 -0.0962122 
3.27315e-18 -7.13736e-19 1 

-0.0850493 -0.0272128 0.0686719 
-0.0242953 -0.00596173 0.075235 
1.87738e-19 -5.58521e-18 1 

-0.0349116 0.0029851 -0.291698 
0.00691225 -0.0536072 0.0623397 
-4.60091e-18 1.41567e-18 1 

-0.0187334 -0.00533796 0.326388 
2.46615e-05 -0.0689545 1.65964 
-4.60919e-18 4.83403e-18 1 

-0.0380634 -0.0307028 0.247156 
0.0100746 -0.00396642 0.364253 
-2.95963e-18 -2.00461e-17 1 

-0.0911961 0.0272337 -0.204934 
0.0272583 -0.114835 0.116245 
-2.99798e-19 -4.98864e-18 1 

-0.0480548 -0.0149975 1.11028 
-0.00476608 -0.0478688 0.198505 
2.20553e-18 -3.75667e-18 1 

-0.0350136 -0.0161128 -0.0838809 
-0.00902743 -0.101732 0.001369 
8.39899e-18 1.49159e-17 1 

-0.0431827 -0.00418267 0.0719808 
-0.00379207 -0.0509787 -0.153763 
-5.72655e-18 5.88237e-18 1 

-0.0369546 0.00400387 -0.497344 
0.0101103 -0.0506426 0.180249 
5.77066e-19 -2.85877e-18 1 

-0.0178867 -0.0150192 0.0925578 
0.060312 -0.104685 0.321156 
-4.71609e-18 -1.56021e-18 1 

-0.128496 0.0607348 -0.0379349 
0.0149545 -0.0880486 0.147601 
-5.22744e-18 3.17885e-18 1 

-0.00386403 0.0187708 0.015218 
0.0209638 -0.0877607 0.019297 
-2.56532e-18 -2.13777e-18 1 

-0.0432504 -0.00552449 -0.0816619 
0.00273109 -0.0356276 0.164534 
7.47015e-19 -5.15747e-18 1 

0.00863325 -0.0628907 -0.137884 
0.000753822 -0.130155 0.132616 
3.89783e-18 -5.0115e-19 1 

-0.0174127 0.00134939 -0.0284298 
-0.0201707 -0.134925 -0.412753 
4.673e-18 2.42045e-18 1 

-0.0172629 0.00235484 -0.0311069 
0.0163858 -0.0734125 -0.0104861 
8.53981e-18 -6.88819e-18 1 

-0.0163555 0.00710777 -0.0323141 
-0.000113764 -0.0525776 0.147335 
6.70699e-18 1.60831e-19 1 

0.00431014 0.0264193 -0.170722 
0.0259805 -0.0984664 -0.0365414 
-2.63839e-19 -1.34355e-17 1 

-0.0542091 -0.00936281 -0.302238 
-0.00492657 -0.0404096 0.234962 
-1.09329e-17 -1.30367e-17 1 

-0.0442467 0.00504896 0.0625439 
-6.86999e-05 -0.0269202 -0.0399068 
-6.15418e-19 3.02191e-18 1 

-0.0684586 0.0135631 -0.117039 
-0.0234325 -0.0729368 0.0890549 
-5.70892e-18 8.83099e-18 1 

-0.109438 0.0500369 0.214475 
0.0343671 -0.0155205 0.0922179 
7.3092e-18 -3.67095e-18 1 

-0.0311955 0.00760074 0.0170861 
0.0142559 -0.067606 -0.127449 
1.27695e-18 -7.41186e-18 1 

-0.0332201 -0.0180428 -0.0112377 
0.0094042 -0.0327564 -0.113245 
-7.56088e-19 -1.13153e-17 1 

-0.02628 0.0355603 0.0308592 
-0.0290035 -0.102889 -0.0319596 
-7.07581e-19 -8.84477e-18 1 

-0.0400552 0.000722464 0.0161021 
-0.0770967 -0.0519608 0.191805 
-5.78058e-18 -3.83406e-18 1 

-0.0412938 -0.0291597 -0.0508779 
0.0377373 -0.111726 0.0281385 
3.38921e-18 -7.61443e-18 1 

-0.0209685 0.00269589 -0.0861171 
-0.0383088 -0.0740065 0.0487072 
-2.00146e-17 -9.46019e-18 1 

-0.0349008 -0.000140058 -1.24652 
0.020548 -0.081389 -0.335596 
1.2581e-18 1.83692e-18 1 

-0.0381927 -0.01118 -0.0163892 
0.0545739 -0.0502625 -0.147374 
-1.37863e-17 1.90984e-18 1 

-0.0390687 0.0108234 0.00664943 
-0.0750128 -0.0746113 0.137998 
4.52487e-19 1.58371e-18 1 

-0.0302521 -0.0199229 0.127968 
-0.0227852 -0.0742967 0.279021 
1.05748e-18 4.3203e-18 1 

-0.0678303 -0.0481625 -0.10002 
0.03172 -0.0226392 0.0307099 
3.8602e-19 -6.01161e-18 1 

-0.00217233 0.0074221 0.0331784 
-0.00114069 -0.081203 0.0878546 
-1.33419e-18 -4.30251e-18 1 

-0.0488589 0.0641431 0.144382 
-0.031158 -0.0619087 -0.00823357 
-1.05394e-17 1.02844e-17 1 

-0.0512219 -0.0423107 0.0683979 
0.0404635 -0.0229654 0.0212519 
3.61627e-19 8.24173e-18 1 

-0.01927 -0.0292903 -0.129461 
-0.0208843 -0.0850276 -0.0367376 
8.70745e-18 7.28412e-18 1 

-0.0675494 -8.51201e-05 -5.7333e-05 
-0.0133675 -0.0668405 0.299183 
-2.15786e-18 -3.6749e-17 1 

-0.0481407 0.00441216 0.122543 
0.00731931 -0.0377327 -0.182219 
-5.25287e-18 3.19431e-18 1 

-0.0802851 0.0570015 0.0334993 
-0.0163319 -0.0783517 0.0324316 
4.40294e-18 -4.49662e-18 1 

-0.0219252 0.00811636 0.270979 
-0.00940211 -0.012594 -0.317288 
7.19606e-18 -9.79464e-18 1 

-0.021562 -0.0140752 -0.0760594 
0.0294523 -0.107996 -0.07394 
-3.19355e-18 4.10778e-18 1 

-0.021601 0.0411597 0.122028 
-0.0195344 0.122921 -0.299643 
8.87306e-18 -3.69867e-17 1 

-0.0166386 -0.0176195 -0.00384322 
-0.0352657 -0.10065 0.20966 
4.72713e-18 1.24836e-18 1 

-0.03363 -0.007729 0.162359 
0.00593582 -0.0333824 -0.0935131 
-9.39597e-18 1.7902e-18 1 

-0.0399202 -0.0134759 0.00855633 
-0.0204117 -0.0756601 -0.118345 
4.73132e-18 -3.90233e-18 1 

-0.026062 -0.0208934 0.0333058 
0.0366979 -0.0471755 -0.12176 
-2.19721e-18 2.19721e-18 1 

-0.0982876 -0.00203937 -0.00929533 
-0.00504789 -0.0384515 0.16612 
1.46999e-18 8.02755e-18 1 

-0.0447089 -0.029295 -0.0103573 
0.000965376 -0.043621 -0.850501 
-9.70673e-20 -4.07683e-18 1 

-0.0145261 -0.0200954 0.0489958 
0.0104326 -0.0914484 -0.0395332 
-2.71396e-18 -2.23593e-18 1 

-0.0160019 -0.00868354 -0.183978 
0.015925 -0.0565928 -0.218625 
-1.07916e-18 1.3614e-18 1 

-0.0195886 -0.0232382 -0.0623168 
0.017598 -0.0573646 0.591029 
-1.26461e-18 -8.76796e-18 1 

-0.0213275 0.0218729 0.00304083 
0.000308738 -0.0265796 0.0356845 
-4.2147e-18 -4.72631e-18 1 

-0.120956 0.0120904 -0.452518 
-0.0350084 -0.0174032 0.696447 
2.78334e-18 -8.50237e-18 1 

-0.0341734 -0.0150583 0.080806 
-0.0177252 -0.0255902 -0.0283992 
8.42715e-19 6.26017e-18 1 

-0.0212934 0.00342022 -0.106829 
-0.0412315 -0.0615306 -0.0635448 
-5.8901e-18 3.17634e-18 1 

-0.0646139 -0.00450728 -0.0630774 
0.0142702 -0.0681623 -0.427427 
1.6413e-18 -2.52959e-18 1 

-0.0126619 0.0204206 -0.103606 
0.0513022 -0.0640272 -0.105375 