# vtk DataFile Version 3.0
Output file generated by Yade's KinematicLocalisationAnalyser
ASCII
DATASET UNSTRUCTURED_GRID

POINTS 13483 float
417.139 42.0989 0.460673
470.716 98.109 -0.458207
101.222 6.01821 -0.524555
509.555 7.05124 0.498815
344.891 14.7178 -0.3903
253.738 50.0595 -0.542372
130.709 7.94343 0.453161
390.214 19.8649 -0.241122
350.908 60.3779 0.136543
470.305 26.0987 -0.679688
179.966 8.45899 0.146398
209.276 6.27875 0.425369
418.004 65.9176 0.136201
420.314 27.3948 0.146283
115.877 20.6125 0.505434
185.894 41.9345 0.407323
183.62 14.2288 -0.453287
230.439 17.3466 0.568763
271.225 56.5125 -0.453446
361.725 9.49997 0.69991
298.973 44.3881 -0.120032
402.498 60.0549 -0.274306
503.138 87.562 0.467051
438.382 89.3759 -0.362691
327.56 23.4114 0.390704
197.131 59.4574 0.135201
360.325 74.4891 -0.59457
399.077 36.0205 -0.260054
37.6974 19.4774 0.540314
454.061 62.6815 0.32901
340.757 9.4562 -0.56921
14.9819 25.0157 -0.341754
484.753 91.1817 0.279388
343.946 4.61993 0.680342
66.5886 50.2029 -0.115228
355.013 49.4099 0.396285
367.036 18.8161 0.556042
260.944 33.521 0.231489
365.743 37.0996 -0.309174
278.926 61.821 -0.450132
200.668 23.005 0.352157
316.133 48.9639 -0.0853955
445.639 6.81006 -0.233222
163.327 5.95694 0.476472
46.3988 9.30571 -0.0861489
57.0898 10.241 -0.281624
459.071 9.41079 -0.607906
20.0362 13.0413 -0.308747
381.901 82.2708 -0.377055
449.236 31.7658 0.399212
144.659 32.5114 0.312635
464.506 86.7435 -0.123044
26.9902 32.5163 0.146996
370.102 4.13185 0.58124
119.1 6.96008 -0.716233
404.655 47.4658 0.492289
362.268 69.5681 0.117627
147.219 0.942178 -0.307041
28.0708 2.44311 0.301788
262.978 28.1773 -0.293666
389.478 93.1979 -0.132194
336.898 63.726 -0.174977
294.751 4.61752 -0.269581
467.557 8.59666 -0.610299
21.3485 49.9928 0.266415
216.337 47.4505 -0.332196
473.031 19.3163 -0.230842
404.917 93.7528 -0.342019
305.929 8.40884 -0.676673
389.821 13.4407 -0.506286
485.445 58.7968 0.420037
110.796 8.57231 -0.349216
363.719 71.2927 -0.120749
337.636 34.9144 -0.0937695
235.888 24.828 -0.500968
17.3356 14.9154 -0.267383
492.661 81.6711 0.339686
262.5 58.3385 0.337446
449.219 23.0856 0.602659
459.073 13.9151 -0.46479
502.753 15.2159 0.296802
337.167 66.5986 0.196156
79.4837 43.0401 0.258133
423.243 85.2877 -0.23796
420.742 75.5969 -0.136635
511.611 93.0647 -0.130163
495.187 1.98172 -0.55203
233.945 37.7123 -0.561608
422.646 6.02493 0.218079
21.9772 6.08981 -0.606233
113.999 44.9677 -0.144567
354.913 18.889 0.327825
494.999 75.2636 -0.471632
166.875 29.3062 0.305834
35.9166 39.0765 0.310637
344.862 3.2517 0.147372
197.009 16.5495 -0.458932
483.9 68.3536 -0.330847
502.523 74.6392 -0.273529
278.639 48.8237 -0.269391
137.864 31.6754 0.611573
368.543 64.4454 -0.449841
283.959 32.353 -0.475091
301.927 36.2313 0.140938
281.927 21.106 0.545535
375.683 16.5377 0.228806
512.778 16.4194 -0.242887
68.5539 45.434 0.452763
263.788 5.3544 -0.335972
385.556 19.1001 -0.439687
284.784 74.7611 0.498128
20.5667 27.4115 -0.567529
26.6182 5.90278 -0.410903
384.144 55.8948 0.504791
351.831 39.0231 -0.14817
20.4282 44.4647 0.401438
79.8385 34.7083 -0.236371
257.486 18.1092 -0.36048
408.643 21.517 -0.270914
343.933 77.1965 -0.182631
482.879 22.1265 -0.478718
477.943 17.0947 0.210272
312.878 74.9934 0.0950849
403.151 71.7022 -0.0971852
200.488 25.9417 -0.550207
260.939 3.66186 0.632113
89.2534 34.2967 0.315746
100.485 26.9218 -0.294215
365.551 63.7369 -0.100612
244.105 23.6165 0.505428
453.018 70.6749 0.109602
409.398 93.3468 0.102992
335.43 45.9002 -0.408195
511.75 54.0168 -0.212081
312.454 28.5298 -0.254533
226.724 40.4286 -0.297822
443.997 48.9227 0.282482
232.369 44.9786 -0.394473
394.571 28.5865 -0.317863
264.57 55.6518 0.187617
348.857 16.5803 0.570442
295.517 64.5048 -0.114141
315.441 18.1211 0.26006
252.351 63.7645 -0.502992
163.569 30.112 0.153147
475.339 94.9281 -0.14371
510.814 16.1424 0.413722
6.01257 13.1019 -0.433794
315.438 26.1278 -0.630074
30.7341 26.9732 -0.0921767
306.036 65.096 -0.467564
291.588 35.9084 -0.30506
63.008 12.4293 0.512307
43.4939 36.4758 -0.470539
189.841 20.3795 0.452915
393.186 85.4438 -0.426918
395.897 37.5183 -0.501969
64.6823 24.2724 0.523614
442.951 90.9901 -0.403164
488.705 20.8605 -0.470058
434.914 64.6879 -0.577655
463.022 1.47209 0.639937
373.118 53.2973 0.455758
403.836 61.2179 -0.612849
358.692 21.0403 -0.626646
509.395 3.58736 -0.383624
192.702 33.3832 -0.124978
111.096 40.7564 -0.209735
205.493 11.8752 -0.389518
78.9307 4.69436 0.287996
54.2405 11.8926 0.234665
232.205 55.7152 -0.315075
14.6859 26.8688 -0.346882
383.464 31.006 0.430756
386.724 78.1709 -0.21721
328.769 37.0622 -0.362807
496.141 98.0058 0.36523
299.884 10.4452 -0.106575
318.211 53.1188 -0.518437
377.054 3.00745 -0.306965
18.5593 26.7955 0.374969
394.471 5.16547 0.648762
380.123 11.6302 -0.618895
178.328 10.9372 0.534204
313.946 15.2701 -0.305656
246.947 6.99145 0.465317
294.872 29.8595 0.441249
471.105 64.3599 0.14883
165.782 26.2595 0.437426
491.758 15.8277 0.436518
472.244 60.4794 0.452304
285.96 22.689 0.344612
478.296 2.4638 -0.583987
419.469 40.6681 0.455037
482.039 38.6862 -0.534698
311.919 58.9028 -0.311902
347.674 21.8177 -0.484384
334.672 77.4175 0.222703
328.436 12.0814 0.204878
438.094 62.2728 -0.0200482
434.358 60.4931 0.356573
162.757 42.7338 -0.346421
502.761 18.3073 -0.203701
403.32 63.6822 -0.252481
9.89719 19.6724 -0.228957
303.39 28.9513 0.38038
161.231 23.3873 0.427553
81.2601 43.7985 0.228919
507.952 67.2985 -0.441386
432.976 71.8853 0.275756
261.402 40.962 0.452074
374.17 10.2652 -0.48206
71.893 50.2705 0.167145
212.449 41.9547 -0.564261
380.822 40.9949 0.407879
345.283 45.1449 -0.390591
216.952 0.84903 -0.37598
377.484 67.4897 -0.459625
375.169 74.9102 -0.461169
355.638 80.0477 -0.375835
351.276 2.68655 -0.731001
457.196 32.4608 -0.657767
153.808 12.546 -0.257114
373.784 88.6948 0.435756
386.237 62.7643 0.154068
60.7663 1.00588 0.334414
206.278 4.70358 0.197042
509.177 19.9717 0.186822
502.985 20.8759 -0.567115
512.657 24.8957 -0.65233
241.87 10.7758 0.344139
483.441 46.5001 0.467075
317.872 68.1057 0.339607
331.903 0.847621 0.616233
424.208 68.4213 0.446261
21.2543 37.8048 -0.0409824
261.833 63.1251 -0.464791
207.194 2.8881 0.422065
489.181 88.3731 -0.205191
459.626 82.3631 0.258384
231.973 19.8908 0.292493
437.158 51.024 -0.138547
387.242 3.92358 0.323623
378.895 11.614 0.534346
83.3119 20.0571 -0.547837
239.328 1.00503 -0.233737
273.403 2.13325 -0.47624
12.586 7.93009 -0.631536
4.26828 34.4463 0.329003
137.84 20.0065 -0.475491
58.6386 46.7477 -0.24469
56.2951 34.1871 -0.328296
314.492 13.439 -0.529711
297.754 68.7274 -0.497067
461.945 89.1765 -0.120967
17.8496 4.63064 0.358902
58.4376 7.20918 0.167433
401.819 86.1717 -0.148585
234.754 4.08747 -0.443869
275.304 36.5228 -0.124191
198.816 11.2972 0.658921
438.891 37.4553 0.326935
332.587 13.69 0.674695
487.029 47.562 -0.353756
404.167 75.0413 0.303879
447.268 22.9213 0.262146
313.064 35.4736 0.584917
89.488 50.037 -0.031034
367.374 69.8528 -0.0481075
483.566 32.1355 0.247216
204.216 45.5733 -0.285808
27.748 20.7665 -0.218622
268.166 14.2647 0.639973
94.4915 45.104 -0.463409
227.19 62.4027 -0.200238
318.459 2.18985 -0.255166
489.893 77.438 0.366584
456.906 0.692194 -0.560192
264.46 3.92505 0.591787
246.87 34.4066 -0.16379
335.978 74.2904 -0.199823
68.3169 9.46712 0.592981
165.74 50.8896 0.399428
471.968 79.9846 0.353218
368.2 90.5031 0.0656404
168.15 46.1062 -0.272246
141.381 50.4024 0.456699
511.724 87.5367 -0.530096
511.235 17.4003 -0.70177
414.953 3.36121 -0.635697
164.552 25.0476 -0.121358
374.595 48.7687 0.134326
376.583 49.0548 -0.287239
303.304 6.00012 -0.124591
342.125 0.892421 -0.559394
460.144 90.3468 -0.459924
73.4582 34.282 -0.252744
442.924 32.7025 -0.531752
222.468 21.8975 -0.523713
8.26371 2.47834 -0.438073
110.843 44.0595 -0.266847
59.0929 27.2041 0.468311
446.447 78.3243 0.302855
485.202 104.919 -0.160834
159.822 28.8574 0.229198
506.015 15.8883 0.598458
37.588 40.9556 -0.306698
78.8139 32.9253 -0.0991263
426.937 31.4348 0.611249
308.651 22.2328 -0.626093
365.45 19.6088 0.19584
205.541 44.1207 -0.271804
427.409 7.00626 -0.621432
513.574 18.0756 0.583962
23.5383 37.6153 -0.258851
219.84 11.2484 0.22417
188.522 21.505 0.318028
1.08298 39.1032 0.162298
190.959 22.3317 0.598774
184.067 11.3293 -0.151916
184.733 33.6167 -0.301605
117.373 33.6536 -0.200928
378.062 26.3862 0.486283
142.58 14.8697 -0.397116
483.245 90.0411 -0.235439
149.132 3.80464 0.532728
39.0575 41.911 0.361488
475.095 72.8424 -0.457832
235.566 48.1822 -0.436948
447.928 36.1011 0.656902
500.389 81.2413 -0.50037
240.594 12.4343 0.313431
474.573 52.6194 0.380066
262.619 2.21605 -0.470353
308.551 28.4304 -0.346606
451.423 20.0833 -0.53825
90.2035 12.6729 -0.551887
341.991 5.94114 0.712545
488.927 47.8676 -0.181134
74.1591 7.88141 -0.294353
227.575 23.5416 0.220411
315.307 11.506 -0.375328
509.991 2.31827 0.554685
294.911 1.58179 -0.617613
152.128 39.4217 -0.362142
486.154 29.8224 -0.335525
112.94 41.6836 0.234205
222.31 50.4766 -0.435529
300.136 24.7967 0.217326
396.766 30.5548 0.509983
287.692 18.7423 -0.516841
341.276 60.2609 -0.461897
471.633 97.1922 0.36729
41.0768 13.8754 -0.172108
245.554 46.0381 0.308055
309.39 65.422 -0.389053
305.797 24.3635 -0.29895
371.475 77.1298 -0.429041
491.23 72.2395 0.172863
438.877 56.1842 -0.46125
194.044 43.7589 -0.428236
12.1125 37.3409 0.180307
433.167 62.0542 -0.157693
385.385 90.7527 0.444446
194.348 50.6406 -0.160998
444.602 64.8452 0.110768
129.239 11.4414 -0.393415
279.234 42.2409 -0.305084
336.576 76.3455 -0.101966
309.331 23.8361 0.190325
467.114 100.074 -0.290805
318.411 5.18621 0.574671
41.1139 28.8958 -0.324403
348.537 72.2383 -0.362098
316.438 59.3642 0.496622
486.173 84.0791 -0.209893
472.641 51.1617 0.260809
373.163 29.2897 -0.220662
476.414 87.4931 0.460841
234.642 6.6874 -0.471084
308.543 66.5986 0.488
23.9121 45.5806 -0.313805
476.266 53.985 -0.130542
417.964 22.1306 -0.709042
338.477 4.04262 0.66035
108.091 6.13506 -0.490802
312.175 50.9421 -0.12921
10.674 0.890483 0.38516
505.206 8.90843 0.0854246
[...]
POINT_DATA 13483
TENSORS Strain_matrix float
-0.368279 0.876263 -2.19162 
0.552944 -0.187805 1.43896 
-1.08396e-17 1.50243e-17 1 

-1.12273 0.823359 -273.109 
0.118947 0.329398 20.117 
-5.54655e-18 1.05795e-17 1 

-0.384133 -0.118262 1.52683 
0.20045 0.128295 -0.279246 
8.2623e-18 -1.76599e-18 1 

-1.19111 -0.62396 3.25752 
0.0548007 0.153068 -0.653249 
8.61312e-19 4.88077e-18 1 

-2.18676 0.0226498 -0.378192 
-0.836094 0.533473 -0.226376 
6.30428e-18 4.95336e-18 1 

-0.832364 -0.0747297 19.391 
0.476013 0.383778 -14.9002 
-5.07772e-18 -5.24839e-18 1 

-0.398351 0.0886473 1.10033 
0.123845 0.0729368 0.344257 
-4.96786e-18 9.48817e-18 1 

-0.566885 -0.132929 1.15949 
-0.0331858 0.0228359 -0.0898575 
8.55087e-18 5.42538e-18 1 

-5.90227 7.50625 -10.6198 
-2.98387 2.50316 -8.46964 
-4.18619e-18 -9.74094e-18 1 

-1.23838 -0.659708 -18.7571 
0.433933 0.367207 4.25416 
9.29347e-18 7.08717e-18 1 

-0.106332 -0.0309645 -0.0296866 
0.0443142 -0.0879372 0.327017 
-3.8888e-18 -2.29793e-18 1 

-0.344004 0.4078 1.81984 
-0.0628213 0.148337 1.99448 
3.85811e-18 -6.28924e-18 1 

0.0414172 0.658932 -0.276855 
-0.683809 0.172132 0.0795414 
-2.38765e-19 -9.94854e-18 1 

0.0967728 -0.737226 -0.134301 
0.847852 0.378438 0.769233 
5.6571e-18 8.73376e-18 1 

-0.427246 0.267146 0.303782 
-0.0250474 0.180473 -3.73375 
1.38099e-18 7.52677e-18 1 

-0.0951653 -0.36128 0.498023 
0.181943 0.0407504 0.805829 
7.39333e-18 -8.45935e-18 1 

-0.00439693 -0.977845 -0.761679 
0.745672 0.343387 0.287261 
3.78986e-18 4.12501e-18 1 

-1.28378 0.990743 0.500372 
-0.678023 0.45841 -0.309817 
-1.64517e-17 1.02823e-18 1 

-0.155368 -0.760133 0.904532 
0.599411 0.198087 -1.35711 
9.22689e-18 3.35523e-18 1 

-0.510514 -0.121014 -19.0338 
-0.306356 -0.0462094 39.7546 
-3.62607e-18 5.68432e-18 1 

-0.38701 0.326693 -0.288324 
-0.303067 0.252139 -0.58416 
1.42349e-17 -1.50501e-18 1 

-0.853712 -0.162696 -0.57964 
-0.00570997 0.210527 0.574244 
4.69587e-18 7.75261e-18 1 

-1.39094 -1.4913 27.0239 
0.218433 0.605467 -12.9336 
-4.56534e-18 7.78685e-18 1 

-0.031057 0.430255 -0.307826 
-0.183847 0.0372194 1.11815 
1.801e-18 8.14523e-18 1 

-1.06292 -1.48686 0.782788 
-0.21057 0.565791 0.394652 
-1.19759e-17 1.66332e-18 1 

-0.250521 -0.617648 -0.369036 
0.317935 0.259175 -0.275248 
-2.66438e-17 4.04351e-18 1 

-1.40511 0.429694 93.9344 
0.118081 0.335874 90.8745 
5.71089e-18 -1.19005e-17 1 

0.0398031 -0.0428575 -0.215221 
-0.211966 -0.114272 0.695458 
-4.73054e-19 -1.57685e-18 1 

-0.45441 -0.248564 -0.464602 
0.155567 0.113913 -0.116327 
1.63297e-17 4.84242e-18 1 

-3.86115 -2.85561 6.15879 
-1.68133 0.0677069 0.674131 
6.06494e-18 2.98509e-18 1 

-4.57989 -0.384145 -2.1933 
-0.452081 0.729666 0.821257 
-4.84495e-18 1.21124e-17 1 

-0.548917 0.0929631 0.300733 
-0.0306074 0.168112 -0.859254 
-5.26073e-18 1.10599e-17 1 

-0.0648596 -0.214216 -1.55508 
-0.130255 0.0366265 1.09307 
3.71287e-18 -8.53614e-18 1 

-1.83273 -0.51569 3.58248 
-0.014368 0.410728 -1.48681 
4.14234e-18 2.19373e-17 1 

-0.10707 -0.117489 -0.0753687 
0.241906 0.00807959 -0.0139818 
-1.34681e-17 -1.60535e-17 1 

-0.719643 0.0912493 -1.57162 
-0.490852 0.319608 -0.533905 
-9.68542e-18 -9.68542e-18 1 

-0.547789 0.264983 1.63199 
-0.218184 0.172633 -0.958453 
8.28221e-18 -5.5021e-18 1 

-3.55282 3.38568 -2.93852 
0.57323 0.153454 1.58737 
7.20417e-18 -2.07243e-18 1 

-0.576855 -0.522118 1.53761 
0.415423 0.300893 -0.320864 
-9.39444e-18 -9.61949e-18 1 

-0.118468 -0.499458 0.34584 
0.243802 0.0936725 1.34008 
-5.85968e-19 -3.35955e-18 1 

-0.239444 0.130548 0.513937 
-0.0481689 0.00734593 -0.394691 
2.02427e-17 1.41699e-18 1 

-0.246776 -1.00638 1.16219 
0.746705 0.838402 -0.883904 
-9.64033e-18 -1.12936e-17 1 

-0.863502 0.0573351 -0.242701 
-0.394576 0.132489 -0.264763 
2.70229e-17 -6.9335e-18 1 

-0.206883 0.0689801 0.680021 
-0.108858 -0.095249 0.587005 
8.90879e-18 5.88616e-18 1 

-0.427187 -0.159963 -0.207792 
0.103525 -0.000486811 -0.0194946 
6.92981e-18 -2.33777e-18 1 

-0.319191 -0.084891 0.657808 
0.178958 0.126484 0.298164 
-1.87525e-18 1.06129e-17 1 

-0.40283 -0.0891767 0.63781 
-0.0298602 -0.0674705 0.371874 
-6.8768e-18 2.75072e-18 1 

-0.0665833 -0.206643 -0.0384839 
0.142451 -0.100855 0.0365632 
9.10118e-18 3.11793e-18 1 

-7.64349 -4.38227 -26.7033 
0.363193 0.833058 -0.962193 
1.64197e-17 -2.63801e-17 1 

-4.50532 0.0257107 -12.2506 
-0.367682 1.20817 -0.151593 
-2.04229e-17 -7.30204e-18 1 

-0.535132 0.311759 -0.155973 
-0.229706 0.306997 0.639531 
6.36357e-18 -4.51089e-18 1 

-0.150111 -0.0604891 0.327199 
0.0658933 -0.0472494 0.658634 
-1.61106e-17 2.03389e-18 1 

-0.165127 0.0412678 -0.0987068 
-0.0878682 0.0400211 0.101062 
5.24407e-18 1.48932e-17 1 

-0.389164 0.0819567 2.17339 
-0.0270226 -0.138468 0.185752 
-1.00904e-18 4.61951e-18 1 

-0.352273 0.217101 46.2399 
-0.002574 0.0289445 -0.5711 
-6.67478e-19 4.05695e-18 1 

-0.223363 0.196214 -2.415 
-0.269482 0.0572495 -0.25583 
-9.72679e-18 -1.24652e-17 1 

-5.73845 10.3835 10.3022 
-2.90869 3.99265 0.0523448 
-5.24453e-19 7.38604e-18 1 

-0.152772 0.63562 0.288498 
-0.00382327 0.0432321 -0.0138404 
4.09985e-18 1.23846e-17 1 

-0.168664 0.126516 0.0128154 
-0.111513 -0.090791 0.554277 
-7.50788e-18 2.43112e-18 1 

0.387268 -0.853961 -1.18128 
0.897474 0.83181 2.48432 
-1.13557e-17 7.25688e-18 1 

-12.0576 20.3575 1.22902 
0.266931 0.781428 0.213576 
8.22832e-18 1.58027e-17 1 

0.191125 -0.895666 0.875788 
0.620419 0.381454 -0.615359 
-2.6377e-18 9.02537e-18 1 

-2.19025 -0.577893 0.636449 
-0.306953 0.56461 0.764928 
-1.79733e-17 1.21103e-17 1 

-1.02135 -0.463635 -3.85551 
0.366664 0.443282 1.94998 
-1.18935e-17 1.10546e-17 1 

-0.269661 0.233186 0.392802 
-0.270542 0.160449 0.827129 
1.24218e-17 -8.39832e-18 1 

-0.640794 -0.0213026 0.24017 
0.145797 0.308137 -0.661624 
-2.91471e-18 1.19578e-18 1 

-0.405082 -1.37292 -0.838759 
0.136871 -0.0832038 -0.787594 
-1.8307e-17 -5.72094e-19 1 

-6.4537 -8.87636 -20.0836 
0.214776 0.706674 -2.08646 
7.46451e-18 1.91996e-17 1 

-0.426853 0.128185 7.83918 
-0.360932 -0.0200001 -8.61558 
-2.48154e-18 -8.25867e-18 1 

-1.67398 0.82814 -0.0185379 
-0.782757 0.784028 -2.60064 
-7.68836e-18 -8.52086e-18 1 

-0.0805769 -0.404019 -0.202611 
0.401836 -0.0190117 -0.11348 
-1.21369e-17 1.79415e-17 1 

-0.502676 0.0953976 -0.325369 
-0.153746 0.181219 0.26516 
-1.22429e-18 8.35495e-18 1 

-10.6991 5.76097 8.01906 
-4.38627 2.91731 -0.186446 
-1.79454e-19 -7.17817e-18 1 

-0.586755 -0.266395 -0.0727441 
0.679297 0.398078 0.0435359 
-8.00941e-19 4.30877e-18 1 

-0.423079 0.369584 -0.233593 
-0.512994 0.28184 -2.54093 
7.36448e-19 3.74799e-18 1 

-0.16428 -0.112045 -0.0499847 
0.0558482 -0.0479523 0.111845 
-2.15131e-17 -7.84563e-18 1 

0.0541706 -0.0474213 3.79936 
0.147676 -0.0146198 0.189245 
-1.06673e-18 1.39828e-18 1 

-0.910114 -0.742187 1.26775 
-0.156034 0.269685 1.86123 
-4.70875e-18 6.21556e-18 1 

-0.916017 0.310613 -4.91123 
-0.163558 0.171875 -0.00841152 
-7.03486e-18 -4.49614e-18 1 

-0.32456 0.0205382 0.498314 
0.0707176 -0.0807053 -0.152393 
1.52149e-17 2.26322e-17 1 

-2.78087 0.948615 1.26351 
-0.249781 1.15573 1.32468 
1.34691e-17 -1.44311e-17 1 

0.146626 -1.00172 -0.279197 
0.649592 0.422989 -0.00726969 
6.46049e-18 9.22518e-18 1 

-0.251521 0.158789 0.459646 
-0.0872742 0.119086 0.0186769 
-5.88253e-18 1.25764e-17 1 

-4.03756 -8.68771 1.84739 
0.680042 2.33858 0.79652 
3.9283e-18 3.83694e-18 1 

0.00638052 0.640384 0.525873 
-0.816477 0.306152 0.324065 
2.08269e-17 6.73954e-18 1 

-0.533497 0.120468 0.151053 
-0.227143 0.288198 -0.503478 
6.67134e-18 6.64031e-18 1 

-3.16794 0.202005 -3.39653 
-0.0744639 0.927423 2.16762 
-3.77262e-18 -1.73454e-19 1 

-0.360756 0.513176 -9.49475 
-0.386441 0.307785 -11.0305 
-1.15308e-17 -8.17935e-18 1 

-0.503432 0.298334 -0.00031228 
-0.0302468 0.0203256 0.327316 
-2.59867e-18 7.28179e-18 1 

-0.38894 0.0902571 3.92489 
-0.0352704 0.0394172 4.60129 
1.48059e-18 -1.37516e-17 1 

-0.486028 -0.349526 1.42742 
0.416035 0.251116 0.424318 
1.06243e-17 1.64764e-17 1 

-0.298074 0.585951 -0.672844 
-0.392553 0.124357 0.0378274 
1.2756e-19 6.25043e-18 1 

1.36935 -5.03028 -39.4315 
0.234659 1.74851 23.1604 
9.97185e-18 -1.08629e-17 1 

-0.368165 -0.247691 -0.280517 
0.228736 0.106511 0.891126 
-1.25685e-18 -6.55355e-18 1 

-0.107426 0.133075 0.323359 
-0.209921 0.0145337 -0.166206 
-5.16014e-19 5.01271e-18 1 

-1.95188 -0.222832 -0.820446 
-0.00919094 0.608648 -0.334159 
4.208e-18 8.67628e-20 1 

-0.300417 0.0742086 -0.000701998 
0.0661883 -0.0503675 -0.628525 
-2.78808e-18 -6.88991e-18 1 

-0.323927 -0.331747 -0.0914654 
0.439756 0.201555 -0.114108 
1.27342e-17 1.1704e-17 1 

-2.41742 -4.45127 3.90743 
0.46 1.42456 -0.947931 
4.36689e-18 1.51582e-19 1 

-6.91157 4.89775 0.674267 
0.326046 0.444165 0.85862 
-1.20833e-17 -1.32747e-17 1 

-0.383209 0.20114 15.0152 
-0.12933 0.167607 -2.82584 
1.5348e-18 1.02632e-20 1 

-0.488026 0.0115788 -3.66355 
0.168924 0.2704 -0.390306 
-1.82058e-18 -4.41142e-18 1 

-0.24829 0.333672 0.0408893 
-0.293739 0.0532325 0.136318 
-1.00191e-17 -5.65542e-18 1 

-0.376793 -0.66456 -0.479613 
0.164946 0.185827 0.249234 
2.29279e-18 3.66846e-19 1 

-1.75952 -0.703313 1.64199 
-1.20128 0.0542127 -0.479376 
1.69831e-19 2.1059e-17 1 

-2.10303 -1.82714 -0.106063 
1.27065 0.991975 -0.296109 
-1.40279e-17 -2.49155e-18 1 

-1.37011 -0.294103 0.376138 
0.518062 0.382771 -0.56316 
3.50701e-18 -9.02323e-18 1 

-0.337978 0.0180588 -0.226296 
-0.0325005 0.144626 -3.78223 
2.00621e-18 5.30213e-18 1 

-0.2566 -0.10215 0.178514 
0.23474 -0.111637 -0.0141876 
-1.77134e-18 -5.12149e-18 1 

-0.580282 0.50487 -1.21713 
-0.273562 0.0907485 -0.411405 
3.33362e-18 1.59224e-17 1 

-0.686995 -0.177713 -166.453 
0.0250746 0.601769 -8.71694 
-5.27177e-18 6.25928e-18 1 

-0.706999 -0.267285 -2.09531 
0.0480637 0.369015 1.90095 
-3.61622e-19 2.9963e-18 1 

-0.427299 0.0488148 0.290544 
-0.0970358 0.0238866 -0.145077 
2.31315e-18 -4.32458e-18 1 

-0.670453 0.281991 4.15187 
-0.243701 0.358342 -1.34275 
8.7033e-18 9.38644e-18 1 

-3.4448 -0.397029 3.55156 
-2.40729 0.0929369 -0.326702 
1.38157e-17 -1.28856e-17 1 

-0.0821786 0.105408 1.18158 
-0.162263 0.0590525 1.03902 
7.86366e-18 2.76187e-18 1 

-0.10436 -0.0597461 -0.0937934 
0.0793759 -0.0213606 -0.155865 
-5.65627e-18 -1.88037e-18 1 

-0.253393 0.246548 -0.0591697 
-0.180313 -0.0713367 0.000723065 
9.62694e-18 -1.9291e-18 1 

-0.977414 0.89408 1.49044 
-0.56454 0.569988 -0.784585 
-1.29044e-17 4.83916e-18 1 

0.22623 -0.719421 0.318401 
0.726573 0.310127 -0.0716188 
4.45413e-18 1.64913e-17 1 

-0.858285 -0.404431 0.600728 
0.761234 0.274967 0.522867 
-3.4546e-18 -2.25029e-17 1 

-1.85952 -0.489169 0.364218 
0.129878 0.586421 0.438642 
-2.08419e-18 1.22302e-18 1 

-0.135657 -0.112414 0.0425508 
0.154171 0.14581 0.976288 
2.1986e-17 -1.99011e-17 1 

-1.13957 -2.31797 -4.43078 
0.113349 0.560078 0.274341 
1.46672e-18 -9.85454e-18 1 

-0.435697 0.187089 -1.5645 
0.0347064 0.141752 -0.474525 
-7.7322e-18 2.92793e-17 1 

-0.490689 -0.116117 -1.3203 
0.0499128 -0.117707 2.17053 
3.75634e-18 5.46377e-18 1 

-0.28114 0.163507 0.130319 
0.185886 0.0357244 0.634622 
-1.39397e-17 -1.93607e-18 1 

-0.117574 0.717788 -0.982456 
-0.0368335 0.163858 -0.319899 
4.10986e-18 -7.90492e-18 1 

-0.843481 -0.389839 -1.2457 
0.544342 0.368331 -0.304236 
-2.01233e-18 3.10021e-18 1 

-0.605638 0.532255 1.52618 
-0.0975036 0.146756 -2.07782 
9.57047e-18 -1.7793e-17 1 

-0.34889 0.299678 0.127047 
-0.950752 0.549449 -0.289052 
9.16585e-19 -6.88712e-18 1 

-2.04039 -12.7564 -6.46249 
0.244082 1.11627 1.73334 
-1.33273e-17 -2.41508e-18 1 

-2.47384 3.25759 -4.7806 
0.739385 0.30289 3.03696 
-3.7362e-18 1.31155e-18 1 

-4.37823 0.711349 -12.5059 
-1.60377 0.768236 -6.14884 
9.42588e-18 8.46775e-18 1 

-1.74631 -0.138735 -3.86404 
-0.0418684 0.719787 1.15141 
-6.97127e-19 -2.98769e-19 1 

-1.73614 1.60277 6.7021 
-0.287026 0.582241 1.08001 
-1.91261e-18 1.47478e-18 1 

-0.0616539 0.462169 0.0500793 
-0.369553 0.0446575 0.00117151 
-2.53193e-18 4.34044e-18 1 

-0.76779 0.56716 2.41975 
-0.902731 0.654447 0.527841 
1.267e-17 5.28077e-18 1 

-1.65225 -0.155512 -0.295074 
0.377679 0.545535 0.783669 
8.7288e-18 -2.82007e-18 1 

0.231834 -0.65969 -0.132154 
0.640037 0.131191 0.273013 
-4.64098e-18 1.52766e-17 1 

-0.941528 0.17321 5.59702 
-0.326928 0.289092 0.923446 
1.58591e-17 -1.38033e-17 1 

-0.0435398 -0.345874 -0.0499453 
0.272118 0.0110894 -0.127856 
3.84734e-19 -8.60843e-18 1 

-0.179748 -0.793107 0.48814 
0.787974 0.375346 -1.05201 
3.20956e-17 -6.11147e-18 1 

-1.18094 -0.368716 23.9113 
0.101025 0.789049 -27.7375 
-4.05108e-18 -3.02002e-17 1 

-0.14874 0.0576682 -0.434361 
-0.0269369 0.0287129 0.600923 
-1.78362e-18 1.07437e-17 1 

-0.186768 -0.305523 0.459786 
-0.108599 0.190861 -0.517598 
7.62367e-18 3.45606e-18 1 

-0.730738 -0.67417 1.05762 
0.197454 0.282988 -0.697626 
2.88372e-17 9.14349e-18 1 

-0.15998 -0.0476906 0.115271 
0.0353108 0.0525292 -0.132941 
-2.14609e-17 3.06584e-18 1 

-1.86955 -0.731859 -5.926 
0.270121 0.667124 -3.0115 
3.48569e-18 1.3507e-17 1 

-0.192207 -0.176162 -0.320139 
-0.123056 0.0234233 -0.350719 
-1.58024e-19 3.46995e-18 1 

-1.18605 -0.166324 109.015 
-0.0549631 0.230436 34.9084 
5.44709e-18 3.96152e-18 1 

-2.22607 -2.82507 -6.91946 
-0.80237 -0.124962 -0.270879 
-1.67049e-17 5.90281e-19 1 

-0.25887 0.213429 0.343949 
-0.0227051 0.0268886 1.46128 
1.0197e-18 -1.17487e-18 1 

-0.248296 0.0310192 1.10671 
-0.0234253 0.0716768 -1.19506 
-1.99631e-18 6.07681e-18 1 

-0.295279 0.0586724 -0.108901 
0.514599 -0.0458432 0.325906 
-1.14935e-17 -6.97819e-18 1 

-0.84101 0.683508 -0.388515 
0.419836 0.138179 -1.40447 
-3.35531e-18 2.11473e-17 1 

-0.620274 -0.573512 1.2514 
-0.364198 0.0573503 0.384635 
-1.22267e-17 9.03712e-18 1 

-0.342322 0.0690694 -2.66291 
-0.117377 0.161069 -1.61532 
-2.00716e-18 -2.67011e-18 1 

-0.784071 -3.8314 143.451 
-0.373838 0.373283 -10.9156 
2.40169e-18 1.51936e-18 1 

-15.889 7.7581 2.33371 
-3.21246 1.63041 2.31144 
-1.90638e-18 -4.62745e-18 1 

-1.2293 -0.88685 -18.5086 
-0.180751 0.54794 -1.3383 
-8.0721e-19 -1.04957e-18 1 

-0.314021 0.00258653 0.96653 
-0.126286 -0.369484 0.377508 
6.80902e-18 -6.27319e-19 1 

-1.39795 -0.018276 -5.12083 
-0.166719 0.705939 -1.97131 
1.07694e-17 -9.37786e-19 1 

-1.43726 -2.12894 -26.0662 
0.333785 1.21241 9.81606 
6.89178e-18 1.4243e-18 1 

-0.545803 0.38508 1.7048 
-0.228726 0.104514 0.00879639 
-3.41593e-18 -2.56195e-18 1 

-1.73376 -1.33993 1.34042 
0.429048 0.708142 -0.193736 
-2.59693e-18 -1.90259e-17 1 

-0.00243136 1.13562 2.571 
0.178979 -0.0750318 -0.137419 
2.65944e-18 -6.12735e-18 1 

-0.561981 -0.100969 -0.51842 
0.129517 0.16687 0.608904 
-3.21421e-18 -8.74369e-18 1 

-0.569416 0.678927 1.52966 
-0.53347 0.467035 1.68676 
-4.09054e-18 8.8735e-18 1 

-0.265884 -0.0821679 -0.0419352 
0.0113662 0.00441304 -0.816022 
-1.39461e-17 8.02695e-18 1 

-0.499248 0.0938208 0.662561 
-0.104566 0.200536 0.297982 
-8.28845e-18 6.83942e-18 1 

-0.3064 0.099812 0.13333 
-0.116338 0.189396 -0.759067 
7.31151e-18 -4.80757e-19 1 

-0.886267 -0.187899 -0.412834 
0.0269829 0.377866 0.623773 
-7.63108e-18 -1.08429e-18 1 

-0.761587 -0.254813 -1.27896 
-0.393748 0.286619 0.226378 
1.43356e-17 -2.95144e-18 1 

-0.450805 -1.32705 -4.37702 
0.918635 1.18198 1.00522 
-5.57195e-18 7.8936e-18 1 

-1.83128 1.6253 -2.5657 
-0.492174 0.512709 2.40177 
-1.36705e-19 2.73411e-18 1 

-0.391208 -0.178348 1.01986 
0.247553 0.193857 1.14645 
5.6076e-18 2.91278e-18 1 

-0.242808 0.496663 -0.0593781 
-0.298542 0.0536934 -0.0974051 
-1.44905e-17 -7.73041e-18 1 

-0.177538 -0.5805 0.886239 
0.451434 0.22895 0.749432 
-5.43231e-20 4.77025e-18 1 

-0.227764 -0.0647809 -0.282312 
0.0600633 -0.178117 -0.147514 
-1.33455e-17 5.98245e-18 1 

-1.01561 -0.142417 -0.814812 
-0.140804 0.455633 -0.514062 
-6.39097e-18 1.49362e-17 1 

-1.74883 -0.916339 0.405245 
0.35739 0.49552 1.53989 
2.00773e-17 -3.961e-18 1 

-1.34658 -0.585492 4.57703 
1.24583 0.867373 2.1686 
-1.14669e-17 -6.00411e-18 1 

-0.283624 -0.12285 -2.22221 
0.0444175 -0.0284078 0.381168 
-8.1742e-18 -4.35333e-18 1 

-0.517667 -0.856881 0.191276 
0.565782 0.310386 0.0269695 
1.06062e-17 7.74734e-18 1 

-0.258229 0.432334 -0.576309 
-0.200431 -0.0196125 0.495232 
-8.61429e-18 -5.31158e-18 1 

-0.783302 -0.154401 -4.22829 
-0.623411 0.280838 -0.873199 
-2.86509e-18 1.20799e-17 1 

-0.0602448 -0.421596 0.299134 
0.339057 0.0686106 -0.0948031 
-6.84002e-18 2.18708e-17 1 

-0.094193 -0.104807 -0.15129 
0.0442005 -0.0727355 0.792071 
-2.10333e-18 -3.47858e-18 1 

-4.59338 0.472203 6.92559 
-0.244786 0.691232 -0.990404 
-5.95698e-18 -7.33493e-18 1 

0.0128271 -0.605037 0.0270365 
0.531254 0.0945535 0.278153 
-3.26725e-18 2.96231e-18 1 

-0.809352 1.16206 -0.201136 
-0.59689 0.650811 -0.420243 
1.6496e-18 -8.55349e-18 1 

-5.58942 -0.121435 -6.00949 
-0.0637691 0.885014 0.34003 
-2.73453e-18 -8.5454e-18 1 

-3.86241 4.71889 0.159767 
0.821675 0.207517 1.29585 
-1.2979e-17 -7.48364e-18 1 

-0.537215 -0.666563 -0.922216 
0.732897 0.310093 0.235118 
5.24587e-18 5.10281e-18 1 

-7.48681 4.99813 -31.5772 
-1.61943 1.91305 -11.7348 
-1.23227e-17 -2.10645e-19 1 

-2.44828 2.47575 -6.22975 
-2.06698 1.51978 -1.90298 
-1.05549e-17 3.63961e-19 1 

-0.0152746 -0.845648 0.196683 
0.598247 0.320001 -0.57637 
8.12541e-18 3.37054e-18 1 

-1.81885 -0.478788 0.524067 
-0.340486 0.432121 0.894584 
-2.10659e-18 -2.92948e-17 1 

-2.06459 -2.03051 -8.47925 
-0.0873354 1.11452 3.35956 
-1.72418e-18 -6.40409e-18 1 

0.0338741 0.505111 -0.0161881 
-0.618884 0.116937 -0.315155 
-2.11246e-18 4.11556e-18 1 

-0.617447 -0.32749 -0.569775 
0.0161223 0.320193 0.23433 
7.34274e-19 3.27347e-18 1 

-2.45753 0.820118 0.220948 
0.186689 0.0529718 0.425556 
-1.63842e-17 -1.06577e-17 1 

-4.78586 -11.6635 6.14976 
2.3114 5.44054 -2.70329 
2.20657e-17 -1.75072e-18 1 

-0.215015 -0.122784 0.0613913 
-0.0891514 -0.082012 0.0231513 
-1.08759e-17 1.20843e-17 1 

-0.78444 -0.855718 1.12772 
0.0826665 0.509446 1.01849 
-8.92302e-18 -1.38978e-17 1 

-0.110421 -0.0835657 -0.045071 
0.0789303 -0.00273141 0.802448 
-1.77479e-17 4.74542e-19 1 

-0.177189 0.277378 0.212494 
-0.141788 0.0710993 -0.108131 
-8.51392e-18 -8.90992e-19 1 

-0.662769 -0.191901 -5.74192 
1.18478 0.599259 -1.45851 
7.17632e-18 -2.37452e-18 1 

-1.85182 -0.547228 -16.9044 
-0.314791 1.43435 7.89191 
-4.70743e-18 3.23888e-18 1 

-2.56136 3.03158 -1.94486 
0.374762 0.16086 -0.242345 
2.84035e-19 -1.07223e-17 1 

-0.445588 -0.13046 -0.579352 
0.0604132 0.0473605 0.258296 
7.01063e-18 5.54754e-18 1 

-0.109726 0.0251285 -0.520914 
-0.0456334 -0.205804 -0.745153 
-4.15302e-18 2.03876e-18 1 

-0.501517 0.186762 8.10502 
0.0178745 0.11821 5.23982 
6.39609e-18 9.42732e-19 1 

-1.51377 0.517409 5.11318 
0.097482 0.424443 -2.61989 
-6.61412e-18 -5.47197e-18 1 

-3.35568 -3.03817 -0.234179 
-1.28681 -0.497218 0.833074 
-3.26719e-18 -1.20967e-17 1 

-0.755845 3.64311 2.01961 
0.0534344 0.150173 -0.505477 
3.85138e-18 1.06197e-17 1 

-0.135495 -0.0398424 1.42013 
0.188081 0.0524777 2.19439 
4.95066e-18 4.40059e-18 1 

2.86872 4.56497 7.37151 
-0.0899239 1.28629 3.95213 
-5.01483e-20 -1.40917e-17 1 

-0.0820882 -0.70118 1.66369 
0.548229 0.2768 0.22965 
-3.44706e-18 -4.52997e-18 1 

-1.34812 -0.113329 -15.4224 
-0.0603589 0.320105 2.62043 
5.2358e-18 1.09398e-17 1 

-1.61463 -1.25354 -18.6731 
0.193459 0.559708 -0.0697356 
7.15953e-19 8.31607e-18 1 

-0.190765 -0.0144476 0.24485 
0.0865699 -0.0278565 -0.014297 
1.04245e-17 -1.77217e-17 1 

-1.38556 1.11705 0.522468 
-0.226766 0.298663 -10.054 
-1.11476e-17 -6.48526e-18 1 

-0.0854736 0.62819 -0.228562 
-0.638204 0.138087 -0.0831897 
-3.2813e-18 -2.0008e-18 1 

-0.262627 0.593175 0.0159713 
0.0166736 0.171519 0.34923 
-5.58489e-18 -9.30094e-17 1 

-0.251239 0.446426 -0.220724 
-0.176347 0.058597 0.0863467 
1.05907e-18 8.80485e-18 1 

-1.507 -0.0241801 0.0541985 
0.194807 0.610406 0.36065 
3.77814e-18 -1.90407e-17 1 

-1.66481 -0.315658 -0.359964 
0.216298 0.459891 0.377744 
-3.89368e-18 -1.65659e-17 1 

-1.44349 -0.441107 -0.300279 