# vtk DataFile Version 3.0
Output file generated by Yade's KinematicLocalisationAnalyser
ASCII
DATASET UNSTRUCTURED_GRID

POINTS 13483 float
621.824 32.7304 -0.412855
767.295 69.3455 0.366905
122.534 6.00244 -0.460772
793.946 7.53507 -0.441287
513.033 7.83277 0.292329
323.588 35.4733 -0.465469
160.077 6.9062 0.435364
584.422 10.3497 0.16497
510.449 22.528 -0.153082
724.97 13.814 -0.547914
215.69 8.87506 -0.0990063
263.587 6.36996 -0.285583
664.717 40.3733 -0.138851
646.41 17.8528 -0.0947846
139.956 16.8964 -0.453085
226.435 34.8916 -0.399298
223.19 12.993 0.285627
296.491 9.66907 0.391574
348.992 33.18 0.465481
538.406 8.4904 0.348698
421.925 37.3681 -0.103461
606.648 42.8814 -0.277813
794.238 46.7375 -0.474994
707.6 44.4308 -0.450711
471.216 16.0048 0.289283
246.796 44.8256 0.12581
505.696 27.4666 -0.481915
600.954 20.493 0.253559
45.7775 15.2823 -0.458265
720.94 41.4669 -0.373403
495.633 4.98921 0.324867
17.1306 23.0608 0.294588
781.498 73.1488 0.125971
508.988 2.50298 0.474335
79.986 44.6597 -0.100357
535.719 30.5876 0.339984
544.856 16.417 -0.424091
352.838 22.4159 0.187993
548.213 26.2246 -0.300488
360.374 34.1565 -0.385691
247.545 14.3526 0.33371
445.844 36.9691 -0.0675978
684.572 8.53742 0.267382
197.556 6.21653 -0.376162
56.952 6.98388 -0.110854
70.2571 8.94938 -0.293184
696.739 9.24241 0.656492
23.9335 11.6867 -0.299886
621.205 55.8537 0.35321
684.502 33.6126 0.353521
177.005 32.5888 -0.282508
758.661 55.5054 -0.118483
35.6715 28.5039 0.121022
548.806 3.04088 0.322493
145.339 7.48799 -0.486416
609.603 34.2174 0.369989
520.04 27.3141 0.111842
179.069 0.953755 0.272206
33.4646 2.35103 -0.342046
358.205 17.8176 0.2593
635.418 58.011 -0.13919
474.172 35.6633 -0.179366
411.044 1.0296 0.196022
707.234 10.2461 0.429073
26.9664 43.6166 -0.235631
263.242 30.2042 0.291717
724.626 8.94681 0.352985
685.326 61.2752 0.332146
429.97 8.74071 -0.472809
585.377 3.85885 -0.393476
746.196 35.4648 0.407521
133.712 7.69415 0.275027
512.701 27.2944 -0.130771
491.356 15.3662 -0.0944394
302.769 16.6862 -0.340903
21.1286 13.535 0.27694
778.706 55.213 -0.300911
342.339 40.4091 -0.292452
683.396 28.9521 0.397819
696.776 16.23 0.244939
783.005 15.2973 -0.340907
477.846 35.983 0.163591
94.6661 38.6576 -0.27271
694.14 47.9312 -0.215091
661.972 49.0481 0.102594
800.509 53.826 -0.113151
779.512 0.78281 0.500951
299.554 28.927 0.44839
639.498 6.0699 -0.158912
24.801 5.14254 0.48314
136.325 39.289 0.135735
527.888 14.8224 0.219407
775.728 46.7164 0.466868
200.708 28.7829 0.246201
45.9926 35.5429 0.273495
507.903 1.16023 0.137616
242.477 8.74352 -0.394972
742.888 66.6322 -0.243549
763.14 45.1423 0.220953
372.17 20.7854 -0.261896
168.619 26.9107 0.43717
565.67 41.2388 -0.43894
391.832 15.0878 -0.492887
427.062 29.689 -0.10344
390.088 4.38956 0.407137
564.615 10.8307 -0.128725
799.608 11.958 -0.27111
82.3158 39.6233 0.409136
345.84 4.90817 -0.187943
578.097 9.44248 -0.492531
371.36 44.0276 0.448382
26.218 24.8319 0.475828
31.2437 5.74955 0.332301
586.717 36.7851 0.422222
520.99 25.2774 0.161052
26.4717 37.3683 0.405494
95.9732 31.0724 0.209974
335.771 15.9829 -0.290151
618.35 19.1581 0.113661
490.963 38.1623 0.309167
741.914 7.36793 -0.46085
733.474 6.00756 0.180453
399.954 37.2055 -0.0977429
650.758 31.8954 0.118267
245.868 17.1729 0.573381
340.996 3.68949 0.466989
106.379 31.5179 0.315161
119.961 24.749 0.258843
560.941 40.8741 -0.0669332
316.528 18.8351 0.490988
719.23 52.4539 -0.101598
689.774 61.2856 0.106752
496.359 20.9012 -0.353848
775.01 29.2922 0.352844
443.66 24.4015 0.219822
286.866 24.0193 -0.303864
687.235 46.9122 0.295898
287.965 29.4467 0.397696
595.693 12.6974 -0.202756
344.076 37.4739 0.208805
522.374 11.4446 0.485125
379.546 31.2252 -0.0899076
446.02 17.043 -0.104115
329.132 42.5164 -0.418117
196.8 29.9928 0.110123
771.801 68.8552 -0.146896
796.795 15.0769 -0.346761
6.07787 12.461 -0.433366
450.276 22.5466 -0.433558
39.3821 22.8078 -0.0890837
390.201 31.4573 -0.45811
409.731 24.4623 -0.275828
76.9703 11.6254 -0.525707
53.3488 33.1808 -0.444499
233.844 13.4771 0.456328
632.534 50.2225 0.379254
597.786 21.2468 -0.481557
77.2359 20.9534 0.486139
707.208 48.8544 0.416966
764.938 15.112 -0.485875
678.672 55.9733 -0.601842
704.242 2.16674 -0.654647
570.668 27.6364 -0.411789
607.47 44.175 0.554576
531.422 18.6131 -0.387792
791.46 5.6719 0.468666
231.774 24.8945 -0.118081
132.015 36.2595 -0.213155
256.351 6.55619 -0.376028
97.442 4.43521 0.274392
66.4938 10.1341 0.223884
286.204 36.4533 -0.310118
17.5837 24.8543 0.364861
577.352 21.3289 0.410796
623.368 51.2479 0.219033
480.782 21.3259 -0.352958
785.317 55.9572 0.363091
422.992 8.66004 -0.122355
452.653 37.0919 0.403497
557.276 3.51627 -0.196952
23.4985 23.7134 -0.390404
597.885 4.59355 0.522188
566.715 4.41855 -0.287149
213.854 11.3857 0.48711
441.934 16.2006 0.196241
323.572 6.36068 0.336935
403.615 18.9508 -0.321714
741.72 56.6862 0.106225
199.661 25.5393 0.398896
771.366 6.74784 0.341359
745.27 57.2576 -0.312875
398.836 10.265 -0.162387
722.943 2.34342 0.552606
624.232 28.099 -0.400814
742.362 20.8038 -0.35706
448.144 43.7613 -0.274201
516.8 12.4868 0.444847
484.562 45.2775 0.223098
463.86 8.89982 -0.153547
682.146 54.8921 0.265024
675.833 49.1011 -0.281411
199.151 39.0691 -0.331862
780.964 14.5964 -0.181701
608.879 44.1744 -0.33402
12.0046 17.2822 0.195191
424.081 25.6571 0.336181
194.472 22.9747 -0.396376
96.3547 39.634 -0.203635
773.186 42.5291 0.410368
674.665 59.5549 0.241914
331.915 25.7789 0.336662
554.132 10.2386 0.309299
85.1876 45.0543 -0.167558
257.047 25.7414 -0.475314
578.3 26.0004 0.365883
506.809 18.4117 0.42175
273.237 0.891201 -0.343039
574.994 43.4212 -0.384471
553.928 42.1933 -0.436957
502.866 32.9649 0.37997
519.932 0.830318 -0.545585
711.98 21.5109 0.405064
186.33 12.0436 0.155303
522.917 39.212 -0.411605
587.58 44.37 0.114219
75.5735 0.948635 0.273393
261.766 4.68263 0.159837
796.166 17.1809 -0.21282
782.683 17.2855 -0.479888
801.4 21.5322 -0.651183
315.944 8.57852 -0.23426
746.534 28.4369 -0.435978
423.71 42.3536 0.350213
468.016 0.799494 -0.408011
668.778 48.0886 -0.427123
27.7387 30.9198 -0.304452
344.244 42.1924 -0.494345
262.7 2.85391 0.329614
784.772 70.3298 -0.178042
718.787 67.2482 -0.121087
299.144 11.001 0.227433
680.882 39.3257 -0.0779846
580.068 2.5456 0.280003
564.322 6.5404 0.413635
100.41 18.532 -0.502505
315.886 1.03377 -0.227755
357.462 2.2976 -0.348544
14.3175 7.47059 0.379498
4.67379 31.4055 -0.237611
168.17 18.8011 0.365324
70.7666 41.8647 -0.221942
68.8747 28.948 0.319091
441.742 14.4873 -0.443468
382.385 34.9262 -0.467482
757.689 57.5747 -0.112422
20.0697 4.00865 -0.269431
73.2737 6.91283 0.139704
641.731 43.9488 -0.143055
306.996 0.951826 0.310442
380.622 16.203 -0.0892426
245.267 4.64702 -0.381584
669.594 28.933 0.171187
471.183 8.33866 0.420576
749.316 26.0246 0.389201
649.314 34.9898 0.290016
684.828 23.396 -0.0933958
439.12 26.9002 0.491139
106.116 45.5579 -0.310564
564.082 45.0079 -0.0849285
744.822 13.1672 -0.331416
248.168 31.1262 -0.258636
33.1909 17.3998 -0.166636
350.417 13.9442 0.491099
111.765 41.0496 -0.459655
278.815 42.6892 -0.211022
444.251 1.58536 -0.294099
778.415 49.075 -0.437464
698.384 0.744262 -0.539105
346.424 3.326 0.536557
313.053 26.4003 -0.153794
483.407 42.1805 0.22025
84.6763 7.99621 0.438154
205.761 45.112 -0.378073
764.631 46.2562 -0.415506
517.809 42.2545 -0.0144855
208.211 41.1071 0.280532
167.15 42.5657 0.208265
800.659 42.6701 -0.423439
798.294 13.4805 -0.46536
631.095 4.34096 -0.646719
198.137 24.4767 -0.09099
572.288 30.0816 0.0995099
574.329 29.9009 0.281779
427.618 5.72525 -0.131091
502.785 0.928164 -0.289388
755.722 61.5077 0.470667
88.2552 31.0427 0.213352
674.791 23.3273 0.463607
285.851 15.5484 -0.336217
9.84938 2.33852 -0.344631
130.566 37.8943 -0.187891
69.3762 23.4052 -0.451787
715.207 46.1238 0.30473
790.71 75.9858 0.160409
193.284 28.1267 -0.186871
792.269 15.245 0.573074
47.1398 37.5803 -0.259921
94.7023 29.2342 0.149971
655.492 17.2671 -0.423272
432.043 18.3067 -0.496426
541.504 16.5638 0.119747
248.578 29.2008 0.18643
644.457 5.52866 -0.683542
801.363 11.6852 0.544286
30.5775 31.8549 -0.265067
281.792 7.71646 0.191635
231.63 15.2515 0.258016
1.06963 35.8434 0.153175
234.921 14.7082 0.361165
220.638 11.0037 -0.139912
223.468 26.394 0.293969
138.269 27.886 -0.114024
570.449 15.6189 -0.366454
173.812 14.1762 0.352226
779.351 70.3482 0.22774
181.142 3.86597 -0.49953
49.6532 38.7042 -0.37841
733.196 63.7478 0.286444
293.383 31.9014 0.390944
688.407 33.5363 -0.482037
785.301 41.5435 0.547622
313.984 9.2023 -0.106338
737.842 37.5059 0.361253
343.313 2.56754 -0.395131
435.458 24.0062 0.364161
688.765 20.253 -0.474434
110.078 12.1047 0.498005
504.484 3.91934 -0.483749
753.192 25.4845 -0.180071
91.9248 7.79943 -0.233984
294.011 14.8644 0.173504
442.888 11.7058 -0.238502
792.07 2.69614 -0.443496
416.065 1.94966 -0.528459
184.038 40.0377 0.340736
747.448 11.0312 -0.535272
133.865 37.293 -0.209122
274.316 31.5747 -0.391635
418.59 22.089 0.209534
598.274 14.485 -0.304971
404.783 9.85558 -0.487312
476.33 28.2738 -0.463966
767.392 70.9099 0.38485
49.5301 10.934 -0.103103
312.475 39.2264 -0.27538
396.761 26.1758 -0.403892
428.323 21.108 0.239165
542.864 46.3107 0.356494
753.271 58.4238 -0.185266
681.916 48.2927 -0.355302
235.258 34.3338 0.393463
14.4681 33.1464 0.153173
677.909 49.1579 -0.122549
530.528 45.6705 0.435131
239.371 39.1095 -0.11707
695.865 39.2033 -0.127287
157.347 9.31936 0.203604
383.452 22.0351 0.295976
485.238 43.1877 0.115511
433.034 19.6758 0.206425
763.693 70.3908 -0.305348
445.793 3.84027 0.503453
51.5967 25.4949 -0.31497
491.054 31.8159 0.334001
454.436 41.8331 -0.378289
776.648 55.619 -0.238044
734.897 38.7282 0.22666
565.398 20.2642 -0.179922
770.68 60.1814 -0.44982
306.298 2.18706 -0.451094
396.765 29.2035 -0.458599
29.7792 39.0792 0.310209
740.984 37.6543 0.14126
632.534 21.7244 -0.485969
483.948 0.77262 -0.472384
131.084 4.56787 0.271533
445.807 41.2872 -0.0978201
12.3551 0.919429 0.345327
789.869 9.086 -0.0997347
386.746 39.0677 0.30283
636.09 7.26227 0.414955
[...]
POINT_DATA 13483
TENSORS Strain_matrix float
-1.04438 -0.0556989 -0.514111 
0.618397 0.510805 -0.130148 
2.19263e-18 2.03732e-18 1 

-0.105053 -0.357792 -3.16326 
0.341719 0.271158 2.77098 
-5.83721e-18 -9.09807e-18 1 

-0.0928947 -0.0273831 -0.730034 
0.0175649 -0.0563663 0.78253 
-1.64198e-17 0 1 

-0.795989 0.410279 -0.0821715 
-0.253212 0.33047 -0.588598 
9.8333e-18 7.64259e-18 1 

-0.267503 -0.0558677 0.0974428 
-0.0397712 -0.00183123 -0.295868 
2.87168e-18 -6.73051e-18 1 

-0.0631675 -0.0596341 0.200154 
0.0444819 -0.0327851 -0.0815124 
-5.96642e-18 -2.10719e-18 1 

-0.0884978 -0.0197302 -0.0430591 
0.0172284 -0.0548215 -0.286068 
1.00045e-17 -8.16541e-18 1 

-0.106931 -0.0784829 -0.127568 
0.0679512 -0.0767932 -0.0471431 
-4.60965e-18 -1.42278e-17 1 

-0.127167 -0.0665508 0.0772529 
0.211459 0.116363 -0.666829 
-1.68314e-18 -1.03038e-17 1 

-0.335833 0.0628345 -0.127625 
0.00699729 -0.0862707 0.17354 
5.63926e-19 4.72288e-18 1 

-0.0603797 0.0177343 -0.161002 
-0.00624554 -0.0550484 -0.0216296 
-7.8957e-18 7.90613e-18 1 

-0.0960693 -0.0268094 0.0764582 
-0.0363704 -0.0721213 0.279457 
-3.25081e-18 -6.33908e-18 1 

-0.307563 0.00532512 1.5724 
0.449062 0.164604 -0.322329 
-1.07163e-18 2.37245e-18 1 

-0.231263 -0.037654 0.0341341 
0.152855 0.0211675 0.13624 
5.29801e-19 -2.75938e-18 1 

-0.0961287 -0.00335993 -0.960405 
-0.0186598 -0.044619 0.183081 
-5.13743e-18 -4.23083e-19 1 

-0.115583 -0.00680528 -0.470643 
-0.0547811 0.0111467 1.09878 
5.2128e-18 -8.40829e-18 1 

-0.0623078 -0.000920518 -0.0468267 
0.0119223 -0.129903 -0.0748895 
2.78035e-18 5.5607e-18 1 

-0.142225 -0.0124516 -0.0414541 
0.0126241 -0.0737434 -0.00452992 
-1.85901e-18 -9.85273e-18 1 

-0.152324 -0.144178 -0.0944932 
0.044065 0.206168 0.612564 
8.65775e-18 -5.69453e-18 1 

-0.108053 0.0388045 0.344717 
-0.10497 -0.0894396 0.365228 
-2.82712e-18 -1.80184e-18 1 

-0.194273 -0.329639 -0.107484 
-0.0849021 0.0452079 0.0782685 
3.20267e-18 3.28109e-18 1 

-0.423951 0.380479 0.292629 
-0.462197 0.386843 0.0601869 
2.10899e-17 -3.63023e-18 1 

-0.732484 0.273991 2.61788 
-0.33615 0.352925 1.60064 
-6.45714e-18 3.4724e-18 1 

-0.50584 0.0466635 9.01516 
0.487308 0.0249276 -1.06527 
-2.05408e-18 1.15933e-17 1 

-0.130085 -0.132086 0.163445 
0.0445678 -0.0121792 0.0516919 
-9.85951e-18 8.85597e-18 1 

-0.0480503 -0.0608475 -0.254223 
0.0289632 -0.0218084 0.0305462 
4.89484e-18 1.27345e-17 1 

-0.115493 0.0345347 2.85655 
0.0527845 0.0102909 2.21126 
2.96065e-18 -6.68249e-18 1 

-0.244798 0.144722 -0.17655 
0.206707 -0.027802 -1.09761 
1.9399e-17 -5.44322e-18 1 

-0.101913 -0.0126021 0.290632 
0.00595044 -0.0573929 -0.0966183 
-3.88681e-18 -1.37453e-18 1 

-1.17294 -0.242828 -0.0370648 
0.0486564 0.355132 -0.284469 
3.48304e-18 -5.07025e-18 1 

-0.0967098 -0.0377891 -0.199776 
0.000742211 -0.137361 0.274104 
8.39392e-18 -4.71789e-18 1 

-0.0742563 0.188066 -0.0367313 
-0.0827756 -0.075836 -0.141566 
5.92703e-18 2.4696e-18 1 

-0.229815 -0.596849 -0.373745 
0.646396 0.430239 0.293949 
-1.40647e-17 9.71136e-18 1 

-0.1611 0.0571156 -0.660952 
-0.0038922 0.0434559 -0.325308 
7.54225e-18 2.05984e-17 1 

-0.0380688 -0.018592 0.0196516 
-0.0224942 -0.0679713 0.0564674 
-1.41699e-18 1.11588e-17 1 

-0.119095 -0.360275 -1.00561 
-0.305581 0.0593888 0.225337 
-1.55168e-18 -5.86191e-18 1 

-0.101411 0.0475473 -1.91246 
0.0227129 -0.0602591 -0.134091 
1.84059e-17 1.62704e-18 1 

-0.020434 0.0448984 0.230577 
0.00315374 -0.0758029 0.119261 
-5.50669e-19 3.71701e-18 1 

-0.145395 -0.0732173 0.322725 
0.196075 -0.00541351 -0.097574 
-3.84789e-18 -2.13772e-18 1 

-0.0643962 -0.123851 -0.421649 
0.0555813 0.0578669 -0.451017 
-3.47647e-18 -1.06679e-17 1 

-0.130949 0.00161049 0.0230488 
-0.0925341 -0.0259125 -0.141155 
7.92954e-18 -3.18537e-18 1 

-0.0487238 -0.156157 -0.0375811 
-0.0634077 -0.108673 0.224887 
5.92519e-18 7.31068e-18 1 

-0.361331 0.0399643 -0.00461692 
-0.101037 -0.0225436 0.109024 
2.10895e-18 1.22124e-17 1 

-0.0490302 -0.00808091 0.0139328 
0.0156031 -0.0834245 0.395611 
6.1372e-18 -7.75673e-18 1 

-0.0743872 0.037257 -0.0338397 
-0.0307423 -0.0821785 0.151592 
1.14817e-18 1.7103e-18 1 

-0.0946216 0.00741311 0.0808478 
0.00533519 -0.0527016 0.0102715 
9.14821e-18 -2.63891e-20 1 

-0.735885 -0.108481 3.90289 
0.063607 0.139011 -1.15657 
3.42338e-18 9.42528e-18 1 

-0.061211 -0.00623577 0.0212497 
-0.00284605 -0.1289 0.00762835 
4.11718e-18 -6.64701e-18 1 

-0.426363 0.470962 3.17302 
0.22545 0.909171 2.22224 
2.77568e-18 -1.4212e-17 1 

-0.604749 0.0977348 2.62356 
-0.00237062 0.1878 -1.51006 
-1.05119e-17 -4.26545e-18 1 

-0.053456 -0.145509 0.299019 
0.0489011 -0.0144645 -0.181946 
-4.95921e-19 -5.76508e-18 1 

-1.53603 -0.240203 3.217 
0.49799 0.481584 1.50547 
-1.06682e-17 5.76738e-18 1 

-0.0911885 -0.0148803 -0.152416 
-0.0193943 -0.0119324 -0.0498236 
-3.8234e-18 -1.89137e-18 1 

-0.146865 0.0476105 0.114224 
-0.0193561 -0.0322792 -0.0181193 
-3.61152e-18 -6.42047e-18 1 

-0.0996755 -0.0191855 -0.460839 
-0.0234237 -0.0862498 -0.326183 
8.29233e-18 3.78096e-18 1 

-0.0347785 -0.0131448 -3.49973 
0.0148944 -0.0600156 -6.89327 
2.70694e-18 7.36721e-19 1 

-0.0089995 0.31482 -0.769272 
0.170564 -0.101379 -0.0235006 
-5.74635e-18 -8.02839e-18 1 

-0.0887807 -0.0116353 0.153512 
-0.00175572 -0.0839669 -0.0380686 
3.40788e-18 -8.91132e-19 1 

-0.0558983 0.0119295 -0.161885 
-0.0343049 -0.135581 -0.219206 
-3.02422e-18 1.82363e-18 1 

-0.0906979 0.00506796 -0.13116 
-0.0551222 -0.0475432 0.0585466 
-7.8728e-18 9.98502e-18 1 

-0.600399 -0.136724 0.749422 
-0.101991 0.971002 1.9676 
-3.71853e-18 9.3671e-18 1 

-0.315764 -0.230996 -1.70513 
0.0348833 0.249182 -0.0256225 
-4.61104e-18 -2.23222e-17 1 

-0.0947426 -0.0980568 -0.25857 
-0.0102697 -0.0502545 -0.0784354 
1.88368e-17 -8.60938e-18 1 

-0.418699 0.0727398 -0.177998 
-0.00746134 0.127811 0.393899 
1.22276e-17 1.35425e-17 1 

-0.126532 0.131953 -0.127926 
-0.0557059 0.0360307 -0.258335 
2.00789e-19 -1.5009e-17 1 

-0.035451 0.0116885 0.0919965 
-0.0241117 -0.122225 0.457191 
-8.61623e-18 4.30812e-18 1 

-0.326157 0.167728 0.0762391 
0.0660788 -0.191369 -0.452829 
9.19865e-19 5.01326e-18 1 

-0.0584473 -0.353707 0.144795 
0.453975 0.0791315 0.541107 
-1.86634e-19 2.5598e-17 1 

-0.117572 -0.00209732 0.0721344 
-0.0613002 -0.0646332 0.366954 
7.74005e-18 -3.82938e-18 1 

-0.217886 0.118017 -0.321787 
-0.125404 -0.0336551 -0.948099 
-2.50119e-18 -1.61014e-17 1 

-0.965753 0.702951 -1.23413 
-0.289924 0.388397 0.669365 
4.83531e-18 -2.4726e-19 1 

-0.0613778 -0.00308728 -0.0688948 
-0.000563093 -0.0675426 0.0179015 
6.42488e-18 -4.34434e-18 1 

-0.00748006 0.0680826 0.190484 
0.090769 0.0868623 -0.321719 
1.04258e-17 4.6094e-18 1 

-0.144112 -0.0688531 0.627531 
-0.035326 -0.033374 0.156605 
6.64685e-18 1.25687e-17 1 

-0.0788725 -0.015892 -0.550723 
-0.00748155 -0.0604958 -0.730966 
-8.80719e-18 8.69154e-18 1 

-0.0723931 -0.000709782 0.116977 
-0.0307118 -0.0999177 0.141163 
-8.54387e-18 -1.14106e-17 1 

-1.63087 -0.199118 -6.64277 
0.0675 0.378338 0.690877 
-3.66403e-18 2.22715e-18 1 

-0.0600208 -0.143516 -0.197602 
0.0694421 -0.0786105 0.409378 
-4.25103e-18 9.30589e-18 1 

-0.767683 -0.259516 0.967538 
0.363052 0.455154 0.561003 
6.63187e-18 -1.88259e-17 1 

-0.41488 -0.111063 -0.130249 
-0.131969 0.0789086 -1.38781 
1.2897e-17 5.22851e-19 1 

-0.539994 -0.218351 0.104075 
-0.0310026 0.0842292 0.196696 
2.39339e-18 1.94884e-17 1 

-0.0490488 -0.0171615 0.974437 
-0.0447128 0.0308261 0.231076 
6.80867e-18 -9.14916e-18 1 

-0.0330306 -0.00581471 -0.811094 
-0.00306094 -0.050913 0.251711 
3.82899e-18 -3.21046e-18 1 

-0.387651 0.977018 -7.17317 
-0.476244 0.409014 0.177373 
-6.44777e-18 -9.63704e-18 1 

-0.137545 -0.221951 -0.761943 
0.279013 0.0864835 0.648676 
-1.33873e-17 -5.94211e-18 1 

-1.44772 -0.510683 -0.220206 
-0.151247 0.543919 0.765684 
-7.53302e-18 -1.00027e-17 1 

-0.796472 -25.7029 -1.5712 
0.0781373 0.174152 -0.0139471 
-5.3564e-18 -1.35575e-16 1 

-0.0810648 0.135683 0.193239 
-0.0658191 -0.0780458 -0.483052 
-3.60128e-18 2.70096e-18 1 

-0.183468 -0.247297 -0.17557 
0.232151 -0.0581196 -0.0217517 
7.84423e-18 1.46317e-17 1 

-0.121059 0.0143715 -0.279513 
0.0168952 -0.0655629 -0.464123 
5.81728e-18 8.24972e-18 1 

-0.112437 -0.0856194 -0.0501049 
-0.0475086 -0.015907 0.270498 
6.22184e-18 -5.76096e-18 1 

-0.126526 -0.0121514 -0.00502316 
0.057067 -0.0736264 0.181218 
-6.2897e-18 -1.84991e-18 1 

-0.693838 -0.633453 1.49978 
-0.185813 0.240765 -1.37845 
3.73841e-18 1.19877e-18 1 

-0.156631 -0.0713172 0.214842 
-0.042182 0.00908943 -0.0537316 
5.09987e-18 -2.24394e-18 1 

-0.10698 0.285801 1.3468 
0.0824363 0.0105609 -0.649715 
1.19827e-17 1.57302e-18 1 

-0.134992 0.0600157 -0.0809956 
-0.00212282 -0.0305107 -0.0244505 
3.31818e-18 2.47266e-17 1 

-0.11953 0.0423954 -0.0184578 
-0.0099769 -0.0380118 0.0635056 
-7.20874e-18 1.04711e-17 1 

-1.1647 -1.88332 -1.47376 
-0.087555 0.480063 -0.675464 
2.17388e-18 4.01332e-18 1 

-0.863017 -0.617573 0.402969 
-0.112776 0.286642 -0.542816 
-6.44067e-18 1.36245e-18 1 

-0.0400155 -0.0455861 0.0143647 
-0.00799109 -0.0471032 0.29559 
-2.25765e-17 1.3215e-17 1 

-0.0505527 -0.015983 -1.43919 
0.0158062 -0.0133641 0.690243 
6.56021e-18 -2.64169e-19 1 

-0.150137 -0.136975 0.330654 
0.103736 0.0408748 0.592404 
-4.1631e-19 -5.09237e-19 1 

-0.0935884 -0.0281913 0.171041 
0.0250877 -0.0721477 0.989054 
-6.80854e-20 1.49788e-18 1 

-0.094309 0.0421039 0.0070429 
-0.0701617 0.00570335 -0.260277 
-5.1208e-18 1.08298e-17 1 

-0.0797147 -0.0203305 0.0879437 
-0.00266229 -0.0920602 0.221608 
2.7357e-18 -5.19437e-19 1 

-0.154632 0.178334 -0.0262672 
-0.227905 -0.0558504 -0.170171 
1.48548e-17 9.53644e-18 1 

-0.842556 -0.258131 -0.328551 
-0.436895 0.244753 0.290349 
3.32735e-18 2.95765e-18 1 

-0.102626 0.000474885 -0.394484 
-0.0297249 0.0167444 0.0455204 
2.00333e-18 -6.40722e-18 1 

-0.124475 0.0225298 0.132027 
0.0608848 -0.107249 -0.0729466 
6.74673e-19 4.52995e-18 1 

-0.262065 0.0370164 -0.600784 
-0.0934469 0.0216095 -3.48081 
-2.81811e-18 5.83191e-18 1 

-0.108923 -0.000247333 -0.360999 
-0.051147 0.0266198 4.62415 
-7.52333e-19 -7.54579e-18 1 

-0.0885991 0.00211737 -0.417451 
0.0212179 -0.0208632 1.20833 
-5.36693e-18 -8.20354e-18 1 

-0.0748623 0.0278588 -0.0328954 
-0.0172168 -0.106466 0.0135181 
5.5568e-19 -5.97356e-18 1 

-0.218509 -0.00653557 -3.06493 
0.165936 0.155863 2.13215 
6.03571e-18 -3.56471e-18 1 

-0.143713 0.511065 -0.803469 
0.163447 0.0584357 -0.0330017 
8.62181e-19 1.50353e-18 1 

-0.084942 -0.0088682 0.734082 
-0.0342329 0.0122256 -0.269796 
1.07608e-17 5.16663e-18 1 

-0.091724 0.0980638 0.35334 
0.023199 0.0392338 0.134419 
1.56513e-18 1.4347e-17 1 

-0.0837829 -0.0299193 -0.0417903 
0.130339 -0.00505769 -0.013755 
-1.09554e-17 5.50764e-18 1 

-0.320075 -0.254034 0.312429 
0.243506 0.165888 -0.395619 
5.7296e-18 1.0756e-17 1 

-0.0991797 0.11059 0.127757 
-0.0747753 -0.00255177 0.0870104 
-8.9057e-18 -7.46153e-18 1 

-0.379127 0.00989028 -0.0847069 
-0.0206191 -0.164408 -0.425676 
1.17485e-19 1.99137e-17 1 

-0.414601 0.160556 -0.33355 
0.184301 0.00427297 -0.00798061 
-4.34475e-17 -1.27407e-17 1 

-0.0661748 0.00614707 0.0841484 
-0.0216873 0.00177057 0.00379048 
3.35217e-18 2.10136e-18 1 

-0.0885812 -0.162601 -0.106843 
0.172769 -0.0466279 0.121028 
-4.7214e-19 -2.93776e-18 1 

-0.0908818 -0.00642671 -0.247087 
-0.00490874 -0.0250874 1.239 
6.68718e-19 -1.16431e-18 1 

-0.0897662 0.0347759 -0.449233 
-0.0143246 -0.147219 0.30188 
-6.36189e-18 -7.94429e-18 1 

-0.158339 -0.0675861 0.389685 
-0.00515821 0.0382107 0.155112 
-1.40331e-18 4.19575e-18 1 

-0.198181 0.00765505 -0.137973 
0.0772224 0.122714 -0.159214 
-2.57195e-19 -1.5646e-18 1 

-0.0394938 -0.154646 -0.0873884 
0.134253 -0.00312953 -0.111641 
-3.05377e-18 1.67144e-18 1 

-0.089708 0.0309495 0.168877 
0.00187378 -0.0472394 2.60307 
-5.1644e-18 1.96831e-18 1 

-1.88816 -0.320508 0.634125 
-0.084539 0.705128 -2.10859 
-1.06842e-17 1.79315e-18 1 

-0.0816238 0.0608694 -0.158702 
-0.0205301 0.0261088 0.0654581 
-1.38048e-17 1.07244e-17 1 

0.00130352 0.127626 0.903743 
0.111862 -0.0341907 0.407321 
-7.47346e-19 -2.35829e-17 1 

-0.368132 -0.322617 -1.60766 
0.344382 0.150614 -1.61548 
1.97817e-17 -5.05986e-18 1 

-0.208733 -0.0951656 -0.294408 
-0.0513189 0.146697 0.293875 
2.03037e-17 -2.24132e-18 1 

-0.109963 0.000535554 0.121575 
-0.0837242 0.0273225 0.257166 
-1.41228e-17 -2.3006e-18 1 

-0.940201 0.0576825 -1.81627 
0.0656164 0.342228 -0.102596 
9.611e-18 -2.34554e-18 1 

-0.12269 -0.0386451 0.996191 
0.143281 0.0241126 -1.01018 
-4.99453e-18 -1.01265e-17 1 

-0.1103 0.00193886 0.0213823 
0.0405474 -0.0408846 0.101701 
-1.24642e-17 -2.52943e-18 1 

-0.120245 -0.171164 -0.229034 
-0.134519 0.0118179 -0.518526 
-3.66088e-18 -8.77547e-18 1 

-0.140266 -0.0467956 -0.0739181 
0.0415984 -0.0417955 -0.053126 
-3.07586e-19 -2.80139e-18 1 

-0.0365486 -0.127387 -0.0857509 
0.075916 -0.040131 0.123494 
-4.37789e-19 -1.01567e-17 1 

-0.0722567 -0.0705589 -0.470594 
0.262115 0.0122274 -0.500155 
1.00465e-17 2.11733e-18 1 

-0.0671111 -0.0489722 0.00526731 
0.0555491 0.0250554 -0.140877 
-4.53936e-19 -7.94389e-18 1 

-0.0635173 -0.0847752 0.1807 
0.0901685 0.0197387 0.174006 
-2.86328e-20 1.21403e-17 1 

-0.077394 -0.773124 0.423637 
0.397258 0.321326 -0.249978 
-1.03359e-17 -1.99828e-17 1 

-0.63694 0.180767 0.405034 
-0.316657 0.176244 -0.0370783 
5.36061e-18 3.07508e-18 1 

-0.103798 0.0308904 -0.477874 
-0.0790599 -0.0715691 -0.225808 
1.60645e-18 1.64425e-17 1 

-0.076672 0.0301627 -0.361683 
-0.00331425 -0.0715846 0.287623 
-1.51046e-17 6.51638e-18 1 

-0.0853952 -0.00494631 0.188572 
-0.0409061 -0.0373404 0.218645 
-3.79267e-18 -7.27106e-18 1 

-0.0699597 -0.0764479 6.44855 
0.0471705 -0.0153623 1.69481 
-6.15826e-18 -7.05232e-18 1 

-0.187469 -0.0722243 -0.257691 
0.228536 0.102822 -1.2499 
6.14352e-18 -7.95424e-18 1 

-0.111803 -0.0504941 -0.307251 
0.00656724 -0.0332648 0.547828 
-7.90488e-18 3.61312e-18 1 

-0.121683 0.0487543 -1.85092 
0.0427106 0.0104517 -0.274112 
-2.93103e-18 -4.62272e-18 1 

-0.0911034 0.012376 0.0393757 
-0.00210381 -0.0420824 0.158468 
2.38038e-18 -1.15574e-17 1 

-0.150089 1.21105 1.24021 
-0.664434 0.657313 -0.0992806 
4.28256e-18 -5.20852e-18 1 

-0.0577014 0.00493871 0.177851 
-0.0236038 -0.00335267 -0.0782224 
-2.87398e-19 -1.19497e-17 1 

-0.0767142 -0.00669757 0.736841 
-0.00680126 0.0136301 -0.303649 
6.27515e-18 3.79324e-18 1 

0.494312 -1.37316 7.85815 
0.706104 0.998568 1.54633 
-3.51992e-18 3.42563e-18 1 

-0.764267 0.525569 8.20726 
0.362877 0.390677 3.56092 
-2.04055e-17 9.81033e-18 1 

-0.532235 -0.305838 58.6845 
0.0492574 0.452369 -15.1406 
2.2028e-18 2.58381e-18 1 

-0.504893 -0.302198 2.20315 
0.0711519 0.113821 3.00286 
1.62482e-18 6.28304e-18 1 

-0.166934 -0.141458 1.98277 
0.255068 0.0954784 0.416068 
1.86343e-17 4.61634e-18 1 

-0.292934 -0.187349 -34.5599 
0.00897049 0.363691 37.9 
3.34189e-18 -9.1369e-19 1 

-0.216527 -0.0907744 -0.00722674 
-0.0196753 0.072724 0.070277 
1.41167e-17 2.347e-18 1 

-1.15159 0.0309079 -0.139083 
0.0550519 0.25664 -0.295284 
3.77329e-18 -1.22632e-17 1 

-0.0351412 0.0239073 0.0378136 
-5.95281e-05 -0.0793074 0.0699337 
-1.58242e-18 -1.91085e-18 1 

-0.175759 -0.0465469 0.090748 
-0.00839516 -0.0600243 -0.0455733 
1.10849e-17 2.02772e-18 1 

-0.043248 -0.0586961 -0.0460299 
-0.00249444 -0.11279 0.11606 
-2.73086e-18 1.51365e-17 1 

-0.170283 -0.00462695 0.0777121 
0.0184329 -0.00920217 -0.456623 
-8.49562e-18 -5.65428e-18 1 

-0.0961322 -0.00215545 -0.0426297 
-0.00585677 -0.0604802 0.0887949 
-8.63188e-18 2.85227e-18 1 

-0.0520846 0.0694109 -0.119766 
0.0631381 -0.0314286 -0.255518 
-2.92503e-18 -6.56398e-18 1 

-0.207501 -0.0438391 0.262027 
-0.0714975 0.0264134 -0.392955 
5.05639e-18 6.1098e-18 1 

-0.313388 -0.015117 1.88296 
-0.0128102 0.160615 0.599648 
-7.27782e-18 -1.42702e-18 1 

-0.137297 -0.507415 -1.07064 
0.544428 0.305182 -0.0843858 
1.57041e-18 9.02363e-18 1 

-0.0624297 -0.0837436 0.167727 
-0.0600665 -0.0270441 0.490076 
8.91897e-18 -5.49472e-18 1 

-2.03161 0.404317 9.53427 
-0.856879 0.545742 -2.02203 
2.08483e-17 2.01934e-18 1 

-0.122141 -0.030455 0.0546829 
0.0118912 -0.0362531 -0.110444 
1.96467e-18 -1.20163e-18 1 

0.00860281 0.0983839 -0.988134 
-0.0574266 -0.045752 0.958548 
1.47692e-18 1.39941e-17 1 

-0.229401 0.0161961 -0.242319 
0.00376768 -0.0408119 -0.137219 
5.73586e-18 -3.59914e-18 1 

-0.143892 0.00329476 -0.0849866 
-0.0590697 0.0775586 0.2746 
-2.83895e-18 3.40674e-18 1 

-0.339606 0.102903 -0.636754 
-0.202313 0.0353988 0.0626916 
7.42981e-18 1.0704e-17 1 

-0.0961691 -0.046996 -0.0874275 
-0.0233766 -0.0458331 0.156649 
9.58925e-20 7.78505e-18 1 

-0.0907665 0.0126656 -0.442768 
0.0168983 -0.0619606 -0.652744 
-5.5484e-18 -5.36296e-18 1 

-0.205195 -0.0180161 -0.096376 
0.0266767 -0.0342559 -0.422353 
1.11702e-17 7.43104e-18 1 

-0.126025 -0.0114733 0.114177 
-0.0558458 -0.0458167 0.134573 
1.3132e-17 -8.14181e-18 1 

-0.0909322 -0.0335177 0.356946 
-0.0622471 -0.0390028 0.448393 
-2.9815e-18 -8.53311e-18 1 

0.892313 -1.16668 0.415978 
1.12513 1.78833 1.06801 
1.21749e-17 9.60093e-18 1 

-0.10962 -0.0701339 0.228244 
0.0106978 -0.0205545 0.0673458 
-1.36374e-18 -1.50011e-18 1 

-0.251959 -0.142032 -0.152049 
0.0992054 0.0143237 0.284122 
-9.01343e-18 -1.76211e-17 1 

-2.04863 -0.158026 9.53671 
0.839005 1.11275 1.6265 
8.47522e-18 1.02836e-17 1 

-0.0931755 -0.0845355 -0.0273231 
0.0623803 -0.0519088 0.0516233 
-1.09313e-17 2.63524e-18 1 

-0.718827 -0.466598 -0.786646 
0.247832 0.464682 0.150176 
-9.28858e-18 1.17329e-17 1 

-0.758799 -0.414412 -0.138708 
0.359979 0.483652 1.42936 
-1.57753e-18 4.01554e-18 1 

-0.921543 -0.504059 -1.51945 
-0.184556 0.365769 0.593501 
-1.67839e-17 5.84936e-18 1 

-0.108283 0.0730489 0.0954669 
-0.116755 -0.0544587 0.287357 
-1.36633e-17 1.71461e-17 1 

-0.153794 0.0862949 -0.152334 
-0.0963228 -0.0289926 -0.266564 
8.66209e-18 1.19355e-17 1 

-0.138049 0.0948081 -0.113709 
-0.125967 -0.0768814 -0.107501 
2.53776e-18 -7.88042e-18 1 

-0.156081 0.0111431 0.0236545 
-0.0819438 -0.0412927 0.128227 
3.38619e-18 1.29291e-18 1 

-0.0991069 -0.276189 0.620255 
0.217494 0.063659 0.2275 
7.54912e-18 4.60228e-18 1 

-0.124476 1.37721 4.04735 
-0.180408 0.363908 0.741323 
-5.70838e-18 -8.47495e-18 1 

-0.0604355 0.0513075 0.0706364 
-0.0534914 -0.0475748 0.00551131 
-2.10597e-18 -3.35801e-18 1 

-0.406842 -0.341658 -0.279401 
0.264692 0.125343 0.165209 
3.16518e-18 9.9963e-18 1 

-0.841974 0.0862835 -0.69533 
0.0945815 0.432843 -2.13557 
1.0807e-18 1.27882e-17 1 

-0.185608 0.0595586 -0.271037 
-0.00384451 0.0592055 0.116633 
-4.58284e-18 -5.89222e-18 1 

-0.0476661 -0.00288759 0.0604196 
-0.0704182 -0.0420876 -0.190747 
-7.13094e-18 4.73565e-18 1 

-0.0813118 -0.020051 -0.363525 
0.037021 -0.0251556 -0.141961 
-4.3842e-18 -1.03816e-17 1 

-0.061191 -0.0452727 -0.155357 
0.0760077 -0.0353847 0.181426 
-9.60513e-19 1.24313e-17 1 

-0.51858 -0.32229 1.10312 
0.182876 0.261953 2.40684 
1.26148e-18 -4.88825e-18 1 

-0.11815 -0.387677 -0.213236 
0.340369 0.183953 -0.259549 
-9.85017e-19 1.92305e-18 1 

-0.138905 0.220242 -0.273363 
-0.0459914 0.117956 -0.268142 
4.9004e-18 -6.38538e-18 1 

-0.145772 0.00382895 0.344023 
0.0147958 -0.0330505 -0.640095 
1.223e-19 -4.12941e-18 1 

-0.0669077 0.116415 -0.0519864 
0.00347035 -0.109302 0.264876 
-3.65305e-18 1.03474e-17 1 

-0.0922256 0.0271732 1.68883 
-0.0178739 0.00845673 2.03695 
-1.04185e-18 2.16371e-18 1 

-0.540876 0.0373536 1.47822 
0.106135 0.284514 -1.30791 
-4.76686e-18 9.30119e-19 1 

-0.0537443 0.0172598 0.136924 
0.0141055 -0.0514499 0.278991 
-5.75347e-18 2.30139e-18 1 

-0.100113 -0.02203 0.0553888 
-0.00456719 -0.144232 0.0483915 
-5.13465e-19 -5.60737e-17 1 

-0.0933647 -0.193106 0.852156 
0.192536 -0.000696555 -0.247276 
1.33999e-18 -8.55794e-19 1 

-0.184756 -0.13082 1.41506 
0.163074 0.0440954 0.107626 
1.0072e-17 -1.5396e-18 1 

-0.129348 0.110621 -0.554525 
0.121947 -0.0903543 1.06573 
1.21837e-17 8.90179e-18 1 

-0.170589 0.357943 4.61576 