# vtk DataFile Version 3.0
Output file generated by Yade's KinematicLocalisationAnalyser
ASCII
DATASET UNSTRUCTURED_GRID

POINTS 13483 float
649.816 28.5887 -0.442135
844.109 54.7969 -0.470449
126.829 6.04714 -0.4654
875.701 6.79531 -0.377632
529.604 7.55623 -0.303178
332.436 34.6531 -0.458515
165.293 6.78012 0.425103
607.241 10.0058 0.151364
526.92 22.1075 0.133291
782.102 12.9772 -0.463808
222.191 8.79102 -0.0999002
271.247 6.33398 -0.282281
701.381 29.9459 -0.137861
678.69 14.192 0.0874439
144.808 16.813 -0.442199
233.38 34.3047 -0.394072
229.806 12.913 0.273858
304.908 9.49444 0.388025
358.662 32.5985 0.435733
557.008 8.52167 0.346025
434.793 35.9894 -0.0985625
631.395 42.9322 -0.271315
873.848 39.1438 -0.467461
754.792 40.6419 0.470699
486.011 15.9133 0.29711
253.968 43.9955 0.123582
521.791 26.7865 -0.48297
625.254 20.0036 0.228938
47.6323 15.2669 -0.455938
777.279 31.8789 -0.341107
511.315 4.86165 0.321564
17.4524 22.7904 -0.286129
858.415 56.9675 0.218126
525.153 2.47543 0.483721
82.8839 43.949 -0.100451
554.22 29.9597 0.333351
563.646 16.5265 -0.416592
363.392 22.1033 -0.168373
567.405 25.3432 -0.318415
370.746 32.8747 -0.396009
254.533 14.498 0.301174
459.8 36.0992 -0.0698732
729.465 6.91812 0.141494
203.687 6.17557 -0.378626
58.7589 6.89076 -0.122669
72.5603 8.83824 -0.288147
747.046 8.63943 0.470345
24.8168 11.6931 -0.296932
653.311 45.3696 0.376313
732.103 24.0179 0.30237
182.347 32.1732 -0.284178
835.083 41.2056 -0.119111
37.2274 27.8532 0.115617
567.924 2.96454 0.317169
150.226 7.46501 -0.473356
634.823 33.431 0.365562
535.947 26.8507 0.113587
184.721 0.946905 0.260335
34.6017 2.37145 -0.321747
368.797 17.5288 0.26093
665.06 46.3011 0.138047
489.96 33.8444 -0.177414
422.838 1.0359 0.192596
759.399 7.6257 0.373556
28.0473 42.5981 -0.235665
271.14 30.1479 0.285711
782.292 8.68211 0.278772
722.646 46.2195 0.355385
442.341 8.56338 -0.481209
608.135 3.49064 -0.345093
813.491 29.6687 0.371244
138.287 7.61613 0.272012
529.917 25.2879 -0.125422
506.858 14.8261 -0.116797
311.429 16.5952 -0.3371
21.8851 13.507 0.255148
858.455 42.8959 -0.322631
351.853 38.9206 -0.278716
729.242 21.608 0.352422
746.873 12.6692 0.272585
863.047 13.149 -0.291555
493.39 34.2469 0.165625
97.8066 37.9316 -0.26331
741.322 35.3909 -0.227129
696.84 39.8858 0.0951932
881.941 47.9969 0.0983679
857.017 0.736279 0.509847
308.026 28.6108 0.434655
666.937 6.38648 -0.115186
25.7416 5.18614 0.458211
140.641 37.9437 -0.143851
545.546 14.2406 0.213805
851.133 31.7726 0.469207
206.95 28.4218 0.233651
47.2444 34.3993 0.266458
524.009 1.16164 0.123932
249.608 8.77972 -0.364883
818.322 44.953 -0.260233
839.165 33.2558 0.224889
383.142 20.4925 -0.263479
173.919 26.6094 0.43381
587.005 38.604 -0.434187
403.206 14.9774 -0.482158
439.492 29.2804 -0.0975946
401.52 4.37155 0.40774
585.033 10.6907 -0.100124
880.713 11.8908 -0.222455
85.1163 38.9084 -0.386053
355.851 4.76377 -0.176994
600.418 9.45198 -0.33285
382.066 43.1671 0.442424
27.3688 23.9314 0.460198
32.3374 5.74851 0.321677
608.136 32.6369 0.399147
539.004 24.3389 -0.146966
27.8967 36.5503 0.412997
98.884 30.5658 0.208041
345.183 15.744 -0.289469
644.804 18.6564 0.113488
506.387 37.4826 0.311181
800.591 7.63266 -0.396855
791.726 6.12927 0.190578
411.483 36.9237 -0.0951303
685.625 25.8616 -0.0932433
253.358 16.8142 0.487287
350.809 3.68283 0.463853
109.497 31.1153 0.322499
123.695 24.0523 0.266228
581.919 38.6693 -0.0788744
325.372 18.7406 0.476888
772.971 37.1103 -0.106104
726.887 45.7716 0.108037
513.073 20.3047 -0.383244
843.433 16.4452 0.379331
456.881 23.1145 0.241955
295.118 23.7988 -0.303031
729.506 34.3748 0.300628
296.475 28.8684 0.398113
619.213 12.0626 -0.181592
353.501 35.8466 0.184548
539.774 11.1979 0.466021
390.815 30.8983 -0.0842704
459.349 16.4297 -0.113286
338.562 41.4897 0.0328441
202.993 29.5247 0.11545
848.604 53.2789 -0.142973
877.491 14.0507 -0.322214
6.30977 12.1242 -0.441806
463.452 21.9327 -0.397337
40.9192 22.2253 -0.0922949
401.547 31.2336 -0.46566
421.393 24.3873 -0.241914
79.6661 11.7317 -0.485829
55.4909 32.9178 -0.429515
240.801 13.417 0.421012
666.857 39.212 -0.480008
621.96 20.7069 -0.491819
79.8238 20.8627 0.487125
755.983 45.1192 -0.404058
831.021 5.02282 -0.482401
714.894 43.0596 -0.594536
754.502 2.33332 -0.387601
591.498 26.1347 -0.411214
632.605 44.0066 0.450122
549.357 17.9587 -0.409652
873.56 4.38873 0.268605
238.436 24.6247 -0.12374
136.366 34.8056 -0.193526
263.83 6.5229 -0.365871
100.933 4.12109 0.265192
68.7317 9.96522 0.203558
294.352 35.837 -0.296585
17.8703 24.4932 0.360831
598.208 19.4215 0.394262
652.667 40.4875 0.245585
495.766 20.9781 -0.356709
866.721 45.9212 0.358993
435.202 8.54428 -0.0987137
466.664 36.0373 0.390058
576.824 3.43848 -0.180645
24.4608 23.427 -0.393534
621.903 4.46295 0.460477
587.269 4.29962 -0.29021
220.307 11.279 0.481607
455.095 16.0519 0.182478
332.831 6.31881 0.324912
415.131 18.8121 -0.321095
806.273 44.0695 0.100205
205.592 25.2857 0.420318
848.772 6.81189 0.335939
806.104 40.2971 -0.30677
410.397 10.0941 -0.179918
780.343 2.37403 0.420634
653.751 25.8412 -0.396993
807.96 18.3776 -0.4375
461.976 42.8401 -0.266376
533.748 12.2007 0.359455
499.266 43.9131 0.220501
477.833 8.63374 0.120965
717.971 41.1652 0.254402
715.162 36.0076 0.293532
205.215 38.5945 -0.333617
860.894 12.5944 -0.101438
634.349 44.3843 0.248095
12.2123 16.6657 0.170292
436.758 25.0008 0.332687
200.393 22.8835 -0.393795
99.5189 38.895 -0.201178
848.327 29.3626 0.3932
711.619 46.6177 0.244781
341.723 25.3087 0.346848
573.492 10.1359 0.319181
88.1208 44.2093 -0.16263
264.929 25.6892 -0.468102
600.425 23.9654 0.384423
523.137 18.1117 0.416634
281.164 0.889137 -0.342861
596.466 40.4564 -0.379396
575.077 40.4825 -0.465334
518.391 32.4281 0.394404
536.903 0.768928 -0.491143
765.896 18.513 0.359571
192.19 11.9111 0.154748
539.092 35.9071 -0.415738
609.19 39.7678 -0.110959
78.0096 0.948704 0.273135
269.369 4.64785 0.159191
876.815 16.1529 -0.179108
862.743 15.1744 -0.460689
882.796 19.4012 -0.541935
324.978 8.52279 -0.225762
814.884 23.33 -0.38613
436.736 40.9298 0.329909
482.136 0.814764 -0.398275
704.898 37.2735 -0.402109
29.1365 29.6695 -0.306589
353.813 40.8171 -0.457893
270.31 2.82407 0.314322
862.378 55.1432 -0.18628
776.491 49.1502 -0.237447
307.68 10.846 0.206335
723.458 29.2315 0.0855799
602.082 2.65808 0.273549
584.946 6.34656 0.419722
103.63 18.1693 -0.48963
324.846 1.04155 -0.224629
368.192 2.26395 -0.363794
14.965 7.46308 0.328856
4.69999 30.7953 -0.240474
173.554 18.6326 0.366109
73.3112 41.3084 -0.211063
71.6001 28.4592 0.317633
454.754 14.3161 -0.407959
393.787 34.6525 -0.460597
833.195 42.5631 0.10848
20.9083 4.01283 -0.275668
75.6847 6.83755 0.137251
676.549 37.9601 -0.146354
315.972 0.926551 0.324296
391.718 16.168 -0.0870382
252.514 4.62412 -0.379982
709.003 22.0733 -0.190706
485.461 8.32895 0.397473
817.408 21.1427 0.359595
684.77 29.0412 -0.287826
728.576 18.422 -0.0953784
451.849 26.5066 0.468186
109.649 44.4724 -0.307939
585.525 42.4003 -0.0778127
805.916 12.7771 -0.254582
255 30.1165 -0.241188
34.3807 16.833 -0.158769
360.885 13.6237 0.486655
115.51 40.0356 -0.468054
286.772 42.2406 -0.182237
457.135 1.08582 0.162919
857.376 37.2792 -0.44714
747.159 0.779246 -0.500045
356.467 3.10634 0.491739
321.804 26.2852 -0.149381
498.213 40.7699 0.213902
87.3774 7.88437 0.425433
212.034 44.473 -0.377612
840.467 34.5845 -0.388158
533.517 39.0963 0.0765058
214.483 40.7799 0.263276
172.556 41.9436 0.11491
882.19 38.4472 -0.409899
879.339 13.0964 -0.547045
656.979 3.50436 -0.451282
204.084 24.2721 -0.0997752
593.388 28.0756 -0.100528
595.413 27.6164 0.263774
439.911 5.59249 -0.134149
518.779 0.938292 -0.276374
835.293 44.916 0.492746
91.2664 30.5142 0.218244
714.978 18.7867 0.445744
294.339 15.388 -0.337947
10.5349 2.33141 -0.339647
134.847 36.5165 -0.188791
71.897 22.8675 -0.458914
764.807 37.0525 0.29488
865.401 64.1623 -0.169154
199.194 27.9895 -0.178687
872.773 13.8423 0.510389
48.6152 36.4155 -0.258928
97.6781 28.8168 0.149306
689.2 12.7483 -0.34811
444.532 17.9966 -0.503504
560.212 16.4376 0.112666
255.516 28.1456 -0.179173
674.445 4.57875 -0.39303
883.309 11.593 0.512912
32.1067 31.0966 -0.26809
289.884 7.67354 0.185794
238.333 15.0768 0.256369
1.0852 35.2982 0.149712
241.786 14.5014 -0.354962
227.219 10.919 -0.143227
229.992 25.9944 0.276856
143.245 27.6401 -0.117097
591.885 14.884 -0.313817
179.424 14.1054 0.339013
856.491 53.9778 0.215588
186.858 3.85239 -0.487773
51.1593 37.3356 -0.387721
810.037 52.9482 -0.426608
301.793 31.569 0.390457
736.777 23.6492 -0.480771
864.197 33.0275 0.508345
322.99 9.13752 -0.111368
802.183 31.0432 0.348693
353.198 2.617 -0.361899
447.943 23.8385 0.345176
733.697 16.1763 -0.423671
113.447 11.7556 0.447516
520.507 4.00023 -0.457164
821.284 19.6473 -0.174096
95.0129 7.66079 -0.197369
302.497 14.6535 0.178428
455.766 11.4831 -0.205515
873.082 2.71261 0.420725
427.984 1.94093 -0.503012
189.797 38.9905 0.300472
808.67 10.0229 -0.37836
138.188 35.9527 -0.192859
282.557 31.1893 -0.390212
430.817 21.4704 0.217542
621.853 13.8382 -0.339415
416.508 9.79003 -0.461532
491.867 27.0973 -0.441786
844.579 55.9659 0.399965
51.2075 10.8275 -0.0957934
321.164 38.2989 -0.26472
408.183 25.938 -0.399773
440.894 20.6466 0.243958
562.974 44.3021 0.356445
826.42 42.4363 -0.182906
721.524 36.5877 -0.365205
242.104 33.7921 0.391134
14.9732 31.0537 -0.149291
715.127 38.0312 -0.119177
549.61 42.5622 -0.481863
246.321 38.4742 -0.106549
744.473 30.2769 0.107763
162.531 9.16937 0.195832
394.698 21.8795 0.291969
500.009 41.8542 0.103307
445.591 19.2837 0.205505
840.483 55.9927 -0.290657
458.612 3.31833 0.424713
53.7246 25.106 -0.305373
507.039 31.1446 0.323836
468.609 40.6825 -0.365566
856.498 43.0532 -0.208746
799.116 30.2983 -0.236033
585.486 18.2052 -0.149011
846.346 44.6353 -0.442215
315.06 2.01474 -0.439179
408.121 28.9692 -0.454873
31.2185 38.2476 0.301718
805.69 32.4652 0.132729
661.729 19.6676 -0.488872
499.194 0.774091 -0.486112
135.634 4.498 0.278218
459.88 40.1872 -0.102283
13.0922 0.914784 0.338167
871.146 7.26276 0.0998615
[...]
POINT_DATA 13483
TENSORS Strain_matrix float
-0.113005 -0.0752281 1.5113 
0.12896 0.0801056 2.11212 
3.21916e-18 -5.10092e-20 1 

-0.315332 -0.251732 8.62297 
0.347025 0.348748 -6.45526 
3.64049e-18 -2.48417e-19 1 

-0.0655423 -0.0119057 -0.320073 
9.9941e-05 -0.0556719 1.37952 
-6.30073e-18 2.75899e-18 1 

-0.852244 0.127914 -1.21825 
-0.13 0.344071 0.150203 
-6.22907e-18 1.64115e-17 1 

-0.100626 -0.00697479 0.0415135 
-0.0031539 -0.0677971 0.0351641 
-5.171e-19 -1.5513e-18 1 

-0.0479494 -0.0514398 -0.12022 
0.00822079 -0.0322435 -0.518212 
-9.58158e-18 -4.08132e-18 1 

-0.054459 -0.0119961 0.131639 
0.0146691 -0.0732122 -0.141263 
-6.07964e-19 -8.46808e-18 1 

-0.0781476 0.0229665 -0.102697 
0.0320531 -0.0622842 -0.0135537 
1.64983e-18 6.89719e-18 1 

-0.0412539 0.0227596 -0.494711 
0.0726697 -0.0327147 -0.354984 
-1.04298e-17 1.28763e-19 1 

-0.213691 0.00983987 0.445735 
0.0822644 -0.157239 -0.693138 
-3.53774e-18 -1.17304e-18 1 

-0.0364197 0.0207368 -0.0980553 
-0.0243454 -0.0676928 -0.0654869 
3.41118e-18 -4.03349e-18 1 

-0.0680523 -0.0216496 0.0938648 
-0.0225434 -0.073375 0.423837 
1.26544e-17 1.1504e-18 1 

-0.28382 -0.265002 0.327514 
0.136098 0.156576 0.0681879 
3.827e-18 2.0246e-18 1 

-0.110814 0.02695 -0.132529 
-0.00710165 -0.0262204 0.186359 
4.96242e-18 -1.76361e-18 1 

-0.0867044 0.0199439 -0.470515 
-0.0201176 -0.0534998 -0.423864 
3.92539e-18 4.82357e-19 1 

-0.0734529 0.00481088 -0.340635 
-0.0427089 -0.00960213 0.599569 
1.42963e-17 3.74198e-18 1 

-0.0430208 0.0121279 -0.0353319 
-0.00146888 -0.13094 -0.078453 
7.37937e-18 1.56269e-17 1 

-0.112024 -0.00286729 -0.0546289 
0.0157998 -0.0795523 0.0245006 
-4.71761e-19 -8.96347e-19 1 

-0.0369163 -0.0625368 0.229987 
0.116083 0.079165 -0.534887 
5.14602e-19 5.40332e-18 1 

-0.0742852 0.0222194 0.332155 
-0.0732417 -0.097235 0.0416525 
1.1196e-17 1.3995e-18 1 

-0.118236 -0.0420661 -0.14779 
-0.0291725 -0.0130891 -0.00649952 
4.59753e-18 0 1 

-0.248113 0.0910162 -0.456554 
0.037349 0.115944 -0.0731426 
2.21748e-19 1.21961e-18 1 

-0.356047 0.293321 -1.06531 
-0.0568177 0.203852 3.12416 
7.6532e-18 1.04133e-17 1 

-0.119164 -0.00456061 0.246369 
-0.0469435 -0.0443381 2.39166 
8.90245e-19 1.2332e-17 1 

-0.0680877 -0.0644637 -0.116769 
0.074136 -0.0106369 0.221917 
8.50939e-18 -2.515e-18 1 

-0.0170375 -0.0117642 -0.0863773 
-0.0102693 -0.0327303 -0.0331502 
4.11052e-19 -4.08888e-18 1 

-0.0606744 -0.0135157 3.99879 
0.0255927 -0.0131733 2.15815 
4.7778e-18 1.73738e-18 1 

-0.165093 -0.0269207 -0.0312573 
-0.00363418 -0.00711437 -0.563618 
-1.99828e-18 -1.18159e-18 1 

-0.073725 0.0395413 -0.123844 
0.0217237 -0.0633172 0.362167 
-6.03797e-18 -1.81593e-19 1 

-0.382168 -0.0405978 -0.523556 
-0.109161 0.140741 -0.162459 
-4.58884e-18 -1.05896e-17 1 

-0.0628719 -0.022976 -0.305832 
-0.0186399 -0.16119 0.417777 
-6.4729e-18 9.70935e-18 1 

-0.0496451 0.0678843 0.336305 
0.0457999 -0.102306 -0.0595294 
6.02222e-18 -3.4916e-18 1 

-0.458418 -0.489306 -3.9431 
0.874479 0.429898 2.32318 
-3.48661e-18 1.93231e-17 1 

-0.083981 0.0195768 -1.00169 
-0.0118102 0.0117786 -1.44097 
-7.71446e-19 -7.91181e-18 1 

-0.00832499 0.00105663 0.125419 
-0.0590748 -0.0396787 -0.0017933 
-5.3663e-18 -1.87667e-17 1 

-0.0928002 0.0490893 -0.602649 
-0.170249 0.0663614 0.0418241 
-1.80425e-18 9.67733e-18 1 

-0.0644824 0.00919398 -1.25598 
0.010909 -0.0569301 -0.476498 
7.34772e-18 -3.72782e-18 1 

-0.0350928 0.0335286 -0.0625415 
-0.0802844 -0.127656 0.12788 
5.89164e-18 -2.36576e-18 1 

-0.0731038 -0.0456536 0.196972 
0.14846 -0.041625 0.0397795 
1.1404e-18 -2.79918e-18 1 

-0.0460546 -0.0248586 0.514778 
-0.0195707 -0.024009 -0.173867 
5.16038e-19 1.58381e-18 1 

-0.0762937 0.04502 0.0882765 
-0.0565955 -0.0891217 -0.163389 
-1.12168e-17 -2.62211e-18 1 

-0.0373445 -0.0959373 -0.0309627 
-0.0522711 -0.044189 0.690612 
4.10697e-18 1.88542e-17 1 

-0.237567 0.026276 0.0277189 
-0.108331 -0.0216818 -0.0258517 
3.78811e-18 -4.9655e-18 1 

-0.0358261 -0.0171965 -0.0333732 
0.0155438 -0.0933747 0.320431 
5.1138e-18 -9.69562e-19 1 

-0.0483306 0.0177824 -0.0212736 
-0.0153716 -0.106281 0.171375 
1.08333e-17 8.32359e-18 1 

-0.0671202 0.00450579 0.0771128 
0.00981134 -0.0647827 0.00552149 
4.59788e-18 5.93162e-18 1 

-0.143609 -0.0160153 0.550552 
-0.0285487 -0.0402049 0.460618 
-3.74505e-19 -1.94151e-18 1 

-0.0460584 -0.0107424 0.0232667 
-0.00199654 -0.125805 0.0163131 
6.74498e-18 1.04422e-17 1 

-0.137349 0.0574354 -0.236315 
-0.0129758 -0.00153938 -0.197076 
-2.56479e-18 -1.12792e-17 1 

-0.143006 0.0823648 0.160056 
-0.206138 0.109748 -0.914609 
-9.4616e-18 1.49363e-17 1 

-0.0374504 -0.103122 0.263228 
0.0060425 -0.0266346 -0.12903 
-8.87282e-19 -2.11076e-18 1 

-0.198932 0.164627 -1.08504 
0.390373 0.056811 1.09057 
-6.01189e-18 -6.7274e-18 1 

-0.0871396 -0.0189251 -0.0856792 
-0.00181509 -0.0129687 0.0962942 
8.46866e-18 -8.61301e-18 1 

-0.0950468 0.0320447 0.076748 
-0.0166939 -0.0537459 -0.00513516 
-1.16022e-18 4.96234e-18 1 

-0.0737496 -0.00918858 0.401982 
-0.019402 -0.0870472 -0.558867 
-4.00594e-18 -7.99717e-18 1 

-0.0705372 -0.0209209 -3.15224 
0.0749065 -0.0451438 -1.50776 
1.44943e-18 -1.25244e-18 1 

-0.0721031 -0.120126 -0.104795 
0.246788 0.115782 0.336128 
1.26436e-17 8.86204e-18 1 

-0.0684784 -0.0312733 0.174441 
-0.0035816 -0.0963764 -0.0602385 
6.46764e-19 -9.71022e-18 1 

-0.0380926 0.0110315 -0.0372627 
-0.0292316 -0.135326 -0.153222 
-1.28754e-17 -1.39705e-17 1 

-0.0737983 -0.000684318 -0.069705 
-0.0436863 -0.0644478 0.0163416 
-1.33866e-18 2.11096e-18 1 

-0.113655 0.300068 0.35621 
0.074585 0.0982903 -0.0699097 
7.42034e-19 -2.22322e-17 1 

-0.13255 -0.146186 0.220796 
0.0272978 0.0659761 0.00449202 
-6.48051e-18 -1.53012e-18 1 

-0.0746134 -0.0847932 -0.238365 
-0.00266333 -0.0412559 -0.0675235 
-1.05782e-17 -4.16984e-18 1 

-0.134922 0.00487186 -0.187096 
0.00893706 -0.0412215 -0.427656 
-5.37175e-18 -7.67862e-18 1 

-0.0540947 0.0698992 -0.015317 
-0.0176106 -0.0188024 0.0300118 
2.35599e-18 -1.25653e-17 1 

-0.0506533 0.0503105 0.076275 
-0.0592421 -0.0619103 0.352891 
7.31715e-18 -2.2438e-17 1 

-0.315847 0.0463025 -0.458562 
0.119916 -0.0836961 -0.446182 
-5.26039e-18 -4.59955e-18 1 

-0.146075 -0.0559411 0.178327 
0.131549 0.0676915 0.84689 
-1.73622e-18 2.9703e-18 1 

-0.0851891 0.0030006 -0.245986 
-0.0537354 -0.0844627 0.998745 
-5.30368e-18 -4.32729e-18 1 

-0.116711 -0.0168238 0.109284 
-0.0223306 -0.0937142 0.0859518 
-6.67693e-18 5.3955e-18 1 

-0.42941 0.139724 -0.138185 
-0.0361042 0.257559 0.312802 
7.09249e-19 3.92815e-18 1 

-0.0418578 0.00275032 -0.0455589 
-0.000318181 -0.071311 0.0499611 
4.39683e-18 1.95075e-17 1 

-0.0714839 -0.0229603 -0.245162 
0.0980102 0.00906745 0.361584 
-1.08992e-17 -7.58868e-18 1 

-0.0699964 0.00371852 0.100303 
-0.0115086 -0.0624725 -0.172194 
6.77113e-18 -4.03044e-19 1 

-0.0641985 -0.0151347 -0.522605 
-0.00295484 -0.0601935 -0.46552 
-6.10174e-18 -1.02083e-17 1 

-0.0374212 -0.0118563 0.144037 
-0.0193193 -0.106062 0.100753 
2.59324e-18 -1.09402e-19 1 

-1.22259 -0.206637 -3.75189 
0.311162 0.550763 1.60776 
-8.19723e-20 4.54946e-18 1 

-0.0542717 -0.0666377 -0.0344398 
0.0288413 -0.0772712 0.522231 
-9.59401e-19 -1.01577e-17 1 

-0.329552 -0.0777664 0.711532 
0.0776648 0.128728 -1.09257 
9.17144e-19 1.31577e-17 1 

-0.100582 0.0352261 -0.665553 
-0.0425923 -0.0228549 -0.121613 
-1.06939e-17 -5.76346e-18 1 

-0.441845 -0.236783 0.105753 
-0.0766363 0.0693995 0.100494 
1.35065e-17 1.50236e-17 1 

0.00454827 0.00525759 0.0457624 
-0.00668556 0.0342318 -0.0587074 
1.2588e-17 -5.50594e-19 1 

-0.0152506 0.0164525 -0.624351 
-0.0188686 -0.0605581 0.0829294 
-1.63839e-18 7.00449e-18 1 

-0.175788 -0.157459 -0.608007 
0.0648062 0.0529949 -0.356629 
-7.67561e-18 1.29718e-17 1 

-0.137174 -0.326358 -0.838373 
0.0292961 0.0314029 1.00388 
-1.9001e-18 1.26674e-18 1 

-1.32078 -0.0781607 -1.44233 
-0.00828319 0.542804 0.674872 
6.31849e-18 -1.28657e-17 1 

-0.409954 0.685569 -2.13271 
0.0389739 -0.214308 -0.505417 
-7.0624e-20 -1.63441e-16 1 

-0.0711946 0.0996482 0.228973 
-0.0635061 -0.100182 -0.331957 
-4.07615e-18 -9.26397e-18 1 

-0.123099 -0.00710613 -0.124071 
0.0538135 -0.0442059 -0.0306359 
-1.94356e-17 -3.629e-18 1 

-0.0964343 0.00612314 -0.0449177 
0.0166577 -0.0657189 -0.118936 
-8.92739e-18 1.20954e-17 1 

-0.0667201 -0.0681991 -0.0597344 
0.0505078 -0.0594941 0.0672719 
1.92794e-18 -5.39823e-18 1 

-0.0432687 -0.0734643 -0.110767 
0.0500091 -0.0760397 0.270554 
1.7098e-17 1.09213e-17 1 

-0.434115 0.149233 -0.536368 
-0.127367 0.255895 0.755951 
5.01938e-18 -5.74164e-18 1 

-0.156282 -0.0550535 0.0269581 
-0.0407038 -0.0200982 0.0248902 
-1.05086e-18 8.70711e-19 1 

-0.0761177 0.0329204 0.280576 
0.113494 0.0754276 0.303975 
-7.32576e-18 -4.01048e-18 1 

-0.0848054 -0.010552 0.0618539 
-0.00910143 0.230596 -0.458403 
5.87129e-18 2.62645e-17 1 

-0.0830287 0.0247264 -0.0299274 
-0.0109931 -0.0405686 0.0806071 
-5.22311e-18 -3.26444e-18 1 

-0.164868 0.399127 0.546647 
0.100376 0.0826682 0.603401 
1.02186e-17 1.69987e-17 1 

-0.0451132 -0.271938 -0.0950285 
0.0113842 0.0246537 0.247198 
-4.77996e-18 -1.80576e-17 1 

-0.0288113 0.0080659 -0.0206547 
-0.037129 -0.0762712 0.0520477 
6.5286e-18 -7.32888e-18 1 

-0.0468915 -0.019979 0.407575 
0.0145729 -0.0258602 -0.558428 
9.25821e-19 2.9173e-19 1 

-0.101 -0.054673 0.135169 
0.0422866 0.0344913 0.539738 
-6.61151e-18 3.26494e-19 1 

-0.0631433 -0.0284594 0.362796 
0.0289468 -0.0811058 1.12585 
1.16544e-17 2.19543e-18 1 

-0.0674132 -0.0261608 -0.0397792 
-0.0145797 -0.020621 -0.110042 
5.86455e-18 -1.70055e-17 1 

-0.0540203 -0.023632 -0.724953 
0.00948071 -0.0940278 -2.06217 
9.85869e-18 -7.13352e-18 1 

-0.105372 0.0493237 0.126701 
-0.0347891 -0.0588903 -0.0461198 
-9.37093e-18 5.79175e-18 1 

-0.506022 0.0490408 0.326922 
-0.253991 0.0985364 0.019376 
-5.94323e-18 -2.3234e-18 1 

-0.0467767 0.0176868 -0.0122879 
-0.0163966 -0.0273382 0.157115 
-5.44731e-18 -3.47462e-19 1 

-0.0851265 0.010613 0.0499263 
0.0123837 -0.0957485 0.0103293 
-1.20971e-17 7.77586e-18 1 

-0.0924613 0.037266 0.371904 
0.00358946 -0.0820063 -0.244439 
-6.01872e-18 7.82922e-18 1 

-0.0777628 0.0103303 0.848204 
-0.00655287 -0.00858091 -1.51711 
5.18452e-18 2.05385e-18 1 

-0.0355836 0.0536316 -0.572233 
0.0316128 -0.0836746 0.000942006 
8.34951e-18 9.63989e-19 1 

-0.0468696 0.0205672 0.0065212 
-0.0185943 -0.108748 0.00139846 
-1.22901e-17 -3.42167e-18 1 

-0.0680501 -0.113602 0.938666 
0.0988261 0.0377358 -0.655542 
-2.09069e-18 -4.59372e-18 1 

-0.095122 -0.116315 -0.149005 
-0.00963571 0.00770712 -0.165979 
3.96789e-18 9.48208e-18 1 

-0.0646537 -0.015064 0.332533 
0.00624607 -0.00357495 -0.39232 
9.21392e-18 -4.99729e-18 1 

-0.0475428 0.0809519 0.156349 
0.0368398 0.0395528 -0.0731666 
7.60311e-18 2.57732e-19 1 

-0.0608871 0.018383 -0.0336287 
0.042793 -0.049135 -0.00392168 
-1.08201e-17 6.20064e-18 1 

-0.0990109 -0.102394 0.0588627 
0.158052 -0.00220864 0.0989407 
-1.59882e-18 -1.31957e-17 1 

-0.0695539 0.0152457 0.428793 
-0.0243931 -0.0151 0.0471923 
4.80909e-18 -1.2717e-17 1 

-0.178511 0.0754442 -0.017477 
-0.134996 -0.108402 -0.189874 
-9.80668e-18 1.20848e-17 1 

-0.350915 0.111809 -0.273891 
0.175931 0.0169134 -0.00935977 
4.97704e-18 1.89602e-18 1 

-0.0580952 0.0433569 0.146349 
-0.0403064 -0.00753098 -0.00743139 
-6.47866e-18 -4.23604e-18 1 

-0.0459277 0.0367166 0.256699 
0.129026 -0.00180123 0.235111 
-6.57867e-19 -1.0079e-17 1 

-0.0574743 0.00215654 -2.17387 
-0.0161689 -0.0614585 -0.67841 
-5.29974e-18 3.96334e-19 1 

-0.067297 0.0197815 -0.260748 
-0.0230425 -0.121411 0.424973 
-3.96369e-18 1.47969e-18 1 

-0.14163 -0.0611958 0.442894 
0.015894 0.0110428 0.206673 
-1.1417e-18 -1.20067e-18 1 

-0.0737497 0.00276513 0.0269474 
-0.0535389 -0.0487203 0.0187728 
-6.34568e-19 3.83692e-18 1 

-0.0337435 -0.0859808 -0.0241567 
0.0533512 -0.0299249 -0.0921429 
-1.21893e-17 -7.58864e-19 1 

-0.0607024 0.00492417 2.16444 
-0.0164118 -0.0753179 2.6319 
3.83455e-18 3.20917e-18 1 

-0.460912 -0.16132 -1.16261 
0.148662 0.419472 -0.0681482 
6.75268e-18 -7.54712e-18 1 

-0.168537 0.0981874 0.164214 
-0.0271862 0.125687 0.11029 
1.17927e-18 -8.43355e-18 1 

-0.0375579 0.0399816 -0.12462 
-0.00636278 -0.0322627 1.20815 
2.79927e-18 3.02845e-19 1 

-0.352544 0.208456 0.022711 
0.0174312 0.105858 -0.288263 
-2.5017e-17 5.65975e-18 1 

-0.121842 0.0138043 0.392656 
-0.164659 0.0235202 -0.11282 
-6.75444e-18 5.51383e-18 1 

-0.0689021 -0.0117891 0.0828439 
-0.0161152 0.0331216 -0.0448624 
-7.76493e-18 -1.45279e-18 1 

-0.0754983 -0.068806 0.0369808 
0.00519487 0.101794 -0.85968 
1.51549e-18 -6.47794e-18 1 

-0.0899163 -0.0576399 0.40371 
0.109971 0.001293 -0.615796 
-9.15904e-19 3.52623e-18 1 

-0.0655166 -0.0227117 -0.0525465 
0.043692 -0.0655542 0.134588 
1.88615e-17 5.51313e-18 1 

-0.0659107 -0.090102 -0.0659846 
-0.106678 -0.0112975 -0.226091 
1.30618e-17 2.35276e-18 1 

-0.117752 -0.0422244 0.049511 
0.0506592 -0.04853 -0.00316169 
-5.39694e-18 -4.41654e-18 1 

-0.044914 -0.114214 -0.0164722 
0.125696 -0.0211916 0.0370416 
-4.0504e-18 -5.87242e-18 1 

-0.0492624 -0.063543 -0.0132121 
0.0768414 -0.0501141 0.0883661 
-2.36197e-18 1.52204e-17 1 

-0.0375889 -0.0147729 0.200662 
0.0286128 -0.0241018 -0.00176153 
-1.57536e-17 6.23934e-18 1 

-0.0159032 -0.0481714 0.0791393 
0.0362714 -0.0303901 0.159796 
-7.72425e-18 6.03126e-18 1 

-0.171442 -0.677691 0.58549 
0.24576 0.288735 -0.226613 
-5.08253e-18 -8.3752e-18 1 

-0.39089 0.100962 0.673182 
-0.215292 -0.0187928 0.291479 
1.71971e-17 -1.19327e-18 1 

-0.0510173 -0.00180323 0.0930733 
-0.0344767 -0.10873 -0.0714108 
-3.84353e-18 5.09686e-18 1 

-0.0597914 -0.00322219 -0.277701 
0.068082 -0.0569041 0.141989 
-6.49693e-18 -3.59872e-19 1 

-0.0602713 0.0318317 0.125367 
-0.0508904 -0.0582094 0.200175 
1.7316e-19 1.60173e-18 1 

-0.0568088 -0.0628984 5.17006 
0.021428 -0.0296919 4.69872 
1.6949e-18 5.15015e-18 1 

-0.0984598 0.0621763 -0.0602649 
0.0488293 -0.0190794 -0.229503 
3.85915e-18 -1.93673e-18 1 

-0.0806139 -0.0380448 -0.7983 
-0.0126525 -0.0608332 -1.11137 
3.55346e-18 -2.3191e-18 1 

-0.0810076 0.0149554 0.41032 
0.0457118 -0.0165817 0.152566 
2.50334e-18 -1.61651e-18 1 

-0.0532027 -0.0136131 0.175133 
0.0101391 -0.0731767 0.377736 
-6.83863e-18 -1.35071e-17 1 

-0.145874 -0.0977287 3.75082 
0.00791961 0.000955097 -1.83322 
5.19848e-18 1.42172e-17 1 

-0.10554 -0.0410588 0.277277 
0.0160076 0.0148539 0.365646 
-3.98986e-19 -4.20109e-18 1 

-0.0525737 -0.00226474 0.41922 
-0.00706179 -0.0103081 1.27459 
4.74057e-18 -1.82152e-18 1 

-0.335379 -0.215956 -3.37501 
0.211747 0.38597 -3.01426 
-1.16891e-18 3.97927e-18 1 

-0.708843 0.178185 0.965042 
0.540768 0.306075 0.263524 
-8.66911e-18 7.8022e-18 1 

-0.152952 -0.334311 23.849 
0.00211946 0.388319 -29.0591 
5.47421e-19 -1.06797e-18 1 

-0.0983944 -0.00782475 -0.100454 
-0.040231 -0.0757272 -0.279451 
6.71264e-18 1.19336e-17 1 

-0.123456 -0.0195245 -0.171159 
0.173321 0.0397894 0.960659 
3.65544e-18 1.32743e-17 1 

-0.168053 -0.114987 -3.27263 
0.0345418 0.357184 7.30836 
2.49061e-18 7.54464e-18 1 

-0.125677 -0.000270105 -0.443461 
0.120462 -0.0203772 -0.52857 
-1.00875e-17 -8.35649e-19 1 

-0.888112 -0.0615312 0.0393328 
0.273373 0.258493 -0.198031 
8.61441e-18 7.43506e-18 1 

-0.0367081 0.00143214 0.0456194 
-0.0279122 -0.0449481 0.047994 
2.54565e-19 1.23263e-18 1 

-0.0819045 -0.0495812 0.193073 
0.0189519 -0.035329 0.1039 
-8.45529e-18 4.0671e-18 1 

-0.026072 -0.0454917 0.114297 
-0.00357628 -0.111053 0.14139 
-3.57202e-18 -9.51824e-18 1 

-0.0735455 0.0212914 -0.122317 
-0.00933202 -0.088086 -0.0194047 
4.23512e-19 8.32906e-19 1 

-0.0419014 -0.0135699 -0.00319816 
-0.0140981 -0.0736489 0.0685754 
-9.26046e-18 6.14293e-19 1 

-0.0444303 0.0642162 -0.0430642 
0.0282331 -0.0274227 -0.413696 
1.32311e-17 -7.58031e-19 1 

-0.0565809 0.0600229 0.325776 
0.0237275 -0.0601479 0.0715688 
3.57649e-18 1.36582e-17 1 

-0.158492 -0.0632309 0.667603 
0.028331 0.109476 -1.55407 
-2.75586e-18 -8.54351e-19 1 

-0.104803 0.11825 -0.0107325 
-0.117657 -0.0379906 -0.214654 
-3.1894e-19 5.38212e-19 1 

-0.08981 0.00662318 0.043299 
-0.0321234 -0.0594403 0.1691 
-1.83342e-19 1.23756e-17 1 

-1.1099 0.0374137 10.3268 
-0.285899 0.454919 -7.34102 
-6.63744e-18 -7.96724e-18 1 

-0.0802766 -0.00301375 0.0489076 
-0.0222003 -0.0446143 -0.162151 
1.67031e-17 2.82575e-19 1 

-0.0360942 0.0781886 -0.50898 
-0.108704 -0.045567 0.911875 
-6.5717e-18 -2.54821e-18 1 

-0.0941519 0.0726434 -0.0420263 
-0.0361794 -0.0819921 -0.0563038 
8.25876e-18 6.55807e-18 1 

-0.0494636 0.0793274 0.224531 
-0.0917149 -0.0233277 -0.142144 
2.26288e-18 7.37896e-18 1 

-0.234947 0.112263 -0.206256 
-0.139019 -0.0179948 -0.0405939 
3.15804e-18 -3.59882e-17 1 

-0.0479369 -0.0109568 -0.0268352 
-0.036431 -0.0730381 0.0113527 
-1.14518e-17 3.25952e-19 1 

-0.0676637 0.00893561 -1.22876 
0.0139106 -0.0734072 -0.172933 
-4.10401e-18 -6.26845e-18 1 

-0.1308 -0.0178974 0.0720584 
0.0932868 -0.0308877 -0.282679 
3.22521e-18 -2.14381e-17 1 

-0.0846256 0.0077662 0.0669109 
-0.0716028 -0.0545942 0.119263 
9.584e-18 -6.14445e-18 1 

-0.0878516 -0.0450648 0.342609 
-0.0555874 -0.0498347 0.392162 
-2.39792e-18 -7.39002e-18 1 

-0.159986 -0.557436 0.364896 
0.538821 0.271252 -0.224094 
-4.68252e-18 -1.63398e-17 1 

-0.073717 -0.0330716 0.0816834 
-0.0157663 -0.0516792 0.74235 
6.57492e-20 3.25459e-18 1 

-0.204536 0.00221824 0.23423 
-0.0366402 -0.02787 0.0097345 
1.37009e-17 -1.09934e-17 1 

-0.0765671 -0.122437 1.74486 
0.38133 -0.0185705 -1.40702 
6.69696e-19 1.27893e-17 1 

-0.0745272 -0.0867313 -0.106895 
0.0419795 -0.0659437 -0.0253688 
3.27181e-18 -4.8513e-18 1 

-0.475679 -0.346645 -0.863027 
0.376933 0.265667 0.193544 
-1.17544e-17 -4.8744e-18 1 

-0.117628 0.0282553 -0.601771 
0.0124681 0.0850958 0.523484 
1.28319e-18 -6.1324e-18 1 

-0.405252 0.349515 -0.686828 
-0.24105 0.25539 0.596711 
9.26576e-18 -1.48384e-19 1 

-0.0636178 0.0362508 0.173272 
-0.0932793 0.020046 0.0368297 
-5.94409e-18 1.21438e-18 1 

-0.0631966 0.0288903 -0.322072 
-0.0327915 -0.111576 -0.305855 
2.38324e-17 5.6974e-18 1 

-0.0606089 -0.0183241 0.00829571 
-0.0155803 -0.103773 -0.189875 
2.64579e-18 1.65993e-17 1 

-0.0808083 -0.0262396 -0.0637298 
-0.0544173 -0.0639541 0.281662 
-1.59148e-17 8.11548e-18 1 

-0.122414 -0.0454724 0.298399 
-0.00756828 0.0143915 0.0186806 
-1.46922e-17 1.5526e-17 1 

-0.061377 0.0961539 0.778671 
-0.0540282 0.0291654 0.771898 
4.74037e-19 -3.76267e-18 1 

-0.0478375 0.0176746 0.0178733 
-0.0451916 -0.0544688 -0.0108936 
1.95278e-18 -8.73009e-19 1 

-0.223883 -0.242966 -0.561041 
0.248165 0.0447745 0.231201 
-3.98075e-18 1.70438e-17 1 

-0.319223 -0.185605 -0.147172 
0.169245 0.16067 0.199417 
3.54565e-18 -1.24957e-18 1 

-0.111616 0.0344703 -0.0821836 
0.0661348 0.0190236 -0.165883 
4.43266e-18 -5.24201e-18 1 

-0.0303051 0.0223062 -0.156712 
-0.00940687 -0.0516827 -0.172446 
6.08419e-18 7.02561e-18 1 

-0.0722035 -0.0147499 -0.550193 
0.0522775 -0.0236662 -0.0565907 
-1.65878e-18 9.12328e-18 1 

-0.0493208 -0.0379762 -0.158083 
0.0721457 -0.0312794 0.170224 
9.27378e-18 2.6176e-18 1 

-0.434718 0.234325 0.461492 
0.0527549 0.153522 -0.292571 
9.01344e-18 -3.40691e-18 1 

-0.0930093 -0.0826466 -0.12238 
0.129702 0.0650476 -0.0568634 
-8.27512e-18 2.31796e-19 1 

-0.0463838 0.0158874 -0.0344604 
-0.0557461 -0.0420802 -0.253111 
-6.38096e-18 -8.90222e-18 1 

-0.0990879 -0.011765 -0.000913312 
0.0201642 -0.0529104 -0.514309 
-4.92649e-18 1.45784e-18 1 

-0.0407241 0.097667 -0.0147365 
0.020428 -0.110781 0.124209 
3.03088e-18 0 1 

-0.0583996 -0.00616887 0.381151 
-0.00642442 -0.0255612 0.370358 
5.19295e-19 -3.79162e-18 1 

-0.136216 0.0844626 0.440728 
-0.0141865 0.0145957 -0.471995 
-5.17421e-18 2.97785e-18 1 

-0.0334468 0.00576553 -0.0313582 
0.00705165 -0.0685085 0.0892743 
5.05882e-18 -8.70221e-18 1 

-0.0594108 0.0210999 -0.00486601 
-0.00563476 -0.189864 0.0902868 
7.69971e-18 -1.12147e-17 1 

-0.103364 -0.10166 0.889848 
0.121166 -0.0120963 -0.187613 