# vtk DataFile Version 3.0
Output file generated by Yade's KinematicLocalisationAnalyser
ASCII
DATASET UNSTRUCTURED_GRID

POINTS 13483 float
419.969 54.0798 -0.442049
525.262 88.6605 -0.454337
98.9254 6.01262 0.562043
547.702 26.4947 -0.250257
369.085 11.1071 0.307756
249.64 48.4981 -0.453818
126.746 6.99279 -0.471104
418.595 10.8242 0.142323
366.882 36.4292 -0.154853
499.948 25.92 0.528559
174.178 9.15273 0.19235
210.62 6.73306 0.325481
452.646 61.991 0.141339
444.607 38.0695 0.0958321
111.49 22.3401 -0.440673
180.266 44.5761 0.415261
180.448 14.4766 -0.264092
233.724 16.2463 0.488595
264.195 50.0091 0.433596
384.158 11.6486 0.495504
309.915 54.5298 -0.1011
403.585 73.0444 0.282673
551.813 65.1337 -0.482183
476.89 78.6377 0.466879
344.47 31.1991 0.335132
192.721 54.7797 -0.14814
361.43 43.2604 -0.495293
421.117 28.4645 0.285591
38.7938 19.3971 -0.535114
492.823 62.5049 0.326717
357.31 6.37984 0.634299
14.8989 25.4326 0.329122
531.549 86.6982 -0.236118
368.299 2.43685 0.471324
67.503 54.5974 0.105821
377.539 44.0289 0.400364
389.344 21.8021 -0.5505
268.404 33.9283 -0.187361
389.831 35.1227 0.374639
268.223 54.6445 -0.437737
200.259 16.6119 -0.34785
324.411 51.4067 -0.0685944
472.3 9.62322 0.159917
157.571 6.19684 0.384007
48.8467 7.50288 0.0838847
57.0905 12.6575 0.32952
483.493 10.1799 -0.594409
21.4455 12.831 -0.312294
417.624 78.1257 0.362573
470.054 43.4748 0.356867
145.53 39.725 0.296667
519.834 61.1388 0.12097
28.0375 33.1079 -0.113306
389.365 5.43229 0.321697
117.095 10.8893 0.565717
409.479 60.124 0.362137
368.98 41.1067 -0.146525
143.868 1.00369 -0.33245
28.7678 2.37931 -0.342859
273.255 26.0787 0.260217
424.413 74.4497 -0.15309
340.373 54.6541 0.183453
303.99 0.993648 0.195227
490.226 9.84152 -0.335411
19.2425 51.3231 0.247581
207.587 42.1282 0.296504
502.652 20.0593 -0.265375
462.526 85.2408 0.353909
320.023 10.3828 -0.642936
419.784 4.04548 -0.672035
513.27 50.971 -0.446683
109.057 8.28814 -0.459435
366.856 41.4732 0.167781
354.856 21.3585 -0.0906119
238.879 23.7441 -0.467204
18.6051 14.3736 -0.253716
534.431 65.9299 0.322313
258.444 58.4527 -0.28602
473.831 36.4001 -0.426843
482.747 22.2787 0.26892
547.723 17.7302 0.208053
342.487 54.8315 0.167647
81.805 46.7797 -0.256277
474.085 66.76 -0.215442
448.288 73.233 0.0950926
552.826 75.8067 -0.106828
548.376 0.627028 0.677684
234.48 34.8609 -0.496627
449.433 19.1358 0.128937
22.2514 7.45154 0.696596
113.348 49.2976 0.137569
377.939 20.6518 0.280765
533.358 49.9154 0.482034
163.177 32.0955 -0.231233
35.2747 43.8654 -0.272427
367.58 0.868876 0.441668
195.399 10.6799 -0.435996
509.002 78.0478 0.261722
527.363 44.9493 -0.247514
280.62 37.3252 0.270795
137.084 33.148 -0.461862
385.396 66.7377 0.394034
293.931 26.7842 -0.511456
314.047 40.7944 -0.0925445
293.555 15.3991 0.596439
402.876 12.1385 0.129635
552.942 33.0187 -0.196118
69.3864 49.1789 0.385451
268.636 5.7744 -0.261978
413.414 9.08729 -0.455758
279.906 68.1112 -0.448235
21.3948 28.3405 0.561519
27.7006 6.38952 0.285866
403.196 44.0458 0.496696
369.339 33.3449 0.204282
19.7183 45.6754 -0.41246
79.5977 39.159 0.23668
261.413 20.3763 -0.299653
427.527 32.2321 0.142793
350.798 64.0578 0.294631
507.526 7.84905 0.522527
502.925 11.5074 0.183479
300.662 57.0624 0.0923675
444.944 54.4653 -0.0967575
197.082 22.302 -0.505337
265.819 4.10176 0.607111
87.2227 38.0774 -0.322809
96.1562 28.0595 0.319633
385.034 61.1591 -0.0742693
247.064 22.8911 0.526944
491.293 69.3511 -0.109901
467.262 82.9284 -0.108808
357.824 31.0535 -0.397678
537.261 16.9351 -0.434358
324.317 35.1658 0.224098
224.123 35.8872 -0.298452
465.964 59.3786 0.316802
227.592 40.6222 0.448194
426.272 14.1509 0.239235
259.112 56.5641 0.187175
372.87 18.7226 0.487394
284.54 54.4542 -0.0908458
324.839 27.0781 -0.111635
244.128 64.9005 -0.478132
159.28 33.5193 0.12102
528.025 94.2818 -0.152108
549.566 37.2842 0.293138
6.0934 13.0237 -0.405113
328.843 35.0674 -0.454154
32.4594 27.6816 0.0299245
292.156 50.0725 -0.518694
304.662 34.7224 -0.285312
62.4401 17.4318 -0.531084
42.6822 41.1505 -0.44118
189.155 16.8587 0.530619
429.737 71.8267 0.405759
419.151 31.4704 -0.562254
62.2929 26.6234 -0.488207
481.207 77.4104 0.408455
527.884 2.25681 0.639984
454.109 83.861 0.477461
488.424 1.80888 0.634894
398.355 39.8639 -0.541076
403.103 74.723 0.474341
378.608 25.5398 -0.445814
555.586 15.8402 -0.245211
183.55 31.0439 0.11885
108.261 46.2251 0.193569
205.104 7.28298 0.496537
77.2215 5.35231 0.27269
53.4716 13.5173 0.235355
225.963 48.0021 -0.305632
15.7397 26.9039 -0.381119
407.347 25.7368 0.415587
412.621 75.8003 -0.188377
349.141 39.1664 -0.38804
542.765 78.4225 -0.346819
313.098 10.3598 -0.105728
328.27 57.3424 -0.379893
396.406 3.26555 -0.266317
21.0118 24.096 -0.429371
430.196 5.48063 0.569381
403.907 4.16458 0.431191
172.35 11.4123 -0.581115
328.008 18.4351 -0.227211
252.562 7.30205 0.411849
301.558 32.1832 -0.454221
504.364 83.0143 0.0997279
163.579 28.6267 -0.396779
541.652 9.32218 -0.475936
504.232 73.9665 0.313787
299.609 17.5431 0.187388
500.381 10.455 0.65066
425.035 49.7728 -0.444603
515.164 29.2338 0.430799
321.88 65.3315 -0.269302
368.337 21.2159 0.506708
343.237 67.9823 -0.231546
340.752 20.737 0.16927
459.559 79.9629 0.257842
459.66 74.3375 0.312235
160.046 48.6546 -0.341496
546.332 19.4473 0.116257
401.89 75.7794 -0.271785
9.67578 19.427 0.172267
313.472 31.4363 0.409789
157.08 26.6073 -0.476503
83.1243 48.2378 0.200155
533.004 45.6826 -0.436816
451.059 86.4433 -0.108277
256.713 36.4879 0.38225
393.016 10.9623 0.36635
72.7904 55.9815 -0.0730373
202.7 34.2947 0.468261
405.685 30.1922 0.443323
362.412 34.2562 0.41289
218.833 0.886073 -0.424222
388.569 65.6331 -0.383311
379.886 72.0173 -0.446316
351.539 68.6728 0.384505
373.982 6.02079 -0.576275
490.127 34.8453 0.493155
148.439 16.0128 -0.194033
370.134 53.559 -0.45542
393.025 68.6234 -0.109383
62.5567 0.904586 -0.317997
209.086 4.67058 -0.229034
549.704 39.2816 -0.138654
546.489 23.4357 -0.38767
554.936 42.0381 0.664595
245.325 10.0379 -0.276518
515.986 37.0177 0.581582
315.81 72.9603 0.376246
342.465 2.54057 0.541983
453.644 70.4288 0.432355
22.1071 37.2519 0.300889
257.493 67.8901 -0.475656
210.178 3.17844 0.497461
533.262 77.79 0.17067
486.817 89.8656 -0.219665
235.405 17.1154 0.15538
464.272 63.0695 0.0808659
415.185 2.49967 0.302945
402.164 7.3365 0.561975
81.4213 19.9727 -0.540079
246.603 1.02706 -0.222484
276.956 2.99277 0.46771
12.8907 7.33015 0.669083
4.68305 34.7311 0.244696
134.898 22.4258 -0.383914
58.3826 52.0111 -0.211564
56.1015 36.1008 -0.304267
328.992 16.9599 -0.5362
287.777 58.0107 -0.469271
517.646 61.7604 -0.128961
18.6579 4.45826 -0.267651
58.8848 11.9488 -0.141859
433.47 73.5028 0.129766
238.234 0.876947 0.483167
285.088 27.5406 -0.0912617
196.912 6.34825 -0.657117
462.024 45.7379 0.200656
345.83 15.1643 0.515908
517.484 32.1504 0.426578
441.814 57.1843 -0.341063
474.667 32.4573 -0.126757
320.868 37.7095 0.514006
91.1784 54.5812 -0.306419
378.034 77.0152 0.0665506
513.991 23.6128 -0.210241
195.606 39.6693 0.241119
29.2932 19.1086 0.196391
271.556 16.103 0.458439
95.563 49.6135 -0.473606
219.087 55.3544 -0.196474
331.854 1.06754 0.211871
532.715 62.6525 -0.40511
481.763 2.01546 0.725374
269.552 4.15799 0.498122
245.367 35.8672 0.158906
344.006 66.0633 -0.21684
66.2428 8.68821 0.541319
166.718 56.205 0.377769
529.853 53.9051 0.360888
365.659 64.7876 0.0701679
166.321 52.3825 0.281814
138.02 48.1966 0.413882
556.518 64.6123 0.415213
551.583 31.8986 0.506016
451.473 10.1399 -0.666863
161.029 28.3538 -0.0963166
399.905 41.7223 -0.110957
401.025 39.9755 0.32989
317.482 7.36943 -0.163756
363.774 0.956201 -0.343923
516.875 65.2251 0.498496
72.4803 40.075 -0.220737
468.371 38.3851 0.443486
222.472 20.6093 -0.334248
8.94929 2.30689 -0.410914
109.89 47.5693 -0.188599
56.9217 30.6902 -0.474826
486.728 62.1179 0.296406
536.944 93.6226 -0.161018
155.901 31.3744 0.211894
546.202 33.1792 -0.315069
37.2359 46.2956 -0.260423
78.6055 37.4611 0.151907
451.108 37.5356 0.397956
322.338 18.2395 -0.632666
385.475 22.601 0.139442
196.051 37.7672 -0.200587
448.626 23.3722 0.481206
554.613 31.8375 -0.36076
25.187 39.5382 -0.270513
221.942 11.3769 0.201879
186.578 18.4269 -0.232581
1.07717 39.4095 -0.151417
190.058 17.5598 -0.472068
178.209 12.3715 -0.189214
179.451 30.6222 0.297655
112.344 36.1079 0.13696
407.08 16.167 0.475253
138.699 15.5714 0.379398
530.132 85.2039 -0.215144
144.85 4.19547 0.51106
39.06 46.9279 -0.346011
510.889 92.2974 -0.460215
231.582 42.8422 0.421071
474.949 43.7676 0.487903
539.618 62.6555 -0.507548
243.379 10.4495 0.127706
505.338 56.4941 0.361876
267.536 2.40406 -0.487659
318.716 31.6511 0.511265
473.67 21.1087 0.597841
88.5857 12.301 0.496828
365.33 3.98254 -0.535438
520.477 29.5325 -0.19524
72.755 7.41507 -0.325444
230.397 20.6575 0.223992
328.257 13.9179 -0.301485
556.644 14.4597 -0.647954
308.666 1.91615 -0.604257
148.664 48.6452 -0.274755
513.728 10.5044 0.33511
111.798 46.6812 0.188183
214.61 43.9454 -0.383096
311.923 25.0435 0.256307
426.681 15.9474 -0.422527
300.722 12.1138 0.65931
345.58 47.2697 -0.486991
525.126 89.9684 0.360548
41.7896 13.3895 0.0893778
242.163 47.9129 -0.293731
294.183 41.6532 -0.406008
318.743 22.9574 0.303541
375.187 70.4982 -0.37307
513.335 66.971 -0.186862
462.266 73.4304 -0.349512
186.496 41.5916 0.40587
11.2156 35.3069 0.155836
457.8 77.0882 0.120831
366.595 76.7326 -0.434728
187.978 48.4528 0.0977304
476.118 58.1417 0.108937
125.37 10.4837 0.230848
284.085 36.3763 -0.301084
345.377 67.9987 0.100618
321.988 21.8373 0.218279
522.759 85.9613 0.294727
332.395 3.65026 0.4936
40.146 33.6008 0.286999
354.876 54.95 0.337166
324.469 68.2749 0.385309
528.869 72.5498 -0.224656
501.662 61.5726 -0.227383
402.234 19.9872 -0.215243
524.961 72.6371 -0.414207
238.278 2.05142 -0.482369
295.619 44.3235 -0.498493
21.8425 46.8515 -0.294929
506.37 54.8041 0.136613
431.098 40.8825 -0.502043
348.287 0.738795 -0.646815
106.573 5.54579 -0.359732
324.688 59.7303 -0.0957427
11.2656 0.889548 0.328602
555.417 12.9367 -0.240213
293.374 63.8787 0.39705
[...]
POINT_DATA 13483
TENSORS Strain_matrix float
-0.0145486 0.0198536 -0.0435854 
-0.0147725 -0.000777259 0.051701 
-0.0201911 0.0042384 -0.088896 

-0.0180227 -0.0696017 -0.746897 
0.0226469 0.0141723 -0.623187 
-0.00197385 -0.00505894 -0.201124 

-0.022085 -0.0235918 -1.67941 
0.00010767 -0.00271843 0.482292 
-0.00113357 0.00523624 -0.011102 

0.0646719 -0.016347 0.170703 
0.0589276 -0.0354989 0.136823 
-0.00848436 0.0046525 -0.0296052 

-0.259355 -0.26627 0.676906 
0.125925 0.417694 -0.156319 
-0.0392453 0.0227931 -0.132038 

-0.21606 -0.280658 4.50265 
0.211156 0.139238 -4.5385 
-0.00384047 0.00229074 0.232538 

-0.0375486 0.0619737 0.502944 
-0.0968794 0.0115142 0.349497 
0.0367407 -0.00919467 0.0548999 

-0.0103808 0.0349075 -0.0588506 
0.0041891 -0.0166834 0.00903566 
0.0693321 0.00590925 0.101807 

-0.153165 0.169023 0.266449 
-0.218666 0.233145 0.40453 
-0.00826822 0.000981351 -0.00776029 

0.0168226 -0.0613168 -0.047336 
0.062228 -0.00488319 -0.100823 
-0.0025539 -0.00245051 0.00318919 

-0.0621789 0.0139679 -0.0606394 
0.120975 0.0377038 -0.249241 
-0.00193671 0.02117 0.157907 

-0.0352843 -0.00244089 -0.00166102 
0.0867526 -0.0123734 0.00682359 
-0.0035402 -0.00483991 0.0505888 

-0.014971 -0.168895 0.0334631 
0.0772329 -0.00342988 -0.187992 
0.0314115 -0.00440036 -0.000887625 

-0.0721634 -0.047945 -0.572465 
0.0747818 -0.0129595 -0.275456 
0.00174127 -0.00168381 -0.0366244 

-0.0893412 0.0944896 -1.63524 
-0.0542575 0.0844869 0.473687 
0.000173253 0.00117066 -0.0899523 

-0.0059827 -0.0110319 -3.44735 
0.122064 -0.0861055 1.40245 
-0.0172592 -0.00277442 0.018855 

0.0389239 -0.176972 0.530258 
0.181914 0.00552923 0.469475 
-0.00100428 0.00391572 0.101879 

-0.190827 0.0405733 -0.983057 
-0.112357 0.15196 -3.34399 
0.00694671 0.00122309 0.355028 

-0.062716 0.0820775 0.363823 
-0.16529 0.147088 -0.638445 
0.0238632 0.0314603 0.100099 

-0.0218945 0.0668099 0.0260049 
-0.1125 -0.00443137 -0.0928874 
0.0058038 0.00187227 0.0449875 

0.0139497 -0.252144 -0.657471 
0.00654029 0.0949207 0.393342 
0.00379146 0.00163933 0.00369751 

-0.00973183 0.0174297 -0.0285515 
-0.0195483 -0.0176581 -0.0256986 
-0.0112858 -0.0115605 -0.0153722 

-0.0845106 -0.00294169 -0.15103 
-0.0659074 0.126365 -0.98084 
-0.00192068 -0.000326263 -0.122913 

-0.0143994 -0.097443 -7.95914 
0.0416247 0.0697866 0.490188 
0.00104908 0.00258051 0.0412872 

-0.0321206 -0.0178625 0.0226223 
-0.120684 0.025301 -0.0667005 
0.00340456 -0.00830182 -0.0207463 

-0.000350126 -0.264101 0.0542393 
0.282742 0.0553782 -0.0610485 
-0.077165 0.0802055 0.349206 

0.0335844 -0.0609313 -0.125721 
0.0186511 -0.0286583 0.284059 
0.00277875 -0.00104608 0.152583 

-0.0143909 0.0242175 -0.0723708 
-0.0296365 -0.000146017 0.056142 
0.00526083 -0.00117015 0.0247715 

-0.183947 -0.0561558 -0.817003 
0.075674 0.112644 0.0241683 
0.0106283 -0.0117627 0.233945 

-0.0173684 0.04428 0.175329 
0.133802 -0.0221553 0.143605 
-0.0169494 -0.00274548 0.125501 

-0.145999 0.0159011 0.00302483 
0.0460467 0.00829216 0.377107 
-0.00523898 0.00769423 0.107838 

0.0367667 0.0210375 0.158467 
0.0275261 -0.0268085 -0.00671721 
-0.00879061 0.00108478 -5.09098e-05 

0.0290264 -0.0600774 0.0170053 
0.0448644 -0.00947975 -0.0404141 
0.0317908 0.0171251 0.0453869 

-0.0212377 0.0447864 0.0647218 
-0.0158426 -0.010126 0.156098 
-0.00611962 -0.00431653 0.0174043 

0.0126796 -0.0364192 0.0550744 
0.0267538 0.00411302 -0.0776176 
0.00202197 0.002136 -0.0326156 

-0.0103217 -0.081868 0.385983 
0.00319229 0.0541318 0.565796 
-7.67989e-05 -0.00176705 0.00984429 

-0.0784291 0.0238664 -0.0633533 
-0.0547362 0.0519949 -0.471624 
-0.0142117 0.00295771 -0.0906428 

-0.500892 -0.294338 -0.620567 
0.257491 0.406033 0.827817 
-0.000568335 -0.0189487 0.140399 

-0.209255 0.392469 0.212786 
0.143761 0.132587 0.452696 
-0.0237342 0.00393661 -0.216144 

-0.273075 -0.178937 2.51851 
-0.0402536 0.203654 -2.28528 
-0.0114133 0.00847727 -0.0450288 

-0.196684 0.0310883 0.269781 
-0.13719 0.22297 -1.10977 
-0.0322541 -0.0312616 -0.114761 

-0.0561469 -0.0695463 0.119112 
0.0454791 0.0779505 0.0848964 
-0.000888557 -0.0018318 0.00563626 

-0.00581262 -0.00230834 0.014344 
-0.00625513 0.00756263 0.00469052 
-0.00157189 0.000755806 0.00146476 

-0.121377 0.0396597 -0.14614 
-0.121668 -0.0305657 -0.0748868 
-0.0477138 0.0421846 0.112694 

-0.160336 -0.23687 0.00144574 
0.154413 0.176716 -0.106918 
0.0121295 0.00560574 0.00204921 

-0.308288 0.10769 0.257713 
0.355244 0.0522489 0.33666 
0.0465301 0.0285075 0.379568 

-0.00670067 -0.0183522 0.0172759 
0.0343974 0.00463822 -0.0165938 
0.00127493 -0.000405518 -0.000702481 

-0.0065072 -0.00409318 0.0208306 
-0.0107835 -0.020364 -0.00228657 
-0.00100861 -0.00152391 0.0256598 

-0.0102578 0.102033 0.728509 
-0.135457 0.0493805 -0.578816 
-0.0160618 -0.00770995 -0.117545 

-0.197566 -0.0213165 -0.840138 
0.184837 0.147978 1.03678 
-0.00206819 -0.00186772 -0.00502881 

-0.0469349 -0.112927 0.0696031 
0.0493225 0.0401213 0.350849 
-0.00079688 -0.00138291 0.0491331 

0.00847875 -0.0411032 -0.0179038 
0.0384091 0.0136996 -0.107605 
0.00766253 0.00804725 -0.0628754 

-0.10498 0.0725912 -0.327413 
-0.0141464 0.0936096 0.200362 
-0.000137694 -0.00147599 0.0511843 

-0.100216 0.0374696 -0.197906 
-0.0856385 0.06947 0.0146771 
-0.0247821 0.0180931 0.0323107 

0.0140153 0.00578573 0.145962 
0.011384 -0.0227114 -0.0635933 
0.00271434 -0.000707152 0.18326 

-0.0442569 -0.00227924 0.0907996 
-0.282655 0.0797828 -0.43611 
-0.000682643 0.000143548 0.0308854 

-0.0638015 -0.10216 -0.0786628 
-0.147121 0.062323 -0.335364 
-0.0360503 -0.00966784 0.0487375 

-0.00899668 -0.00329971 0.0283468 
0.00309166 -0.00946926 -0.0102564 
-0.000114667 -0.00112774 0.0234597 

0.000679243 -0.00263759 0.00508089 
0.00519517 -0.0170261 -0.00277993 
0.000294948 0.000987132 0.0099575 

-0.476284 -0.562335 -0.754855 
0.171874 0.267228 0.0705355 
0.0121458 0.00301733 0.227642 

-0.0363438 -0.121189 0.0215662 
0.111588 0.124169 -0.606616 
0.019786 -0.000902835 0.050334 

-0.096841 -0.108684 0.408599 
0.0263998 0.0618241 -0.0229549 
-0.0176738 -0.0067138 -0.047408 

-0.0645771 -0.485093 0.256484 
-0.0163892 -0.113008 -0.380428 
0.00312459 0.0157815 0.133044 

0.0134688 -0.064827 0.171332 
0.0841404 0.00834599 -0.0352112 
0.00282778 -0.00586471 -0.0356128 

-0.00376509 -0.0273985 0.124817 
-0.0460048 -0.0389395 0.288044 
-0.0183589 -0.0465285 0.184316 

-0.157918 -0.0117835 -0.359405 
-0.114949 0.249711 0.0633728 
-0.000280729 0.0034857 -0.0208385 

0.0138339 -0.0561608 -0.0373393 
0.0814234 0.00922825 -0.028786 
0.0034778 0.00433885 -0.0240419 

0.00917017 -0.0874559 -0.00403673 
0.0922568 0.014598 -0.0248497 
-0.000799845 0.00033475 -0.0194138 

-0.0526584 -0.0274699 -0.961089 
0.0261763 0.00054589 2.40329 
0.00447112 -0.00338509 -0.00907105 

-0.00584584 -0.00320052 0.43841 
0.00270593 -0.00033624 -0.0507691 
-0.000119714 0.00300655 0.0747822 

0.00535859 0.024723 0.0819588 
0.0469733 -0.00144539 0.170109 
-0.000817575 0.00136706 0.0222207 

-0.0688301 -0.0919655 -0.171739 
0.0760517 0.0233002 0.0438701 
-0.00306472 0.00537213 0.0339851 

0.0576282 -0.0221233 0.483426 
-0.0915182 -0.0756261 -0.618854 
0.0161044 0.0119287 0.0313875 

0.044148 -0.20405 -0.0495335 
0.33188 -0.0446257 0.171427 
0.0306043 -0.00976371 0.162154 

-0.130011 -0.00523982 1.49325 
-0.182346 0.0199756 1.867 
-0.00297403 0.00255325 0.0162579 

-0.0185059 0.000620064 0.00327514 
-0.0348755 0.00242642 0.0145368 
-0.00199889 -0.00107219 0.0136307 

0.044847 -0.0501191 -0.189525 
0.0601526 -0.0435343 0.180069 
-0.000753797 -0.000486691 0.0193998 

-0.0053797 -0.524997 -1.58051 
-0.165506 0.0237501 0.373791 
0.0123947 0.0138187 -0.0365703 

-0.530037 -0.236173 0.0753686 
0.190956 0.417566 -0.436358 
0.020016 -0.064828 0.0921475 

0.0200626 -0.0231466 0.00530843 
0.0201627 -0.0131273 -0.0353356 
0.00243731 0.000859796 -0.0145077 

-0.153305 -0.159093 0.057988 
0.192351 0.14393 -0.170847 
0.0209229 0.0281733 0.244415 

-0.0170234 -0.121761 0.144807 
0.134208 0.024648 -0.012068 
0.000900557 0.000981748 0.0418663 

0.0512317 0.0179842 0.367842 
-0.085518 0.0145775 -0.306167 
-0.00749151 0.0162969 0.0841102 

0.0153464 -0.168036 -0.45674 
-0.0166984 -0.0791194 -0.43304 
-0.00245618 -0.00207105 -0.0319985 

-0.00322592 -0.0607855 -0.00163523 
0.0493665 0.00103404 -6.21296e-05 
0.00105254 0.000665756 0.000189439 

-0.1706 0.039878 0.616283 
0.220454 0.116976 -0.557164 
-0.000781896 0.0250003 0.183313 

-0.0705424 1.06823 -4.79026 
-0.00312293 -0.0553706 -0.0640047 
0.00649182 0.0371102 0.155386 

0.00711119 -0.0434675 0.138386 
0.0712074 0.0561167 -2.06143 
0.00263866 -0.00208764 0.300521 

0.013468 0.0436489 0.00982358 
0.0233616 0.00239832 -0.0252017 
-0.0119457 -0.00347698 -0.00944982 

-0.0678127 -0.0252228 4.33158 
0.0187586 -0.0931682 -46.8849 
0.00150699 -0.0122919 -3.97107 

-0.0721914 0.260471 0.466579 
0.0457255 0.123106 0.225393 
-0.0540549 0.0503697 0.250459 

-0.0178554 0.0893419 0.0280769 
-0.065116 0.00601823 -0.0125707 
-0.0126541 0.00432006 0.0268437 

-0.0196191 -0.0291249 -0.713271 
0.00929762 0.069765 0.409863 
-0.00268949 0.00416604 0.252527 

-0.0265547 -0.207918 -0.502437 
0.200367 0.0754259 0.080471 
0.0134706 -0.0253648 -0.0143582 

-0.00936036 0.141104 -0.341068 
-0.00780047 0.0356268 0.00941995 
0.011515 -0.0103623 0.04164 

-0.0625827 -0.570584 0.663087 
-0.00810212 0.0680651 0.358034 
-0.00344429 0.0788168 0.00406318 

-0.205152 0.0100083 -1.455 
-0.169039 0.167179 -0.0725907 
0.00306469 -0.00824381 -0.024996 

0.00309157 0.0337597 -0.337443 
-0.0161649 0.00255813 -0.0740705 
-0.000899332 0.000767657 -0.00521389 

0.00607604 -0.0734959 0.370037 
0.0407662 0.00558522 -0.0721552 
0.0173916 -0.00807456 0.0471264 

-0.626514 -0.0610182 -0.106818 
0.0641098 0.330413 -0.394979 
0.016941 -0.0427799 0.288908 

0.0579289 0.0200185 0.086126 
-0.08473 -0.122655 0.57294 
-0.0195279 -0.0070507 -0.110409 

-0.0746814 -0.0185054 -0.0167919 
-0.0033867 0.112226 0.452208 
0.0151156 -0.0644489 -0.120175 

-0.0908939 -0.0703742 0.559527 
-0.0232283 0.0862203 2.54721 
0.0098241 0.00991084 -0.163945 

-0.228492 0.364003 0.0574148 
-0.0629127 0.190135 0.613775 
0.0129433 -0.0116332 0.0870868 

-0.135232 -0.135194 -0.885816 
-0.116987 -0.002315 -1.62794 
-0.0335135 0.00955574 0.351867 

-0.0121527 0.0188618 0.00531641 
-0.00622016 0.00548073 0.00426742 
-0.00352351 0.00276351 -0.000340388 

0.0806107 0.0369078 0.0902035 
-0.014479 -0.0614352 -0.0215908 
-0.00249291 0.00258316 -0.0118908 

-0.0411744 -0.00323387 1.20517 
0.0135824 0.0163332 -0.934682 
-0.000377851 -0.00130066 -0.0228027 

-0.0429823 -0.0159692 0.00234623 
-0.0599098 -0.00489546 0.0814085 
-0.0723629 -0.0163844 0.210063 

-0.0113667 0.00277025 -0.00731117 
-0.00770032 -0.00667053 -0.0287477 
-0.000976485 0.00218344 0.0169836 

0.000942615 0.000355561 6.85791 
-0.0481212 0.0079206 0.4158 
-2.02936e-05 -0.000844901 0.0542303 

-0.0793474 -0.0741724 1.55695 
0.0626202 0.097618 1.25164 
0.00225167 -0.000207841 -0.0163461 

-0.00156027 -0.00659436 -0.00711995 
0.000564372 -0.00710846 0.025896 
-0.000384037 -0.00191465 0.0106418 

-0.32466 -0.198742 -1.192 
0.282442 0.32626 1.67118 
-0.00373658 0.00895071 -0.0532055 

-0.0911046 0.118401 0.116581 
-0.140866 0.02925 0.177318 
0.00223757 -0.00931959 0.0504888 

-0.0190542 -0.126771 -0.679393 
0.00299978 0.0528619 3.47706 
-0.00470977 -0.0150415 -0.407123 

-0.0543891 -0.217471 0.0851661 
0.00118279 -0.0336846 0.351565 
0.00560918 -0.00570824 -0.00763677 

0.0259645 0.0752805 0.43377 
0.0359595 -0.0885686 -0.171471 
0.000595772 -0.00225139 0.0672764 

0.0199855 -0.129317 -0.155533 
0.0712971 0.0277421 -0.0287034 
0.0144379 0.00388014 0.0842032 

0.0361673 -0.112105 0.377352 
-0.0652051 0.00388662 -1.14632 
0.0185322 -0.0269056 -0.376546 

-0.0496446 -0.0310064 0.0329845 
0.129075 0.0501793 0.0341899 
0.00311535 0.00286525 0.00986248 

-0.0786501 0.207529 0.0116868 
-0.126917 0.109055 0.0360185 
0.00716555 -0.00732668 -0.0467657 

-0.0474837 -0.0381561 0.244819 
0.0622424 0.0121972 -0.0560134 
0.00344138 0.0111503 0.0562499 

-0.0206161 -0.0654904 0.0125662 
0.0592497 0.0139441 0.00759816 
0.00146725 0.00154834 0.0282255 

-0.202689 -0.107229 5.84673 
-0.153728 0.0674658 -4.12489 
-0.00203942 -0.00173442 0.0901627 

-0.0569327 -0.0671657 -0.250993 
-0.0452928 0.00742948 0.208763 
0.0365634 0.0135095 -0.0148949 

-0.0619018 0.0806934 -0.241856 
-0.0671096 0.128874 -0.598258 
0.00144651 0.00263243 -0.015722 

-0.0336213 0.0885667 0.27227 
0.238858 0.0515465 0.57058 
-0.0385048 0.00861892 0.134968 

-0.0359142 -0.202616 -0.648477 
-0.229665 -0.00597789 -0.0824979 
-0.000150548 0.00244795 -0.0127816 

-0.0819687 0.0749586 1.79311 
0.00402555 0.062013 4.27711 
-0.00477466 -0.00235304 -0.0543052 

-0.206409 -0.00359214 1.20591 
0.0932202 0.108791 -0.394039 
0.0218143 0.0156512 0.00419094 

-0.0217836 -0.0468632 -0.136196 
0.0452506 0.0492175 -0.00522186 
0.0019189 -0.00152671 -0.00197808 

-0.0721007 -0.0416342 0.414557 
0.119394 0.037496 -0.225847 
-0.0101554 -0.00354111 -0.0214951 

-0.0694053 -0.0569819 0.160373 
-0.00269842 -0.0348284 -0.135675 
-0.00369471 0.00233993 0.132299 

-0.0174112 -0.0757714 -0.226852 
0.0248836 0.131739 -0.538611 
-0.00889291 0.0132971 0.0763867 

-0.14386 -0.212114 -1.45162 
-0.158014 0.212855 -0.236686 
0.0718657 -0.0531444 -0.169207 

-0.0697587 0.00267879 0.0562159 
-0.0401306 0.08868 -0.150423 
-0.00330792 0.000848644 0.0220931 

-0.10762 0.204928 -1.47663 
-0.126971 0.187572 1.11661 
-0.0106097 -0.0173177 0.081014 

-0.0155227 -0.0166653 -0.00575526 
0.0108712 0.0156459 0.021872 
-1.02665e-05 0.000838243 0.000187523 

-0.0855978 -0.327437 -2.10956 
-0.223359 0.0677099 -0.105974 
0.0220292 -0.000357055 0.0211299 

-0.00923299 0.0790572 -0.0599124 
-0.059615 0.00520114 0.0309399 
0.000557015 -0.00387306 0.0195922 

0.0256015 0.0205276 -0.124081 
-0.169128 -0.00708867 0.0432916 
0.00118384 -0.000105663 -0.0013695 

-0.0965096 -0.0133971 -0.44313 
-0.0133261 0.0680341 0.810308 
-0.0132871 0.0050853 0.0353836 

-0.0811576 -0.205828 16.8801 
0.0382812 0.156219 -6.25464 
5.50467e-05 0.000900744 0.108642 

0.0291765 -0.0753506 -0.480039 
0.169558 0.00921727 0.0181418 
-0.0266817 -0.0205917 0.140877 

-0.0672295 0.0328211 -0.0851026 
-0.0643616 0.0686497 -0.0950884 
-0.0159536 0.0709487 0.102012 

0.0329742 0.0252883 0.0208455 
-0.0278071 0.00207117 -0.0625661 
0.00350642 0.00350321 -0.0244765 

-0.00600193 0.000116651 -0.000156146 
-0.00175538 -0.00237261 -0.00188814 
2.66367e-05 0.000449341 0.0109067 

-0.0829003 0.0108781 -0.867261 
-0.0480674 0.0283563 -1.13356 
0.0115472 -0.00936557 0.02519 

-0.0272429 -0.0903552 -0.0839531 
0.0326175 0.0224094 0.0812816 
0.00130431 -0.00275617 0.0197956 

-0.0827489 0.00480862 -2.23656 
-0.145868 0.100442 0.98559 
-0.00762727 -0.00241056 0.137114 

-0.0958893 -0.292907 -0.21831 
-0.153877 -0.0194241 -0.451102 
-0.00696466 -0.00404587 0.134736 

0.0458917 -0.0425891 -1.73701 
-0.00457873 -0.053014 0.433357 
0.0117662 0.00344531 0.357428 

-0.0503966 0.0400903 -2.78313 
0.0108154 0.0119689 0.615746 
0.00266632 -0.0242305 2.92309 

-0.10391 0.00314658 0.721954 
0.108211 0.125769 0.0579276 
-0.00356105 -0.00284887 0.172578 

-0.0607013 0.0997634 -1.13911 
0.107599 0.0813843 0.334392 
-0.00500063 -0.0061148 0.158523 

-0.0409269 -0.0558224 1.41277 
-0.00756188 0.0401838 -1.37981 
0.00343443 0.000694405 0.189163 

0.0568214 0.107181 -2.58314 
0.000479548 -0.0752983 0.641981 
0.0092895 -0.00154889 0.143535 

-0.0123754 -0.0698826 -0.150462 
0.1412 0.0307576 0.288025 
-0.0158095 -0.00989515 -0.0862257 

0.00536413 -0.0103044 -0.0376369 
-0.00842974 -0.00590761 0.0385511 
-1.68013e-05 0.00413265 -0.010164 

-0.0147372 -0.0373607 1.20039 
0.0253627 0.0822758 6.79717 
-0.00327288 0.0131738 0.159037 

-0.0822228 0.00135393 -0.267923 
0.0287409 0.143543 -0.200671 
0.0213614 -0.00828047 0.0567335 

-0.12651 0.121076 2.41125 
-0.122922 0.101915 0.572494 
0.00142215 -0.00496178 0.232055 

-0.0368379 -0.0405969 0.491489 
-0.0422112 0.0220689 0.665593 
-0.00118458 -0.00119983 0.144324 

-0.0517608 0.0926497 0.133159 
-0.105743 0.0435248 -0.766829 
-0.0093659 -0.00204588 0.0245532 

-0.0350315 -0.0210194 0.0386107 
0.044138 -0.0042578 0.0545352 
-0.000435184 0.00677482 0.0177925 

-0.178086 -0.0504001 -0.125137 
-0.0356107 0.161499 -0.176792 
0.00508934 -0.00045429 0.00575547 

-0.187193 -0.0897122 0.561227 
0.334241 0.171088 0.153892 
0.000721466 0.0138159 0.0170636 

-0.0510358 0.0653437 0.122532 
-0.0380468 -0.0138368 0.541183 
0.000909638 0.00503789 0.0467964 

-0.0368647 -0.0855019 0.0824315 
0.0962411 0.0394227 -0.0282584 
0.00303723 0.00142658 0.0133959 

0.0332973 -0.277862 -0.0812261 
0.298742 -0.00503474 0.0291001 
-0.00616013 0.00631493 0.100307 

0.0172118 -0.313271 -0.143598 
0.159717 0.0067025 -0.101862 
-0.0178598 0.00491968 -0.032476 

-0.0512417 -0.0319395 0.401836 
0.106744 0.0595089 -0.367237 
3.59007e-05 0.00232339 0.0172248 

-0.0448106 -0.0790359 -0.487031 
-0.0196509 9.6581e-05 0.160746 
0.00808995 0.00125716 0.0842662 

-0.187993 0.00839183 -0.0448038 
-0.0427099 0.147866 0.491898 
0.015438 0.074209 0.206434 

-0.102299 -0.128752 0.565489 
-0.0693045 0.123924 -0.90473 
-0.0108732 -0.000247451 -0.0450835 

0.0473189 -0.0169436 -0.0156772 
0.0311722 -0.0294985 0.0219603 
-0.000883525 0.000193937 -0.0249471 

-0.0317624 0.04405 -0.0234803 
-0.0971191 0.00718196 -0.0648153 
0.00100868 -0.000534153 0.0154015 

-0.125434 0.0531054 -0.428229 
0.0530322 0.106326 0.164645 
0.0188313 0.00234271 -0.198468 

0.00114496 0.0226788 0.00250497 
-0.00550891 -0.00676095 -0.0228778 
0.000998755 -0.00254367 0.0115986 

-0.101934 -0.17292 0.386046 
0.123609 0.176131 0.100033 
-0.00751048 0.00641624 0.0730932 

-0.00324238 -0.00634699 -0.00334349 
0.00766555 0.0079364 -0.00128185 
-2.45657e-05 -0.000857421 0.000110004 

-0.00485576 0.00246143 0.00933457 
-0.00484659 -0.00168842 0.0103636 
0.000449938 -0.00104527 -0.000580426 

-0.0340808 -0.0434591 -0.29126 
0.134915 -0.0162662 0.446834 
-0.00600954 -0.00176694 0.14064 

-0.14418 -0.450719 0.225651 
0.0325684 0.0805291 -0.357483 
0.0432864 0.0127603 0.205524 

-0.165171 0.0874266 -0.236528 
-0.000916498 0.0827264 0.209208 
0.00621245 -0.00999001 0.118311 

-0.0146413 -0.27353 -0.81374 
-0.0256168 -0.0516278 -0.498842 
0.0145626 -0.00767113 -0.0955827 

0.0709631 -0.0537879 -0.0904902 
0.0108591 -0.0423571 -0.350101 
-0.0252714 0.0142502 0.365615 

-0.147809 0.0531598 0.356625 
0.041697 0.169333 0.788825 
0.0131114 -0.00290494 0.00855843 

-0.00464236 -0.0554936 0.427671 
-0.0511959 0.09119 -0.343773 
0.00717823 0.0100124 0.0317607 

0.026925 -0.00486171 0.160362 
-0.0158171 -0.00406283 0.157949 
-0.00134782 0.00224031 -0.00807382 

-0.221333 -0.0939434 -1.01845 
-0.20445 0.178179 0.510077 
0.0733804 -0.0522976 0.163318 

-0.0745917 0.0735337 -0.484254 
-0.1065 -0.010207 -0.806825 
-0.0259269 -0.0207365 -0.0312754 

-0.00875223 -0.0113677 -0.127786 
-4.83945e-05 -0.00448867 0.00772665 
-0.00080908 -0.000349436 0.0177742 

0.0202801 -0.0652076 0.0752813 
0.0894513 -0.0231365 -0.187113 
0.00106406 0.0036544 -0.0166591 

-0.142926 -0.0486587 -0.639498 
0.0777905 0.144832 0.262472 
0.0117978 0.0116571 -0.0605486 

-0.0526846 0.228978 -1.13338 
0.0608277 0.0681913 0.20029 
-0.0242846 0.0267612 0.131617 

0.0022736 0.0374752 0.0900203 
-0.0114912 0.0101992 -0.187969 
9.91629e-05 0.00316346 0.0538846 

-0.012162 -0.0623083 -0.23876 
-0.0119162 -0.00121054 0.172752 
0.0317646 0.00145062 0.0302731 

0.0243903 -0.0318193 -0.159603 
0.0694831 -0.0258241 -0.0272935 
0.0002071 -0.000797201 0.000517499 

-0.0249088 -0.0232448 0.114764 
0.0559539 0.0311945 0.190982 
0.000278397 -0.000401987 -0.00891446 

-0.328134 -0.208394 2.88925 
-0.0240214 0.256174 1.28677 
-0.016002 0.0163807 -0.455387 

-0.204653 -0.307154 0.16382 
0.336877 0.214715 -0.351156 
-0.0118897 -0.0061234 0.230663 

0.00459695 -0.068966 0.0613133 
-0.123931 -0.01864 -0.142591 
0.00184234 0.000306438 0.0314566 

-0.00652098 -0.00839537 -0.0115837 
-0.00386322 -0.00259951 0.0159921 