# vtk DataFile Version 3.0
Output file generated by Yade's KinematicLocalisationAnalyser
ASCII
DATASET UNSTRUCTURED_GRID

POINTS 13483 float
456.184 53.3975 -0.428161
565.967 85.5798 -0.443837
106.779 6.01674 0.565049
588.971 23.8999 -0.235031
402.291 11.0658 0.344461
271.535 44.2074 -0.481816
136.063 6.96895 -0.499907
454.13 10.8001 0.127017
398.472 32.8635 -0.165274
537.368 25.3742 0.532836
185.255 8.96892 0.128835
226.698 6.54583 0.253945
490.223 60.105 0.141362
481.168 37.0268 0.094
120.256 21.944 -0.465342
194.644 40.5466 0.437751
191.893 13.3671 -0.294014
251.488 13.4999 0.450651
289.286 43.9586 0.430503
418.711 10.9302 0.460509
339.274 51.3526 -0.11051
438.353 70.6084 0.26986
591.168 62.0153 -0.451731
515.808 76.3815 0.463897
375.423 28.8377 0.315966
209.875 48.7091 -0.131479
393.417 40.0012 -0.504054
456.498 28.3646 0.288552
40.3523 18.7275 -0.5739
532.572 61.7781 0.329431
390.004 5.63965 0.515353
15.005 25.4553 0.303851
572.232 83.4001 -0.241097
401.475 2.44239 0.44945
71.0609 50.4859 0.11229
409.931 42.2187 0.371338
423.454 21.3298 -0.53157
293.959 29.6591 -0.195265
422.775 33.8477 0.322723
294.049 49.0409 -0.389458
214.002 15.6969 -0.369241
354.353 48.9145 -0.0665886
509.49 9.65811 0.164689
168.052 6.27216 0.343197
49.9209 7.53741 0.113504
59.839 9.33555 0.259965
520.684 10.1348 -0.595218
21.6531 13.0407 -0.306369
453.526 76.4648 0.298236
507.668 41.9428 0.351955
154.294 39.7871 0.287143
560.136 57.9612 0.127006
30.4949 31.6987 -0.109839
424.757 5.32297 0.324674
125.625 10.3205 0.559962
445.553 59.7873 0.414699
401.031 38.1281 -0.147041
153.479 1.01808 -0.33022
28.9647 2.39252 -0.335626
297.46 23.6949 0.264883
460.975 73.7217 -0.148331
371.479 51.349 0.183509
330.448 0.971893 0.200892
527.454 9.47899 -0.333172
21.981 48.7892 0.239521
224.132 37.3618 0.319341
539.803 19.4186 -0.285138
501.744 82.5653 0.351784
347.423 9.75774 -0.62354
455.33 4.06152 -0.670645
553.095 48.1638 -0.421819
117.265 8.12602 -0.455312
398.778 37.9954 -0.129805
386.453 19.4875 -0.0972371
256.748 22.0823 -0.393112
18.7844 14.601 -0.237432
574.784 62.3236 0.315107
283.054 51.1894 -0.284435
511.154 35.9619 -0.334751
520.209 22.1859 0.274818
587.985 15.0126 0.281587
373.655 51.2494 0.163377
85.4656 43.5157 -0.261119
512.8 64.4793 -0.237335
486.803 71.394 0.0965
592.951 70.1976 -0.101916
586.518 0.660711 0.691388
253.877 31.9782 -0.499678
486.367 18.2791 0.14628
22.4533 7.54466 0.694033
118.234 46.2264 0.137112
412.105 19.5615 0.261278
573.114 46.4762 0.524216
173.847 30.7358 -0.22905
38.3491 41.4906 -0.271671
400.841 0.908481 0.426257
209.46 9.12297 -0.439905
549.848 75.6975 0.259222
567.188 41.9367 -0.262327
305.075 35.0551 0.259716
146.778 32.4411 -0.446636
419.601 63.1626 0.413901
319.365 24.1536 -0.490777
342.332 38.5327 0.0928707
318.396 11.7469 0.481933
438.271 12.148 0.131202
594.154 30.1713 -0.184
73.3206 45.7091 0.391569
290.625 5.90971 -0.275803
448.916 9.16559 -0.452812
306.12 61.8583 -0.458396
22.9032 27.7264 0.56069
27.9222 6.49519 0.285622
437.82 43.5461 0.518505
402.137 31.6124 0.176457
21.7089 42.3577 -0.410612
83.6867 35.6653 0.225824
281.892 19.61 -0.282824
463.224 31.8145 0.121112
382.913 59.7142 0.298642
545.55 7.74639 0.541256
540.725 11.463 0.176848
328.119 52.8502 0.094694
481.696 53.2766 -0.0937356
211.657 19.995 -0.494725
287.487 3.82704 0.589163
91.547 35.3994 -0.304225
102.65 26.5824 0.318515
419.566 57.5583 -0.0770875
267.35 21.7856 0.564329
530.532 67.6649 -0.108234
506.343 79.9232 -0.107545
389.128 27.7783 -0.390926
576.102 16.8258 -0.333495
353.439 33.243 0.232792
243.934 33.1298 -0.305773
504.198 57.3099 0.337978
245.638 37.6968 0.431466
461.875 14.1295 0.257558
283.772 49.3409 0.206743
407.066 17.3626 0.487199
311.727 48.5334 -0.0839526
354.844 25.2291 -0.111754
270.154 57.9353 -0.440337
170.191 32.9964 -0.118354
569.254 90.6725 -0.149109
590.71 34.2668 0.279107
6.13308 13.007 -0.402712
358.968 32.6257 -0.446328
34.7761 26.5258 0.0888389
319.422 46.1576 -0.514457
333.661 31.2465 -0.266482
65.933 13.607 -0.44981
46.3177 38.7053 -0.436417
202.324 14.2771 0.517388
466.69 70.1615 0.381615
454.346 31.1946 -0.552747
66.8474 23.8851 -0.487785
520.043 74.8278 0.304559
566.169 2.30703 0.629699
493.233 81.8142 0.469617
525.558 1.83059 0.638751
432.465 39.4286 -0.434024
437.893 72.3609 0.447296
412.341 24.6157 -0.443615
596.494 12.3777 -0.225094
197.751 28.4665 0.1295
113.316 42.6373 0.188866
221.041 7.3612 0.468806
84.2516 5.00789 0.298136
56.5145 11.4938 0.195481
244.857 44.9621 -0.298599
15.8076 26.9871 -0.388985
442.186 25.942 0.441359
448.083 73.1001 -0.190669
379.917 36.6034 -0.423435
583.2 74.7213 -0.360981
340.607 9.76923 -0.11089
358.661 53.7922 -0.394598
431.854 3.31136 -0.255087
20.9829 23.9128 -0.461491
465.763 5.48165 0.56803
439.38 4.18867 0.425026
183.274 11.4952 -0.584481
355.856 17.5135 -0.209651
272.265 7.25096 0.411167
328.403 28.673 -0.400268
545.323 79.9663 0.111001
172.855 27.6786 -0.482881
580.139 9.11377 -0.496037
545.342 71.2984 0.335812
324.472 16.0793 0.200289
538.147 10.0397 0.654589
461.344 49.1148 -0.430643
552.5 27.0319 0.446781
351.566 61.3013 -0.264782
401.694 19.1198 0.517915
375.18 64.1901 -0.239734
370.56 18.9005 -0.153935
498.441 77.5162 0.260187
498.277 71.8908 0.310817
170.814 44.3155 0.329724
587.199 16.9415 0.109396
436.801 73.6361 -0.25094
9.77021 19.4302 0.169589
342.368 30.2245 0.452762
167.441 26.4891 -0.390199
86.3339 45.1776 0.202886
573.184 42.4462 -0.489166
490.243 84.3651 -0.220086
278.289 32.8095 0.388878
428.524 10.9593 0.45006
76.1643 51.9171 0.161362
219.337 29.4327 0.481229
441.062 30.3497 0.451227
393.613 30.4119 0.456034
235.291 0.917841 -0.421213
423.096 62.0759 -0.355424
414.019 67.8291 -0.430716
383.676 63.7654 0.390806
408.108 4.4381 -0.545421
528.392 34.5978 0.446217
158.384 15.9313 -0.186963
402.234 50.9744 -0.421454
427.829 65.4335 -0.114172
65.3371 0.909557 -0.33577
225.285 4.83798 -0.179244
590.716 36.2631 -0.144098
587.742 20.6163 -0.480403
595.899 39.444 0.598095
264.878 9.06901 -0.367733
555.074 34.3896 0.527109
343.507 67.1105 0.328068
372.305 1.52121 0.740953
492.121 68.3536 0.43733
23.8601 35.249 0.304577
283.642 60.5931 -0.481082
226.331 3.20321 0.440307
573.893 74.5873 0.175272
526.837 86.5538 -0.223509
253.18 14.2321 0.151022
502.087 60.3134 -0.0778976
450.713 2.52565 0.30129
437.609 7.36855 0.548553
86.5727 19.698 -0.498985
265.885 0.987977 -0.293278
299.064 3.05945 0.458298
13.0556 7.36744 0.667059
4.60723 34.8934 0.250241
143.906 21.5455 -0.346931
61.8227 48.8351 -0.212105
59.2594 32.6056 -0.31619
357.246 16.2904 -0.40551
314.956 52.3277 -0.462174
557.991 58.6733 -0.135243
18.8452 4.53031 -0.257507
62.9995 7.75081 0.126169
470.863 70.4176 -0.136362
257.686 0.886662 0.428023
310.719 25.1222 -0.0911166
211.633 4.81603 -0.400479
499.131 44.7027 0.204141
375.538 13.4712 0.491884
554.838 29.9623 0.458439
478.623 56.0335 -0.325657
511.701 32.0229 0.0744242
350.688 35.5348 0.480861
94.8022 51.0522 -0.306289
411.784 72.5754 0.0657197
551.093 21.6376 -0.265634
211.041 35.6855 0.248723
29.9142 19.1482 0.19069
293.528 15.63 0.606227
99.6896 46.3518 -0.463777
239.907 52.3639 -0.212236
360.602 1.01288 0.213452
572.691 59.2352 -0.419896
518.882 2.1014 0.732531
291.425 4.30122 0.496767
264.779 32.5351 0.143983
376.152 62.3548 -0.201377
73.0283 8.63795 0.62094
178.592 52.0323 0.379956
569.908 50.6168 0.382624
399.232 61.1563 0.065033
179.148 47.5856 0.263584
145.037 48.6576 -0.393266
597.495 60.386 0.407732
592.998 28.874 0.521691
487.743 8.5786 -0.473093
171.1 27.8533 0.103597
434.005 40.7348 -0.135577
435.742 39.6957 0.308712
344.98 6.67424 -0.141419
396.812 0.947472 -0.347752
557.399 62.1393 0.490585
75.9503 36.2156 -0.226546
505.107 37.2058 0.492764
240.517 19.5249 -0.3727
9.07956 2.31498 -0.40396
114.83 44.4881 -0.182833
59.9203 27.1271 -0.457705
525.885 61.775 0.311902
578.273 89.9536 -0.163265
166.405 31.5344 0.197919
587.271 30.4022 0.339768
40.1166 43.5512 -0.239536
81.9429 33.8254 0.152534
488.033 36.8154 0.46014
350.216 17.6803 -0.609937
419.581 21.7797 -0.121101
211.163 33.7343 -0.196019
485.379 22.4774 0.492743
595.724 28.9001 -0.378565
27.0368 37.0627 -0.267131
239.132 10.5063 0.214715
199.901 15.994 -0.251581
1.09706 39.4945 0.0380047
203.461 14.8362 -0.421314
189.474 11.4595 -0.137822
192.091 27.8426 0.266633
118.766 33.4537 0.118347
442.438 16.2328 0.452081
148.416 15.9296 0.397474
570.718 82.0438 0.14121
154.512 4.23722 0.49746
41.8177 44.4634 -0.349644
551.568 89.3009 -0.43887
250.64 40.7333 0.398606
511.987 41.5785 0.453377
579.634 59.0427 -0.517077
263.114 9.8307 0.148485
545.397 54.8909 0.348882
289.453 2.44822 -0.415725
347.934 29.6415 0.595918
510.794 21.3505 0.509425
95.9937 12.0157 0.499876
398.37 3.93203 -0.548031
557.679 27.2934 0.20253
79.6348 7.5559 -0.222434
248.403 18.6571 0.214722
357.624 13.7194 -0.289786
597.647 11.0433 -0.64994
335.347 1.91007 -0.600594
159.305 46.9833 0.261279
551.937 10.2952 0.301889
116.632 43.2915 -0.185513
232.32 40.3242 -0.370628
340.008 24.0075 0.231902
462.35 15.877 -0.429401
327.019 12.7198 0.541478
376.103 43.8304 -0.441178
566.004 87.027 0.130248
42.8004 12.712 -0.116165
261.733 45.3131 -0.270249
322.714 38.1193 -0.425065
346.237 21.8077 0.291257
409.211 65.9666 -0.385007
553.986 64.0066 -0.200128
501.096 70.8509 -0.347524
200.926 38.5978 0.419454
11.3609 35.2959 0.149372
496.567 74.7513 0.121316
400.277 72.5247 -0.450164
203.576 43.9736 -0.0936016
515.262 55.8923 -0.109873
133.97 10.1284 0.200904
311.663 33.6679 0.297939
377.309 64.3117 0.10192
350.437 21.5541 0.189359
563.468 82.8613 0.299812
361.118 3.45452 0.494781
43.7028 31.2567 -0.28443
385.412 52.0951 0.364666
354.805 63.4871 0.365994
569.513 69.6048 -0.2363
541.617 59.7256 -0.241391
437.168 19.811 -0.197938
565.669 69.7356 -0.42014
257.484 2.12715 -0.473904
323.776 40.7951 -0.541296
24.1155 43.7832 -0.293984
546.342 52.0923 -0.138471
467.376 39.9119 -0.489351
379.909 0.764208 -0.579138
114.594 5.52142 -0.342408
354.307 57.0032 -0.0935076
11.4231 0.892762 0.324665
596.327 9.65553 -0.194518
319.67 58.4789 0.399078
[...]
POINT_DATA 13483
TENSORS Strain_matrix float
-0.00354705 -0.0311539 -0.214196 
-0.0238619 0.0264823 -0.196055 
0.0170626 -0.000980851 0.0343505 

-0.107262 -0.00885196 1.18738 
0.120669 0.095957 -1.08155 
-0.00409971 -0.00366408 -0.143088 

-0.0276729 -0.0452769 -1.87156 
0.0252162 0.0571654 0.604689 
0.000591738 0.00287232 0.20453 

-0.0549041 -0.0482732 -0.214491 
0.0469795 0.0210636 0.0905316 
0.00619239 0.000116083 0.0739173 

-0.242137 -0.358705 0.0242124 
0.236367 0.311774 -0.072076 
0.0952007 -0.0323525 0.13737 

-0.364465 -0.19131 0.302532 
0.0350976 0.214971 -3.4792 
-0.00276867 -0.00661623 0.0225759 

-0.0629042 0.0683549 -0.352706 
-0.00846809 0.0171449 -2.03676 
0.0356234 -0.0120169 -0.609866 

-0.167696 0.129672 -0.324649 
-0.121835 0.172121 -0.535874 
0.0754882 0.0112457 0.149715 

-0.186675 0.316324 0.433121 
-0.0385902 0.151325 0.187404 
0.0303645 -0.0151351 0.251038 

-0.013261 -0.0355416 0.0204268 
0.0179028 -0.00307903 0.0817896 
0.000167406 0.00118611 0.0357046 

-0.0100614 -0.0074322 -0.0922522 
-0.0132939 0.0207175 0.183264 
7.09525e-05 -0.000718422 0.0531504 

-0.0472619 0.0290399 0.217948 
0.0105066 0.012603 0.254197 
0.000655421 0.00660547 0.104694 

-0.0262392 -0.0409078 0.257009 
-0.0453198 0.0372819 -1.03507 
-0.00140161 0.022507 0.124316 

-0.00409581 -0.122122 0.371267 
-0.00936632 0.00791251 -0.129722 
-0.000119629 -0.00159985 0.028498 

-0.0053749 0.0651273 -0.828889 
-0.0939411 0.0166905 2.10763 
0.00033946 0.00204743 0.218609 

-0.261607 0.189114 3.978 
0.00975172 0.10053 -2.26538 
-0.00154096 0.0134714 -0.0176441 

0.00997613 0.0291632 -0.0821884 
-0.00708437 -0.0218894 0.0972456 
-0.00030542 0.00170164 -0.0240521 

-0.200795 0.103611 -1.86722 
-0.254436 0.169213 -0.622741 
0.00737891 -0.0103266 0.0699306 

-0.203298 0.15203 -0.669039 
-0.269949 0.141933 -0.700059 
-0.00147242 -0.00381594 0.0457178 

-0.350032 -0.40861 0.0423099 
-0.0550163 0.222912 0.07948 
0.0226167 -0.00943522 -0.00857894 

-0.0633717 -0.0275521 0.016638 
0.0177494 0.0446829 0.181474 
0.0271852 0.0741725 0.377907 

-0.0580596 0.0965079 0.0179974 
-0.0568324 0.0195659 -0.100901 
-0.0258151 0.0248444 0.17175 

-0.105944 -0.0142335 1.70084 
-0.0578115 0.118915 1.33053 
-0.0120472 -0.00729322 -0.0171328 

-0.0132932 -0.0377397 0.415444 
0.0305048 0.00149841 1.74145 
0.0118013 -0.00121641 0.139879 

-0.00887901 0.141447 -0.0964902 
-0.064236 0.028524 0.0336244 
-0.00308705 0.00881067 0.0706816 

0.0232729 -0.0832759 0.18208 
0.108405 -0.00869544 0.00929336 
-0.00227145 -0.0146404 0.336525 

-0.108711 0.00239397 0.0293594 
-0.141299 0.171255 -1.36966 
-0.00438484 -0.0035897 0.223844 

-0.117565 0.0111516 0.571292 
0.0957779 0.137521 -0.098166 
0.018277 0.0212719 -0.0111897 

-0.0743446 0.0051644 -2.48472 
0.042579 0.0900154 0.0849249 
-0.00516067 0.0034929 0.0163709 

-0.0830195 -0.00222686 -0.505435 
-0.0179645 0.0390804 -0.0116113 
-0.0301157 -0.0188335 -0.0576117 

-0.0420968 0.0434625 -0.0544927 
-0.0910209 -0.00840199 -0.0207532 
0.0111691 -0.000552141 0.028191 

0.00276337 -0.0192814 0.00480261 
0.0261438 0.00551223 0.051291 
-0.00580276 0.0222948 -0.0637996 

-0.171013 -0.34541 0.592497 
0.110516 0.222869 -0.334134 
-0.0115702 0.00739554 -0.0694569 

0.0177918 -0.138851 -0.345591 
0.0867478 0.0375312 -0.184032 
-0.00266007 0.0188508 -0.0257752 

-0.0417345 -0.0885207 -0.329845 
0.132627 0.128553 1.01459 
-0.0325956 0.0792809 0.523995 

-0.039757 0.153363 -0.55912 
-0.149074 0.0580551 0.634162 
-0.00310144 -0.000942542 0.0577371 

-0.0472721 0.0191906 0.277797 
-0.0671399 0.026892 1.46046 
0.00364757 -0.00630867 0.2364 

-0.206699 -0.395978 -0.0488467 
0.327797 0.302034 0.361206 
0.00332593 -0.00666767 0.0392389 

0.101066 -0.184852 -0.394603 
0.153151 -0.176394 0.104376 
0.0179222 0.0124437 0.151661 

-0.0393023 0.0479424 -0.845348 
0.0793203 0.138601 -2.34973 
0.00412428 -5.89971e-05 -0.111435 

-0.0247425 0.112402 1.34406 
-0.0410965 -0.000861449 1.14383 
0.0066787 0.00629443 0.038778 

-0.294918 0.20542 0.379624 
-0.274977 0.182017 -0.430997 
-0.00305805 0.00290632 0.0110677 

0.00896972 -0.0240178 0.115926 
-0.00182801 0.0133665 0.131329 
-0.0117525 -0.000547224 0.00617797 

-0.00839044 -0.0119776 -0.00650812 
-0.00559334 0.00672297 -0.0153009 
-0.00311364 0.0016229 0.00472908 

-0.126946 -0.0582046 0.00828198 
0.0680256 0.129419 0.513901 
-0.0010983 -0.0126224 0.0973056 

-0.0272553 0.0294504 -0.0426495 
-0.000801194 -0.00250584 0.0462136 
0.00584871 0.000951658 0.0800767 

-0.0367098 -0.120399 -0.233958 
0.0646798 0.0672046 0.0462582 
-0.00109978 -0.00421202 0.0135105 

0.0512118 0.0547617 0.0232373 
0.0586221 -0.0658412 0.0991001 
0.00314079 -0.00015703 0.0234322 

0.0209288 0.0390244 0.366957 
-0.0689898 0.00859231 -0.154345 
0.00146302 0.00199465 -0.00860485 

-0.0343188 -0.0973994 0.31091 
0.0232081 0.0227741 -0.0819979 
-0.00508962 0.0016572 0.0165292 

0.0428004 0.116371 0.0104588 
-0.0713292 0.00361236 -0.518382 
-0.000311938 0.00132831 -0.0233534 

-0.00572962 0.011829 -0.0973713 
-0.0257544 0.00734267 -0.322611 
0.00408426 0.0049682 0.0479531 

-0.0604092 0.0317803 0.261415 
-0.0804297 0.10661 0.0569038 
-0.000584065 0.00214829 -0.0175979 

-0.0890318 0.135457 0.0779041 
-0.00643106 0.109177 -0.252761 
0.00832777 -0.0741244 0.0536324 

-0.0307376 0.0904501 -0.832603 
-0.00739485 -0.0562098 -5.2032 
-0.00380544 0.00475927 0.221948 

-0.238305 -0.0158251 0.925493 
-0.0168013 0.169346 2.34353 
0.00386729 -0.0263172 -0.0174542 

-0.297163 -0.230395 -0.282654 
0.102939 0.241488 0.241967 
-0.0176443 0.0175439 0.0855802 

-0.0080649 0.0122102 0.00128333 
-0.00196291 -0.00205479 0.000839083 
-0.000278143 0.00199086 0.0368006 

-0.0177957 0.044945 -0.0832494 
-0.0431068 0.0652882 -0.146435 
0.00402121 -0.0883741 -0.201278 

-0.217424 -0.439857 -0.699262 
0.582743 0.309764 1.85683 
0.0262898 -0.0253456 -0.0898728 

0.0165376 0.14875 0.345945 
-0.10939 0.0522029 -0.468676 
0.0042922 0.00186533 0.0661542 

-0.255444 0.0624659 0.725741 
-0.364117 0.227838 0.388339 
0.00333402 0.0117247 -0.0857581 

0.00525733 -1.00678 -1.12178 
-0.00391208 -0.207669 0.448357 
-0.0174692 0.215723 0.441197 

-0.0505314 -0.0773372 -0.385569 
0.0140863 0.102793 -0.194427 
-0.0316122 0.00357802 -0.149075 

0.00755152 -0.124793 -0.0389444 
0.0444112 -0.0256047 0.220179 
0.00107642 -0.000808942 0.0165125 

-0.0795506 -0.173315 -0.384517 
-0.00375554 0.112846 0.399731 
0.0120321 0.0105783 0.0904785 

-0.0147255 -0.00415055 0.038345 
-0.0495447 -0.0185689 0.0542951 
-0.00326634 -0.00788649 0.0359845 

-0.0253707 0.03716 -0.0586023 
-0.0711691 -0.00731208 -0.0427425 
0.00595154 0.0279676 0.0653935 

-0.0204954 0.0872518 -3.14127 
-0.041028 -0.00222308 5.94978 
0.00571782 0.00262469 0.263315 

0.00467474 -0.00955354 -1.27002 
0.00449818 -0.00350745 -0.804061 
0.0037709 -0.00600743 0.274246 

-0.0872242 0.0306032 -0.00790913 
-0.0336346 0.0592306 0.121525 
-0.030638 0.00289157 -0.0649286 

-0.127167 -0.146879 0.127235 
-0.0493114 0.00991249 -0.210338 
0.00165925 -0.00696343 0.036118 

-0.231695 -0.134048 -0.288262 
0.0981344 0.219614 0.0659372 
-0.0203621 0.00704631 0.177874 

-0.273795 0.0676434 -0.203591 
-0.326859 0.231887 -0.990181 
-0.00236976 0.0054655 0.00174808 

-0.0917277 0.0421244 -0.146882 
-0.14334 0.103472 -0.221991 
0.00291173 0.00468551 -0.0174184 

0.00176435 0.0211285 0.132163 
0.0292632 -0.00986217 -0.021229 
-0.0034682 6.63605e-05 0.023793 

-0.029077 -0.0249914 -0.123676 
-0.0402301 0.0662518 0.308175 
-9.83095e-05 -0.00216471 0.0164252 

-0.0160962 -0.113171 0.0519667 
0.0456164 -0.00180256 -0.000664822 
-6.48191e-05 -5.70679e-05 0.0338139 

-0.508524 -0.00446697 -0.228086 
0.195269 0.302499 0.190259 
0.0227698 -0.00743083 0.0298151 

-0.0273548 -0.0716393 -0.0730757 
0.0581067 -0.0038922 -0.0225028 
-0.00430882 0.0109549 0.015949 

-0.0396492 -0.0353632 -0.0691303 
0.0156686 0.00338776 -0.0604764 
-0.00406964 -0.00315065 0.0349497 

-0.0131851 -0.0780626 0.887164 
0.0269446 0.0183413 0.408379 
0.000492785 -0.00092188 -0.0019934 

0.0386765 -0.101973 -0.107018 
-0.147213 -0.0220913 0.402944 
0.0187606 0.031575 -0.0747832 

0.0316976 -0.0339971 -0.106334 
-0.040478 -0.0357311 0.0352637 
-6.67078e-05 -0.000593548 -0.00491779 

0.000844737 0.00714198 -0.00860059 
0.00403093 0.00238606 -0.0296589 
-0.00166678 0.0284189 0.061148 

-0.124088 0.00241111 -0.0775618 
0.00244964 0.105909 -0.0299556 
-0.0030771 0.00127836 0.0173848 

-0.0437312 -0.201421 0.786262 
0.00781028 0.0303874 -1.35034 
0.000607021 -0.055145 0.17628 

-0.0516175 0.00958697 3.3785 
-0.0455131 0.052534 -3.47767 
0.0016835 -0.00239509 -0.0256688 

0.0399495 0.0493284 -0.143001 
0.0314778 0.0114487 -0.128549 
-0.000881417 -0.00401668 -0.047481 

-0.0130507 -0.69929 -189.381 
-0.0158907 0.276292 58.6699 
-0.0010156 0.00691379 2.41018 

0.00041127 0.0632758 0.069332 
-0.155085 -0.00673348 0.21948 
0.000841948 -0.00141367 0.0107383 

-0.0857718 0.0243227 -0.0712241 
-0.00381112 0.0877623 0.199969 
0.00640643 -0.00555723 0.082101 

-0.010224 0.0382967 0.277113 
0.0103496 -0.00662987 0.576965 
0.00243115 -0.00225704 0.00141488 

-0.00788155 -0.034903 0.18073 
0.0249581 0.0197056 0.105695 
-0.00147586 -0.000122307 0.0222434 

-0.000820076 -0.021881 -1.10839 
-0.0273422 0.0108305 1.17876 
-0.000556453 0.000613626 0.0424312 

-0.0028572 0.767172 -1.16131 
0.0189544 0.0249839 0.0816691 
-0.00163368 -0.0587198 0.138376 

0.0399748 -0.00752748 0.263071 
0.0257711 -0.0354892 0.0158396 
-0.00934543 -0.00358227 -0.031247 

-0.0333465 -0.0604575 -0.104165 
0.0455921 0.00996996 -0.204775 
-0.0256193 -0.00650026 0.101961 

-0.0273329 -0.0581823 -1.39403 
-0.0744301 0.0208845 0.387788 
-0.00542099 0.00179147 0.100398 

-0.0929928 0.0469064 -0.18886 
0.0269839 0.0698233 -0.419287 
-0.0316416 0.00854695 0.114907 

-0.0642363 0.0194717 1.39617 
0.0391235 0.0748066 0.662186 
-0.00267914 0.00133193 0.0581112 

-0.284009 -0.110262 -4.06222 
-0.0821821 0.181548 3.21324 
0.00356354 0.00696653 0.204564 

-0.0873223 0.0145237 -1.56777 
-0.117975 0.0686267 -1.25955 
-0.00775877 -0.00462571 0.354003 

-0.125643 0.033189 0.754852 
-0.372999 0.261293 -0.149 
0.0957089 -0.0224559 0.309865 

0.0127062 0.148036 0.0119544 
-0.181674 0.0127599 -0.158911 
-0.0577747 -0.0274455 -0.000771701 

0.10357 -0.0600083 -0.185969 
0.0979886 -0.070394 0.162775 
0.0107697 -0.0028324 0.070142 

-0.124904 0.0088918 0.233444 
0.147891 0.0422049 0.0426023 
0.0109788 0.00670628 0.0848538 

-0.0748998 -0.0136566 -0.786139 
0.0134318 0.0843374 2.53354 
0.00800751 -0.0011741 0.0462648 

-0.0158397 -0.00569127 0.0185268 
-0.0248388 -0.0156024 0.0628582 
0.0107387 -0.0286161 0.0201788 

0.0291935 0.0753631 0.714599 
0.00945684 0.00244232 -0.420946 
-0.0350539 -0.000267562 0.879256 

-0.0151736 -0.104058 5.96466 
0.0841371 0.041752 -3.75633 
-0.00122288 0.0022169 -0.149751 

-0.052882 -0.0544026 -3.5275 
0.036447 0.0992623 8.14614 
-0.00381383 0.00324627 0.523939 

-0.0141784 0.18684 -0.147292 
-0.0528584 0.0717933 -0.000354925 
-0.0891764 0.00784726 0.515805 

-0.0439178 -0.167261 0.721441 
0.145477 0.0387465 2.01617 
0.00848929 0.00779592 0.154028 

-0.0416149 0.238837 0.201179 
-0.0724303 -0.000739561 0.385166 
-0.00119364 0.00330148 -0.0146353 

-0.0430844 -0.111399 -0.36124 
-0.0510832 0.0563195 1.13677 
0.00148325 -0.00103721 0.000570103 

-0.0479357 0.0476618 -0.0525239 
-0.000804729 0.0366006 0.0183149 
-0.00416601 -0.0013849 0.0643398 

-0.204542 0.0136282 -0.047523 
-0.0321762 0.0697795 0.096463 
-0.00175324 -0.00712677 0.0694411 

-0.00827738 -0.0733587 0.109695 
0.0774342 0.0198068 -0.00150582 
-0.0232701 -0.00655978 -0.0354717 

-0.122249 -0.248726 -1.72318 
0.0937488 0.160479 2.11923 
-0.0154391 -0.00429623 0.0702533 

-0.0436942 0.0962715 0.0912993 
-0.193447 0.0486031 -0.0107328 
-0.0240917 0.0150664 0.0377812 

-0.372812 -0.0108388 -0.0428482 
-0.20948 0.184734 0.245396 
0.0165854 0.0044778 0.125371 

-0.0475391 -0.338682 -0.164475 
0.0786045 0.0490689 0.572832 
0.000316655 -0.0391202 0.0800849 

-0.000644013 0.0986884 -0.00371761 
-0.0816604 0.0100825 -0.084288 
-0.000325955 0.000840006 0.0090265 

-0.122943 -0.203196 1.04883 
0.0769153 0.176536 1.15949 
0.000365914 0.000141273 0.182193 

-0.013754 0.00310624 -0.0107126 
-0.012932 -0.0154962 0.145194 
0.00266313 0.0016402 -0.0609433 

0.0186975 -0.139814 -0.51559 
0.187001 -0.0259575 -0.327586 
-0.0638641 -0.0185387 0.036663 

-0.0418852 0.0834302 0.139303 
-0.0605192 0.000726345 -0.289195 
0.000110439 0.0024563 0.01988 

0.00988958 0.35793 0.495298 
-0.170186 0.0363304 -0.458243 
-0.000861135 -0.00186697 -0.0103992 

-0.0185399 0.0527616 0.521736 
-0.0532222 -0.0195104 -3.45209 
0.00339905 0.00426904 0.275952 

-0.0176944 0.110965 0.756711 
0.118642 0.0514404 -0.613515 
0.00015022 0.000265886 0.00366057 

6.21279e-05 0.126968 0.103081 
-0.142331 0.0211685 -0.0288461 
0.00154387 0.00841932 -0.000569188 

-0.434645 -0.437135 -0.674546 
-0.0457752 0.290097 0.482422 
0.0939454 -0.0588754 0.21341 

0.00548916 0.114094 -0.00317014 
-0.0884648 -0.0132234 0.108024 
-0.00295834 -0.0183031 0.0745455 

-0.046755 0.0677196 0.152896 
-0.0200329 0.0241187 -0.0265484 
-0.0223566 -0.0104093 0.0647176 

0.00377153 -0.00841804 0.00502432 
0.00151887 -0.00666942 0.0609555 
-0.00194664 7.21217e-05 0.0340049 

0.0224925 -0.0451951 0.0542461 
0.0268212 -0.0100259 -0.0514528 
-0.000424345 0.00102327 -0.00961041 

-0.0270915 0.0248621 -1.27703 
-0.0213597 0.00171068 -0.655446 
-0.0102217 0.00391677 0.0849952 

0.0787557 -0.0698401 0.669407 
-0.0208397 -0.0376842 0.169677 
-0.00517591 0.00595382 -0.0274375 

0.00536326 -0.111426 -0.226862 
0.0835345 -0.0174564 0.00962043 
-0.00432652 -0.00200227 -0.00186068 

-0.0839011 -0.0398502 -0.132212 
0.0389422 0.0288319 0.0150016 
-0.0226636 0.0177117 0.198701 

-0.0298867 -0.0734774 0.0243491 
0.0975776 0.0330121 0.00485308 
-0.00574351 -0.012011 0.0155685 

-0.0515957 0.144302 -0.0908529 
-0.104034 0.0106272 0.214612 
0.0179319 -0.015981 0.0789288 

-0.406531 -0.0263942 -19.403 
0.157245 -0.217397 13.4979 
0.0110707 -0.017015 -0.188731 

-0.102501 0.247643 -0.534291 
0.0141132 0.0743676 -0.0180736 
0.00443683 0.0100253 0.040334 

-0.0134495 0.0387161 -0.0416684 
-0.0384338 -0.0501959 0.167349 
0.00442767 0.00330073 0.0197419 

-0.0796364 -0.150692 0.181717 
0.00989081 -0.032833 0.305225 
-0.00134697 -0.0321401 0.0935951 

-0.161222 -0.0672593 0.383297 
-0.0191847 0.101122 -0.24442 
0.00280056 0.001965 0.0519872 

-0.188687 0.0541634 0.609088 
0.0785062 0.107175 -0.386723 
-0.0360393 0.00025029 -0.104259 

0.00593461 -0.0845414 0.244281 
0.036905 0.0115356 -0.0506305 
0.00314797 0.0185219 0.0315664 

-0.0342872 -0.0212802 -3.15577 
-0.0189512 -0.0219185 3.15938 
-0.00946937 -0.00572329 0.437951 

-0.037202 0.0138909 -0.210923 
-0.0875071 0.0253289 -0.471668 
0.0170082 -0.0125012 0.0881935 

-0.0773512 -0.0848388 -0.332472 
0.129204 0.0246708 0.0673856 
0.00497689 -0.001557 -0.0580758 

-0.092065 -0.045766 -2.9076 
0.0025842 0.0652998 2.93419 
0.00940535 -0.00658391 -0.182148 

0.0178021 0.0320482 -2.72738 
-0.00695828 0.02354 -0.196607 
0.00585848 -0.00397769 0.257117 

-0.018282 -0.120664 0.537165 
0.0828562 0.0162089 -0.401018 
-0.0101958 0.00789036 -0.0298123 

-0.0948913 -0.120954 -0.461436 
0.0274169 0.0378325 -1.9002 
-0.000815279 -0.00239721 0.284007 

-0.0361365 0.0974539 -0.249301 
0.012493 0.0465996 0.277735 
-0.0048809 0.00290241 0.281242 

-0.0794995 -0.0405074 -0.0319143 
0.0343187 0.014528 0.0128647 
-0.0600479 0.0704883 0.0426914 

-0.132667 0.214281 -0.00981139 
-0.0591241 0.0254389 -0.307364 
0.0649762 0.0310491 0.0479107 

-0.00657999 -0.0301264 3.96452 
0.0145033 0.0120742 4.34541 
-0.000620066 -0.00179775 0.211606 

-0.0158289 0.0327063 -0.70946 
0.0299166 0.00695054 0.100992 
0.00259928 -0.00240167 -0.0234585 

0.078547 -0.148481 -0.459373 
-0.0436094 0.00594219 -0.17721 
-0.00707893 -0.00247498 -0.04501 

-0.0187663 0.0135843 0.805315 
0.0124601 -0.00540249 1.35494 
0.000486237 -0.000451839 0.586408 

-0.0521163 -0.0174149 -0.0181526 
-0.0323715 0.009026 1.03838 
-0.00878361 0.000177658 0.0787826 

-0.00495514 0.0138533 -0.0531092 
-0.0162788 -0.00689261 -0.0172537 
0.00239075 0.00214216 0.0386863 

-0.0864252 -0.450022 -0.415392 
0.183524 0.145091 0.183939 
-0.0437715 0.0337083 0.209058 

-0.0285275 0.102802 0.21974 
-0.112992 0.0429254 -0.189822 
-0.000584845 0.000488563 -0.00436058 

-0.00659707 0.0119282 0.219887 
-0.0351459 -0.00116735 0.660232 
0.00857842 0.0262542 0.728902 

-0.0953135 -0.185417 0.209767 
0.108873 0.0442813 -0.940582 
-0.0395928 0.0884207 0.00515878 

-0.0195977 -0.0510664 0.150102 
-0.118762 0.00628531 0.0182474 
0.0063181 0.00833588 0.00304054 

-0.0140531 0.0679249 -0.0437746 
-0.0463517 0.0206085 0.0750413 
-0.00123548 -0.00232395 0.00867277 

-0.019885 0.00652645 -0.0290839 
0.0618675 0.0317401 -0.201486 
-0.0270418 -0.00578941 0.0852784 

-0.00445399 -0.0798913 0.559336 
0.106265 0.0279358 0.461796 
-0.00172532 -0.000324821 0.00857927 

-0.00634076 0.0702397 -1.42429 
0.0403519 0.077475 -0.077033 
0.000681008 0.00200097 -0.00598057 

-0.111952 -0.0268436 1.10017 
0.0097915 0.0902872 1.02486 
0.00111314 0.000282379 0.0222578 

-0.077363 -0.0953919 0.114483 
0.0625726 0.0736252 -0.0238243 
0.00166595 -0.00159932 0.0120015 

0.0451769 0.0514769 0.0664035 
-0.0343082 -0.0203021 0.0794219 
-0.0326565 0.039044 0.217445 

-0.169413 -0.0887039 0.10339 
0.0622469 0.133525 -2.99845 
0.00452354 0.0108182 0.188623 

0.0192174 0.00936963 -0.013986 
-0.0215551 -0.00552648 -0.00826634 
0.000887276 -0.00196659 -0.0126215 

-0.0611859 0.057398 0.270042 
0.073998 0.0648354 0.0599836 
0.00434195 0.00862432 0.0563347 

-0.0161271 0.0130967 0.0452362 
-0.0178904 0.0133387 -0.0216028 
-0.0022884 0.00142556 0.0112326 

-0.0148529 0.0429141 -0.285426 
-0.0427619 0.0290191 -0.433302 
0.0317956 -0.00227531 0.129187 

-0.00438165 0.00163918 -0.295508 
0.0104981 0.0181144 -0.978216 
-0.00201079 -0.000227622 0.185041 

-0.0420824 -0.355036 -0.11243 
0.26423 0.183469 -0.189859 
0.00819364 0.00496213 -0.0441151 

0.00727591 0.00130525 -0.00435091 
-0.00733294 -0.0132991 -0.0056956 
0.0042902 -0.00167731 -0.000762076 

-0.155184 -0.256135 0.19607 
-0.0281876 0.176974 0.280454 
0.00490146 0.0310661 0.127112 

-0.0386614 -0.111494 -0.367159 
-0.102769 0.0427782 -0.01484 
0.00304598 0.0175475 -0.0567104 

-0.0186131 0.0696537 0.616516 
-8.49531e-05 0.0238557 -0.302893 
0.00039474 -0.000265022 -0.0667785 

-0.0818972 0.0210523 -0.562379 
-0.0531168 0.0815861 0.470206 
-0.00897179 -0.000251091 0.119012 

-0.0146686 -0.0381342 0.0726982 
0.0230685 -0.00615396 0.297825 
-3.11037e-06 0.00112787 0.037953 

-0.208113 -0.113173 -0.791085 
-0.0761519 0.15455 -0.619624 
0.00461952 -0.00245393 0.0179785 

-0.161638 -0.00525989 -0.545826 
-0.0381102 0.159176 0.191913 
0.00251678 0.000881158 0.159172 

-0.0202207 0.0191889 -0.107962 
-0.0658317 0.0333556 0.0838043 
0.0092857 -0.00285056 0.0948894 

-0.024248 -0.149662 0.311763 
0.0496742 0.0952221 -0.638257 
-0.0273685 -0.00525426 0.0330088 

-0.00473101 -0.108506 0.178616 
0.201771 0.0206168 0.193983 
-0.00647443 -0.0480286 0.117917 

-0.0875546 -0.116629 -0.71533 
0.306847 0.0951221 -0.904111 
4.16817e-05 -0.000182165 0.204017 

-0.0714951 -0.0922589 -0.314402 
0.294616 0.00879704 -0.0734368 
0.015827 -0.0573679 0.339768 

0.00224408 0.223719 0.500926 
0.291899 -0.143482 -1.15444 
0.0112554 -0.00340559 0.015409 

-0.0883623 -0.0013301 0.20313 
-0.136913 0.070893 0.179686 
-0.000974325 -0.00095644 -0.00921728 

-0.09554 0.0641162 0.388254 
-0.16536 0.150285 0.670924 
-0.000572791 -0.00190457 -0.00724812 

-0.291731 0.240474 -0.670103 
0.0796118 0.416737 0.526998 
0.00121759 0.00162785 -0.0049806 

-0.00870826 -0.0235742 0.0221611 
-0.0124285 0.00491011 0.0399347 
-0.00511287 -0.00107143 0.00882853 

0.0579683 0.0460095 0.0528328 
-0.0642129 -0.0020877 -0.0504319 
0.0160594 -0.0293806 -0.0664149 

-0.075007 -0.0070993 -0.043648 
-0.0498046 0.091987 0.0258265 
-0.00432663 -0.00312444 -0.0290464 

-0.00774731 0.0945863 -0.132825 
-0.290713 -0.0260336 -0.103769 