# vtk DataFile Version 3.0
Output file generated by Yade's KinematicLocalisationAnalyser
ASCII
DATASET UNSTRUCTURED_GRID

POINTS 13483 float
506.159 42.497 -0.463507
601.509 85.0803 -0.544817
113.521 5.8586 -0.486172
637.263 9.36299 0.641685
435.688 14.3887 0.382114
299.142 43.9208 -0.51018
148.391 7.02908 0.481002
481.807 11.6374 -0.164459
434.925 39.3874 0.140615
586.698 18.5455 -0.413689
199.243 8.96612 -0.137535
243.94 6.26405 -0.247704
525.972 55.5321 0.151011
521.883 34.5594 -0.0900642
129.362 19.2897 -0.460663
208.283 38.5917 0.398747
206.289 13.132 -0.288766
274.004 10.621 0.453807
324.531 39.1198 0.418773
449.754 10.8762 0.449161
383.803 58.1366 -0.0989952
490.68 50.6363 0.296919
627.34 66.248 -0.481631
553.472 60.7264 0.450935
410.17 22.0209 0.34078
228.379 46.4707 -0.140738
429.57 50.1642 -0.462951
493.25 23.6394 -0.222441
41.7246 17.7038 0.4836
572.978 44.2699 -0.364178
425.975 4.35009 0.475951
14.0744 25.5177 0.315983
615.748 83.684 0.247797
435.178 4.08759 0.551597
74.8569 47.0319 0.0998454
449.113 45.3885 0.330724
456.78 27.6965 -0.453617
322.108 26.6252 0.187081
459.757 38.8107 -0.388871
332.65 47.8625 -0.414284
229.242 14.8409 -0.290302
393.2 57.2222 0.0416873
550.575 5.38431 0.235674
182.762 6.28169 0.392874
51.1061 7.11344 0.0810439
64.0896 9.1735 0.308936
563.737 8.42209 -0.514376
22.3035 12.0945 -0.304526
485.732 64.6621 0.415284
551.285 36.8204 -0.406669
161.844 34.6999 0.30467
596.603 73.4949 0.143532
31.952 29.7528 -0.112205
456.797 2.61057 0.573947
134.377 7.20912 -0.501517
501.318 43.3947 0.39303
436.942 45.4806 -0.126913
166.507 0.973289 0.283734
31.1874 2.36791 0.328997
326.659 21.9358 0.28259
490.116 82.405 -0.131836
414.157 46.0021 -0.176298
360.527 1.04873 0.183821
572.549 9.40575 -0.58336
25.599 44.7832 -0.236897
244.399 32.7117 0.286562
587.519 11.9263 -0.256859
542.892 80.1521 0.34551
377.629 9.22486 -0.665944
484.36 5.50791 -0.433793
594.244 53.4654 0.445662
124.013 8.08375 0.250618
434.809 44.7026 0.123876
424.061 24.4518 -0.116577
280.334 17.0853 -0.400681
19.4505 14.0663 -0.237882
616.059 75.4436 -0.320571
316.017 43.5871 -0.347501
551.266 35.1391 0.354684
561.902 14.8999 0.242812
626.995 38.8909 -0.221271
413.418 50.3666 -0.203338
88.9762 43.186 0.118751
548.379 53.0895 0.245251
520.3 70.5657 -0.0913447
631.823 71.1845 0.116091
627.666 0.768274 -0.730899
278.499 29.8566 0.470902
526.182 10.0822 -0.278428
23.2702 5.43272 0.627438
127.646 43.0773 0.139891
447.863 23.0042 0.216713
609.837 58.9972 -0.46811
186.322 30.5496 -0.219885
42.8238 36.4919 -0.28896
435.104 2.60472 -0.204886
224.611 8.72129 -0.443441
576.346 78.6722 0.253372
603.674 44.368 0.25752
336.076 34.8466 -0.251526
154.719 28.2323 -0.468857
470.105 71.7735 -0.403249
350.15 23.4759 -0.616383
377.027 34.7725 0.112523
345.93 13.8445 0.566309
467.219 13.9973 0.159037
637.535 21.1176 0.364654
77.4388 42.2629 -0.388096
318.459 5.79789 -0.180858
477.836 14.537 0.402895
338.132 61.7939 0.0378399
22.6157 26.3958 -0.476316
29.051 5.74638 0.288635
477.317 46.7812 0.454177
440.795 41.0756 -0.15201
24.423 38.0595 0.415174
89.133 32.0429 0.218166
308.277 17.4861 0.314144
509.528 23.0986 0.149794
409.511 61.3541 -0.317774
599.266 13.1785 0.589035
594.956 7.47933 0.324883
363.432 45.5109 0.100157
523.984 50.5038 0.0984093
227.384 18.1993 -0.506695
314.47 4.21347 0.452933
98.1353 34.2168 0.310212
111.064 25.8051 -0.273115
467.331 77.509 0.0759074
292.927 19.1694 0.55695
571.404 51.9363 -0.115239
547.466 80.9667 0.106564
427.553 35.0461 -0.428212
626.445 16.9281 0.424309
386.215 31.2749 -0.228013
263.913 26.8215 -0.311537
544.154 64.7996 -0.289868
268.453 30.5081 0.379113
492.071 14.8685 -0.217353
317.882 40.6792 -0.185907
442.206 20.1966 0.644474
346.49 46.5354 -0.0865706
390.902 17.3803 -0.112077
304.115 48.6592 0.463897
182.605 30.8294 -0.122161
606.332 83.3555 0.158675
635.196 26.0365 -0.27642
6.01899 12.8167 -0.448397
389.729 27.0211 -0.394075
36.0321 24.1797 -0.0895851
352.887 43.9398 -0.477836
365.869 30.5665 -0.267153
70.6077 12.2276 -0.518044
49.5165 36.7736 -0.496615
216.689 14.0047 0.463448
490.183 76.4489 0.40265
490.178 25.8373 -0.50015
71.4944 21.2271 0.514163
556.773 62.8912 0.428177
615.744 4.87739 0.700083
536.815 73.4033 0.476128
570.371 1.78477 -0.54592
470.37 41.1005 -0.403194
490.068 49.1642 -0.465125
448.998 29.5178 -0.382147
637.032 6.05009 0.245624
215.029 27.871 -0.146163
124.533 38.7016 -0.0867955
237.122 7.05603 -0.428267
89.929 4.45993 0.29164
60.3939 10.0277 0.237088
266 38.6396 -0.326708
15.0941 26.9256 -0.364559
472.719 28.1879 0.464343
490.066 66.7177 0.19559
419.21 31.1436 -0.368747
628.902 85.4168 -0.349016
371.22 9.05817 -0.131985
392.658 50.2913 -0.413647
464.253 3.41583 -0.316825
20.706 25.0986 -0.375795
493.572 6.43301 0.513485
472.435 8.65331 -0.264159
197.627 11.5892 0.51261
387.473 18.1088 0.20017
298.941 6.34611 0.388568
359.534 25.0838 -0.392602
583.445 66.5728 0.109208
185.165 26.7716 -0.412088
630.328 11.3637 -0.438801
585.762 63.6312 -0.320337
354.791 15.7713 0.190796
586.67 2.3082 0.491746
509.528 40.9543 -0.410393
598.673 26.0226 0.487409
399.985 55.2457 -0.295454
435.533 21.0258 0.358221
403.204 56.3113 0.222036
405.996 12.5817 0.151771
540.559 73.7986 0.276767
539.886 69.6463 0.311885
184.303 40.3776 -0.336364
624.807 38.4087 -0.129698
493.483 47.5899 0.330633
10.7507 18.4982 -0.166781
375.025 28.0911 0.347993
179.972 24.2323 0.405337
90.4275 44.4039 -0.249697
608.223 50.3556 0.514923
534.535 78.464 0.227466
305.037 29.9789 0.362875
460.896 10.5354 0.300318
79.7955 48.1742 0.169316
238.356 27.838 -0.473678
474.492 33.2564 0.413074
433.688 29.7245 0.480597
253.099 0.911449 -0.367322
476.57 64.2376 -0.374668
457.861 74.583 -0.444611
424.772 59.2365 0.374265
440.879 5.52719 -0.566755
575.711 21.994 -0.348905
172.639 12.9282 -0.203143
436.72 58.1443 0.476435
479.569 51.5431 -0.13488
69.302 0.969274 -0.32909
242.244 4.81115 0.179146
633.984 29.4823 0.146837
627.163 40.8218 -0.394491
638.546 33.9749 -0.499845
291.726 8.68623 -0.250202
602.114 31.7553 -0.574657
382.265 63.7596 0.309684
407.721 2.33288 0.604476
525.46 66.0627 -0.407921
23.8998 31.8824 0.317515
318.054 45.1544 -0.600127
243.031 2.92194 0.394422
619.602 81.9955 -0.189912
564.269 62.0484 -0.245218
276.379 11.8814 0.27659
537.496 58.2269 0.0922112
480.984 2.57876 0.308976
469.77 8.08949 0.544133
92.7756 18.8896 -0.506509
291.524 1.07889 -0.239256
327.341 2.37239 -0.415282
13.3892 7.63548 -0.484059
4.03422 36.1038 -0.235159
154.847 19.6282 -0.336785
66.802 43.7475 -0.226819
64.5796 30.9495 -0.321067
388.079 14.6816 -0.452704
348.182 51.8879 0.532052
593.153 74.9418 0.115528
18.9346 4.0851 0.319671
67.0706 7.22501 -0.142174
499.956 70.6914 -0.14809
283.056 0.960651 0.394163
339.617 26.3119 -0.113867
227.023 4.71512 -0.342924
541.379 43.9652 -0.160795
409.276 11.7527 0.425124
606.619 30.4771 -0.416162
516.152 57.6047 -0.307101
553.951 27.3713 -0.0902363
383.703 35.5864 0.532525
100.029 48.4999 -0.302739
472.551 75.0491 -0.0689994
596.007 22.7326 0.183231
228.267 32.0563 -0.227672
30.2493 18.5284 0.189465
321.627 16.0518 0.48173
104.302 42.4156 -0.50708
258.941 45.0446 -0.206367
391.019 2.16019 -0.264723
612.045 69.0922 0.410038
565.291 0.737248 -0.535415
319.12 4.26053 0.480107
290.782 30.0697 -0.161049
406.661 55.4458 0.0450513
77.7519 8.21054 0.510585
188.943 47.5992 -0.393769
603.722 54.7309 -0.374115
433.35 62.7792 0.0668369
192.104 43.975 -0.293077
154.231 45.8693 0.39609
635.906 64.5851 -0.451127
636.995 22.6028 -0.541491
520.298 3.29081 -0.612536
183.698 25.5937 -0.0965098
470.789 46.2153 -0.117516
470.791 39.4037 0.276908
375.601 5.85595 -0.139201
432.185 0.983953 0.397403
591.467 77.885 -0.554958
83.0445 33.5253 0.221106
544.693 32.044 0.482251
263.629 16.5753 -0.308649
8.98979 2.36206 0.334906
122.561 40.0433 -0.183781
64.6433 25.5054 0.476703
559.721 48.0673 -0.289823
619.988 92.4548 0.17422
178.866 29.1995 -0.175251
632.234 30.4605 -0.269884
44.133 38.8846 0.253479
88.3722 30.1933 0.155205
530.799 33.2096 0.380939
381.048 16.9388 -0.565631
455.027 28.1922 0.133799
228.861 30.0198 0.188638
530.739 9.75971 -0.60357
638.401 24.8646 0.569173
27.1133 33.2382 0.276153
260.566 7.47529 0.191515
214.35 15.7984 -0.229996
0.979799 43.0336 -0.146961
217.81 14.8539 -0.38255
204.015 11.0943 0.123464
206.424 28.5955 -0.281839
128.658 30.7916 0.126547
470.345 21.2469 0.372251
159.557 14.7381 -0.333188
613.27 81.3873 -0.224333
168.337 4.00304 -0.503376
45.8908 41.4743 0.350106
568.953 88.2094 -0.426187
273.2 34.1039 0.401066
552.849 37.4325 -0.591467
616.303 66.1559 -0.465255
289.901 9.41569 0.177627
589.273 50.075 0.342684
316.614 2.65407 -0.395762
381.808 26.0861 -0.407443
553.545 20.1825 0.439918
101.765 11.9453 0.506778
432.317 4.18934 -0.490262
608.703 24.9102 0.276495
84.518 7.72285 -0.286563
271.608 15.6699 0.207456
388.977 12.2685 -0.227031
635.337 2.35446 0.626165
365.386 1.92192 -0.58937
169.506 39.562 0.325459
598.205 19.0671 -0.330513
125.887 40.3398 -0.18726
254.798 33.4903 -0.38181
369.418 23.8684 0.260224
492.972 16.5398 -0.397657
357.528 11.9666 -0.593824
415.494 38.2845 -0.488575
602.375 85.8082 0.393296
44.9651 11.8297 0.108375
289.673 43.9114 -0.324497
356.333 35.8184 -0.405603
376.078 21.6162 0.281397
451.494 62.9992 -0.366924
585.342 75.4559 0.183235
545.065 70.7319 0.364074
216.581 36.7277 0.361947
11.975 36.7334 -0.151695
537.901 69.6781 -0.137262
447.923 56.4432 0.523813
221.431 40.9944 0.097387
551.691 46.8736 -0.121388
145.68 9.54165 -0.197342
345.172 32.8965 0.278876
405.215 57.0632 -0.117691
379.85 19.8279 -0.212194
598.395 87.039 -0.291652
391.43 3.8285 0.605412
48.0931 27.0795 0.335908
419.02 53.1441 -0.364865
397.403 49.7007 0.416993
617.388 76.8161 0.217468
586.121 49.7665 -0.230918
464.739 24.4184 0.140646
607.424 76.4951 0.420587
282.738 2.32897 -0.510871
356.558 40.5001 -0.47005
27.5042 40.1468 0.31567
590.288 51.7472 -0.152471
517.272 26.116 0.512771
415.529 0.727558 0.624542
121.303 5.063 -0.402386
397.402 56.9806 -0.111648
11.3792 0.901386 -0.316804
635.173 9.7668 0.1825
[...]
POINT_DATA 13483
TENSORS Strain_matrix float
-0.206836 -0.146839 -0.580312 
0.177851 0.163969 0.470229 
0.00771037 0.037021 0.325452 

-0.0892861 0.487813 -67.817 
0.0156182 -0.0509309 10.8194 
0.000614076 -0.00544013 0.756777 

-0.0117377 -0.00476523 0.00659186 
0.0191676 -0.000692782 0.0142888 
0.000706685 -0.000860938 0.0338382 

-0.434718 -0.357362 -1.86015 
0.341484 0.287849 -0.516978 
-0.0137317 -0.00209142 0.209869 

0.0238193 0.0123293 0.198481 
-0.0378929 0.0767815 0.207484 
0.0067812 0.00168408 0.0498678 

-0.158377 0.0315904 -0.129434 
-0.0782127 0.099953 -1.50749 
0.00121739 0.00741824 0.303546 

-0.0132697 -0.00565608 -0.0449358 
0.00155725 0.00133087 -0.522552 
-0.0025772 0.00131487 0.159411 

-0.0198418 -0.0281137 0.0972539 
-0.0412635 0.0282171 -0.215332 
0.00684984 -0.0130114 -0.0201084 

-0.0209608 -0.0533998 -0.0963735 
0.0828214 0.00842545 0.0437869 
0.0334067 -0.0250019 0.0715315 

-0.0647196 -0.322053 0.536803 
0.0451076 0.146175 -1.82094 
0.00196792 -0.00161608 0.0211426 

-0.0310284 0.0233212 0.025796 
-0.0109017 0.00864946 0.0310985 
-0.0419837 0.0227275 0.226879 

-0.0153003 0.0126988 0.0117916 
-0.0117522 0.0081442 -0.00227636 
0.000464434 0.00182818 -0.00126447 

-0.166526 -0.405561 -1.09659 
-0.282405 0.121491 0.00924899 
0.0197269 0.0454743 0.141951 

-0.079304 -0.347507 -0.0792621 
-0.0449019 0.0546823 0.0752161 
-0.00411274 0.00402886 -0.0494638 

-0.0326903 -0.0202978 -0.0534552 
0.0338575 0.0305805 -0.429851 
0.0179802 -0.01818 -0.227758 

0.0401211 0.0639894 -0.123517 
-0.0755884 -0.0111548 0.113257 
-0.00297065 -0.00875003 -0.0126742 

-0.0169853 -0.0187218 -0.0211426 
0.0194478 -0.020724 0.0556133 
0.00386084 -0.00198182 0.0486603 

-0.0176208 0.0194313 -6.22127e-05 
-0.0144798 0.000255028 -0.0203168 
-0.000865951 0.000229257 0.0213568 

-0.525352 1.02189 -0.954312 
0.0824513 0.450659 0.20902 
0.00947562 -0.0226035 0.05728 

-0.0853354 0.0446115 0.288096 
-0.0210917 0.130865 0.540932 
0.0463924 0.160232 0.382124 

-0.0766365 0.0538357 -0.407016 
0.0294431 0.07291 -0.0920968 
0.00577869 0.0607679 0.235371 

0.0106289 -0.160089 -0.135684 
0.157486 0.0204667 -0.118359 
0.0151286 -0.00565862 -0.0168312 

-0.0037034 -0.00702687 -0.271293 
0.0100697 -0.00580821 -0.0745616 
0.00618391 -0.0027532 -0.0452764 

-0.142097 0.0894616 -1.23074 
0.0929661 0.0738148 -0.62254 
0.0385085 0.0104533 -0.141858 

-0.0194502 -0.00717941 0.331626 
0.0145278 0.0401218 0.0359549 
-0.00434676 0.00202095 -0.0440503 

-0.00128441 0.00221344 0.00139412 
-0.00164406 0.000263795 0.000602068 
-0.00112763 0.000233003 0.00395582 

-0.144562 -0.180795 -0.341829 
-0.0955894 0.110395 0.939551 
0.00169286 0.0163558 0.0888011 

0.017324 -0.0676438 0.047807 
0.0462768 -0.0116748 -0.0593945 
-0.00436639 0.000555235 -0.0271999 

-0.0302703 -0.0430909 1.84132 
0.0524788 0.0775057 -1.33098 
0.00284009 -0.00458726 0.274743 

0.0108794 -0.783834 -0.541157 
0.201598 0.0651525 0.109302 
-0.0160162 0.00794255 0.164972 

-0.0339133 -0.0266522 -0.170827 
0.0133749 -0.0224828 0.161267 
-0.00530187 0.0031788 0.104754 

-0.0738344 -0.0515328 -0.101986 
0.0455852 0.0739615 -0.0231839 
0.0025704 -4.79574e-05 -0.00892533 

0.000690198 -0.000152204 -0.0647655 
0.0199533 0.000386643 0.00184799 
0.000890248 -0.000197358 0.00378451 

-0.123102 -0.0345194 -1.76928 
0.098693 0.134549 0.086004 
0.00656557 -0.00833862 0.0421263 

-0.0127871 0.00485708 -0.0575522 
-0.00524958 0.0717229 0.217515 
0.00146131 -0.00200875 0.0151179 

-0.188657 0.137105 -0.292634 
-0.101385 0.241356 -0.834938 
0.0319568 -0.00835953 -0.115495 

-0.141749 -0.06963 0.513614 
0.0118764 0.0935252 -0.829959 
-0.00343981 -0.00218708 0.160427 

-0.106355 -0.146692 0.212867 
0.128178 0.08387 -0.0730688 
-0.0178359 -0.00747735 0.0632835 

-0.0863125 -0.0259688 0.324583 
-0.162681 0.0208244 0.514432 
-5.92199e-05 0.00137189 0.111179 

-0.188768 -0.155609 -0.991768 
0.0539055 0.199314 0.233866 
-0.0191497 0.0219864 0.225581 

-0.014411 -0.00902094 0.110413 
0.0383059 0.00557291 -0.226604 
-0.000258906 0.00170418 -0.0114935 

-0.0895964 0.391293 1.53119 
-0.642495 0.084904 0.0478613 
0.0299086 0.0105428 0.169834 

0.0101146 0.00165883 0.0149348 
-0.00412156 -0.0209044 0.0033719 
-0.0011759 0.000551569 0.0145472 

-0.0314115 0.0145499 -0.340904 
-0.0132314 -0.0105531 -0.0203488 
-0.00476001 0.00138276 0.0556934 

-0.178403 0.00932267 -0.298665 
0.0419141 0.219349 -0.198176 
-0.0880174 -0.0519205 0.529999 

-0.0228847 -0.00656712 0.0491047 
0.0345471 0.0118092 0.564368 
-0.00403128 -0.00345468 0.0313649 

0.00123706 0.0245446 -0.0147443 
-0.00387786 -0.0200358 0.0248051 
-0.000866147 -0.00308582 0.000127057 

-0.0524161 0.0354686 -0.0018634 
0.0242605 0.0422328 -0.0098364 
-0.00575875 0.00574657 0.0346937 

0.0240212 -0.296101 -0.535589 
0.267713 0.0312856 -0.139778 
0.041584 0.020537 0.168304 

0.0673857 -0.0298596 -0.552446 
0.118144 -0.107253 0.35445 
-0.0297068 -0.00338444 0.146512 

-0.00945117 -0.040794 0.268105 
-0.128973 0.0424075 0.0610814 
-0.000433858 -0.00105576 -0.0134229 

-0.0193006 -0.0500225 -0.170389 
0.0737482 0.0340669 -0.222451 
0.00699843 0.0145019 0.185266 

0.0110831 -0.00812521 -0.0657084 
-0.0103664 -0.0295139 -0.00245473 
-0.0014409 0.00117407 -0.00194871 

0.0199175 -0.00651868 -0.00811735 
-0.00280537 0.00452446 0.0161227 
-0.00209624 -0.0010327 -0.0133389 

-0.0212619 -0.0397986 0.0103603 
0.0481767 0.0113268 0.083193 
0.00281452 -0.000271477 0.0469367 

0.00397063 -0.126952 -0.420566 
0.0383416 0.0464787 -0.240065 
0.00223368 -0.00456971 -0.066539 

-0.0553493 -0.384986 0.218374 
0.124485 0.0579444 -0.315721 
-0.0385928 0.017523 0.0553145 

-0.0194807 -0.00857886 -0.0144991 
0.00180568 0.00173094 -0.0180525 
-5.8724e-05 -0.000163534 0.0411921 

-0.0165477 -0.0456526 0.187354 
-0.025498 -0.00400598 0.059229 
-0.0017916 -0.00237948 0.0694507 

0.00873596 -0.205653 -0.028563 
0.217382 0.056325 -0.163181 
0.0486085 0.0120022 0.0992249 

-0.0403076 0.221141 -0.839106 
-0.00515039 0.0442864 -0.558966 
0.000884525 0.00303603 0.532393 

-0.051087 -0.0722399 0.464616 
0.231286 0.100056 1.91861 
0.000178612 -0.0468357 0.562874 

-0.290777 -2.76112 -0.47024 
-0.0559657 0.0206854 0.0413154 
-0.0189618 0.198478 0.357277 

-0.0565076 -0.023089 1.3162 
0.024764 0.0330976 0.171331 
-0.0023006 0.00247117 -0.0536885 

-0.0651672 -0.0347466 -0.0510535 
0.0750069 -0.013141 -0.030183 
0.0289594 0.0232303 0.247283 

0.00413038 0.00415084 0.00182189 
-0.0189157 -0.00860211 -0.0250258 
-0.000168789 0.000298343 -0.000773621 

-0.176553 -0.28188 0.272445 
-0.0377167 0.113835 -0.122362 
-0.0199609 0.00256824 0.0691395 

0.0307889 0.0610152 0.0129178 
0.0142099 -0.00436274 0.114303 
0.000282753 -0.00405364 -0.0115883 

-0.0609504 0.044568 -15.6342 
-0.0368677 -0.0324697 1.83429 
0.000190422 -0.00214526 0.526824 

0.0655208 -0.0476276 -0.00992755 
0.00348317 -0.0224466 -0.0691545 
0.00691528 -0.0117839 -0.0522795 

-0.00917728 -0.0149081 -0.135352 
-0.0059196 -0.0181078 -0.0761579 
-0.00321604 -0.00263622 0.0708543 

0.0118177 0.0303336 0.103829 
0.0111385 -0.000539281 0.0894852 
0.0225836 0.00569565 0.123291 

0.0322101 -0.549291 0.223603 
0.290547 0.137559 0.13714 
0.00072298 0.00259341 0.0392137 

0.239883 0.00690102 0.20629 
-0.0157845 -0.24756 0.528529 
0.00818087 0.00485826 -0.015532 

-0.0380005 -0.0142153 0.251776 
0.0173165 0.0722027 -0.393784 
-0.000519338 0.000448131 0.0142998 

0.0240086 -0.0132205 0.023434 
0.056164 -0.0036385 0.115336 
0.00131361 -0.00359439 -0.012579 

0.00162488 -0.0073312 0.0429671 
0.0241678 0.00178883 -0.109477 
0.00136944 0.000131767 0.00697233 

0.00525326 -0.128562 -0.00059138 
0.145455 -0.0130107 -0.0217753 
-0.00143828 -0.00339641 0.0381161 

-0.0722607 0.0477536 0.491911 
0.264113 0.033603 0.0152899 
-0.0127777 0.00102755 0.0871112 

-0.0505175 -0.0204701 0.191489 
-0.121105 0.0339715 -0.344951 
0.00747225 -0.0222486 0.122053 

-0.00895291 -0.0534177 -0.0722867 
0.0809011 0.0013766 0.000499323 
0.00139641 0.00117864 0.0246574 

0.0584753 -0.352101 0.194238 
0.263303 0.0262886 0.915547 
-0.0137957 0.0300794 0.436628 

-0.0209609 -0.00945786 0.141143 
-0.03268 0.0438813 -0.230124 
-0.00408415 -0.000219597 0.022895 

-0.131346 0.0127582 -0.337648 
0.111002 -0.113327 1.01792 
-0.00165141 -0.00330453 0.0276258 

0.010826 0.0472116 -0.0588717 
-0.130061 -0.0158224 0.00541317 
-0.00979515 0.0330864 0.140836 

0.00859478 0.0105488 -0.0288685 
0.0112466 -0.010769 -0.00702612 
-1.31507e-05 0.00078344 0.0178605 

-0.155365 1.28943 59.6374 
-0.0162606 0.232891 23.1615 
0.00545888 -0.101542 -3.00542 

0.0266951 0.0799445 -0.49415 
0.00925824 -0.0561769 -0.238556 
-0.00160777 -0.00159568 0.0385847 

-0.0679918 0.100023 -0.213728 
0.0619782 -0.0459437 0.334818 
-0.00186189 0.0202376 0.117217 

-0.0520232 -0.0893883 5.70886 
0.00165655 0.0460197 1.30929 
0.000310059 0.00631395 0.00643873 

0.00199059 -0.201031 -0.036927 
0.227709 -0.00471794 0.0646814 
0.00980495 -0.0108003 0.0517274 

0.000417616 0.0652324 -0.079992 
-0.0257991 0.038339 -0.072078 
-0.00978177 0.000626975 -0.0155804 

0.0388799 -0.0627014 -0.793817 
0.113066 0.00324333 0.540907 
0.00964442 0.00226894 0.162388 

-0.0254358 -0.0120995 -0.0286648 
0.111106 0.0481823 0.0863686 
-0.00154891 -0.00223945 0.0459476 

-0.0194283 0.0865698 -0.270023 
-0.0206579 0.0204228 0.0904457 
0.00138979 -0.00207125 0.0120617 

-0.0615252 -0.116204 0.001819 
0.0244662 0.0361255 -0.120638 
-0.0655355 -0.00130091 0.31773 

-0.016282 -0.0160077 0.128892 
0.0206006 -0.00442535 -0.495934 
3.58437e-05 -0.00142198 0.0673949 

-0.0863085 -0.0366449 -0.15674 
0.0627236 0.0272906 0.0678623 
0.0141637 0.0304916 0.0473948 

0.0380094 -0.28657 1.05482 
0.250207 -0.022432 0.78208 
-0.00357829 -0.00100901 0.0254932 

-0.211783 0.0413271 -1.22086 
0.730892 -0.00274425 -0.83165 
0.0135887 -0.0378839 -0.094592 

-0.00358303 -0.0326756 0.528232 
0.0366517 0.0360615 -0.700191 
0.00145844 -0.00031953 0.0479216 

-0.00815003 0.272048 -1.42195 
-0.587893 0.0917726 -0.588594 
0.00262461 0.0116291 -0.245192 

-0.125705 0.215031 -30.6825 
0.023272 0.0690206 24.5196 
-0.000493864 -0.0004809 0.507572 

-0.136957 -0.0862756 0.208068 
0.0125571 -0.000761217 -0.12898 
-0.00266858 -0.00117759 0.0310281 

-0.291986 -0.0549356 4.42855 
-0.213755 0.319472 -4.74025 
-0.00508231 0.000520788 -0.51603 

0.00715768 -0.0369255 -0.015262 
0.0335111 -0.0188904 0.0115478 
-0.000618508 0.00322659 0.0272448 

-0.234316 0.32276 -0.514442 
-0.445598 0.153116 0.760301 
-0.00601835 0.0134111 0.111661 

-0.0302361 -0.0128074 1.02432 
0.0288753 0.0237662 -0.211206 
-0.0138183 0.0110662 -0.386969 

0.015567 -0.0580886 -0.0150275 
0.0844425 0.00615334 0.066401 
0.000459255 0.000223598 -0.00488932 

0.0317345 -0.043019 0.0129982 
-0.0708899 0.0691231 -0.238221 
0.0300457 0.0454252 -0.126408 

0.0438633 -0.00681843 0.0187668 
0.0301304 -0.0427902 -0.0953209 
0.0151542 0.065896 0.0977747 

-0.053802 -0.0822601 0.215261 
0.0646787 0.0794557 0.83127 
0.00107461 0.000146226 0.217215 

-0.0123852 0.0490576 0.0544854 
-0.0447029 0.00300968 0.0446248 
-0.0101025 -0.00380003 0.0506488 

0.0455297 -0.0861189 1.97471 
-0.186429 -0.036428 -1.08096 
0.00264536 -0.00411095 0.0967895 

-0.278875 -0.168176 0.219356 
-0.351742 0.106892 -0.0305333 
0.013543 0.0123359 -0.0208163 

0.0119913 0.0473354 -1.5697 
0.0191033 -0.0324226 0.773795 
-0.00156556 0.0018273 0.127343 

-0.169035 0.031936 0.483197 
-0.0751062 0.108328 -0.0488917 
-0.00111404 -0.00150944 0.000716415 

0.0197784 -0.129154 -0.172532 
0.0666013 -0.0364945 -0.0586195 
0.00138436 0.0029518 -0.00627249 

-0.0285975 0.0530522 0.0952064 
-0.20531 0.0514089 0.0152499 
0.00677727 0.00191872 -0.0053663 

0.0101117 -0.266116 -0.0776482 
0.349935 0.0792004 -0.0232359 
-0.0118601 -0.00124994 0.0983309 

-0.148948 -0.272767 0.0522772 
0.143836 0.246872 -0.180457 
0.0057797 -0.0007991 0.0807942 

-0.0823819 -0.057697 -0.241054 
-0.139897 -0.0411161 -0.248726 
0.0151759 0.0230739 -0.0278893 

0.0678198 0.0258027 0.344341 
-0.142165 0.00288301 -0.127944 
-0.0315787 0.0171363 0.00960643 

-0.160176 -0.413663 -0.945 
0.0720905 0.0683853 0.681251 
-0.0170979 -0.00405611 -0.00130245 

-0.0344365 0.00296747 -0.303252 
-0.0105204 0.0229481 -0.0241962 
0.000179047 -0.000395071 0.0930477 

0.00629372 -0.00439969 0.199143 
-0.00457927 -0.00476918 0.0785234 
-0.000353515 0.00100745 -0.0340012 

0.028701 0.0669506 -0.0505687 
-0.0438744 -0.0491476 0.02661 
0.000999087 0.00119329 -0.0136932 

-0.0111663 0.0667383 -0.0373824 
0.0167799 -0.00197468 0.0166836 
-0.000727257 -0.00272092 0.0337478 

0.315442 0.54261 -1.23355 
-0.718302 0.288125 1.10878 
0.0480732 0.041941 1.37932 

-0.0335612 -0.0188279 0.100656 
-0.0303561 0.023677 0.435551 
0.000406556 0.00593486 0.0437649 

-0.00246608 0.0439037 0.19487 
-0.0765084 -0.0132357 -0.212203 
0.00232718 -0.000517628 -0.0213434 

-0.0317185 0.0402164 0.0777799 
-0.173477 0.0667706 -0.00872564 
-0.047394 0.0230039 -0.0100969 

-0.035928 -0.0171439 0.744618 
0.0559592 0.0202373 1.13384 
0.0141856 -0.0048716 0.0751602 

0.0853559 -0.361455 -0.101484 
0.317193 -0.0595036 0.0360779 
0.100795 -0.0393219 0.0228657 

-0.050387 0.407265 -0.388154 
-0.272346 0.0179194 0.289089 
-0.0225677 0.0364973 0.210466 

0.0026623 0.0294594 -0.0691662 
-0.0261759 0.00817338 0.0996086 
0.000257192 0.0001301 0.0165623 

-0.0713574 -0.0470456 -0.0139242 
-0.132601 0.0406773 -0.0456097 
0.0214367 -0.00488811 0.0598686 

-0.0267044 0.0015956 0.464234 
0.0223345 0.00687849 0.347652 
0.00106263 1.20954e-05 -0.00372824 

0.0153285 -0.0811203 0.00896069 
0.0493827 -0.00727877 -0.0107994 
-0.00460242 0.00268391 -0.00611763 

0.0220553 -0.0938532 0.216398 
0.169981 -0.0189916 0.0558949 
-0.00509813 -0.00169353 0.0206167 

-0.0160192 0.0365024 -0.50957 
-0.0822413 -0.0401913 -9.76731 
0.00474881 0.00858961 0.41737 

-0.144356 0.147963 -0.431232 
-0.00728941 0.122949 0.726666 
-0.000472217 -0.0302079 0.0511086 

-0.0021726 0.0458037 0.0119617 
-0.0434275 -0.0522196 0.211936 
-0.0199834 -0.0239215 0.126632 

-0.105952 -0.0417125 -1.8442 
-0.0946527 0.238203 2.21917 
0.0143124 -0.01204 -0.294846 

-0.0203642 0.00913929 -0.0798071 
0.00300521 -0.00863772 -0.193838 
-0.0013279 0.000988757 0.00971359 

-0.00595363 0.000810448 0.023323 
0.016078 -0.000369176 0.00105844 
0.00319395 -0.000329549 0.0284821 

-0.0641782 -0.139913 -0.0261794 
-0.285177 0.0773633 0.914264 
-0.0140714 -0.00751762 -0.0376127 

-0.0310039 -0.00148874 0.0456484 
0.007541 0.0315836 -0.149677 
0.000216866 0.00219645 -0.0177732 

0.0688584 0.20045 0.304149 
-0.321677 -0.0159039 -1.10262 
0.00542037 -0.00125931 0.0167979 

-0.0956792 0.0703233 0.107632 
-0.0610859 0.0303564 -0.249287 
0.000729832 -0.00196563 0.0510094 

-0.000238244 0.164421 -2.49225 
-0.0330587 0.0135531 -0.263682 
-0.00410684 0.00329381 0.400539 

-0.150229 0.0353888 0.837437 
-0.292739 0.149418 -0.412971 
-0.00879401 0.000550131 0.0309522 

-0.0365677 0.0220537 -0.345177 
0.00443786 0.0321945 -0.925961 
0.00101196 0.0023074 0.063229 

-0.0194792 0.0609222 -2.90779 
-0.023738 0.0115094 3.74024 
-0.000478231 -0.00112265 0.309818 

-0.0104757 0.031028 -0.11125 
-0.0145088 0.017785 -0.0605754 
0.00182079 0.000119707 0.0413172 

-0.0603486 -0.120228 0.211265 
0.148113 0.0606568 0.179847 
-0.0148142 0.0220648 0.53504 

0.00192472 0.0140177 0.635989 
-0.0228988 -0.0111454 -0.34441 
0.00942825 -0.00316684 -0.0369302 

-0.0525517 0.0698972 1.12937 
-0.0198498 0.0446314 -0.350686 
-0.000642496 -7.72245e-05 0.131585 

-0.0188523 0.0293615 0.119038 
-0.0197608 0.00350677 -0.884755 
-0.0135373 -0.0156577 -0.0167378 

-0.290638 0.187535 2.49798 
-0.0581044 0.126899 -5.58211 
0.0104133 -0.0222374 0.776657 

0.00738092 -0.0285164 -0.806818 
0.0192397 -0.00312373 -0.572179 
-0.011009 0.00704927 -0.152909 

-0.00193005 0.0372221 0.350132 
-0.0121887 -0.0203211 0.196721 
-0.00300142 -0.0034087 0.0414312 

-0.133172 -0.30831 -0.699462 
-0.373571 0.0496719 -1.22795 
-0.0324728 -0.00114471 -0.391319 

-0.0015639 -0.161083 0.700149 
0.1239 0.0134526 2.08392 
-0.00109991 0.00132977 0.250606 

0.0169907 -0.00549643 0.0567393 
0.00939188 -0.0198462 -0.52545 
0.000647745 -0.00264732 0.00281237 

-0.212188 0.742301 -0.35948 
-0.018968 0.237262 -0.221174 
-0.0694228 0.0232704 0.00723917 

-0.052934 0.00543345 -0.0509387 
-0.0949659 0.0474903 0.0178581 
0.000725191 0.00675265 0.0105021 

0.0489202 -0.191491 0.0774563 
0.170916 0.0194558 -0.0279476 
0.00167121 0.00201569 -0.000639656 

-0.0265277 -0.00135182 -0.0577681 
-0.00213461 0.0139315 0.253485 
-0.000662427 0.00633531 -0.0449252 

-0.00892941 -0.00846933 0.043946 
0.0116786 0.0164024 -0.0444996 
-0.000559186 -2.44357e-05 -0.0142075 

-0.00727907 0.0361002 0.0199082 
-0.0369647 -0.00780148 0.448302 
-0.000762514 0.00134868 0.053806 

-0.00138127 0.0368141 0.277575 
0.00379531 -0.00717774 -0.142937 
-0.000588232 0.0070442 -0.0124317 

-0.15001 -0.284658 0.61789 
0.0428995 0.155731 -0.626309 
-0.00182318 -0.00144282 -0.0199706 

0.00341832 -0.0362618 1.51068 
0.026596 -0.0316245 3.84329 
0.0015829 -0.000845657 -0.0118911 

0.189247 -0.50155 0.0464729 
0.339679 0.128371 -0.51256 
-0.0778747 -0.0813942 0.0849137 

-0.0623676 0.105764 0.795603 
0.113262 0.137115 0.11264 
0.00338254 -0.0067354 0.0163458 

-0.0040703 0.000972185 -0.0603743 
0.0066019 -0.00334677 -0.017768 
-0.000149274 -7.46794e-05 0.00489102 

-0.0175018 0.0599459 0.0522106 
-0.0400532 0.0096419 -0.011942 
-0.0338343 0.042358 0.253485 

0.086008 0.592266 -0.916073 
-0.520626 0.283555 1.43728 
0.0154686 0.0104216 -0.0698618 

0.0222823 0.010797 0.0176419 
-0.0139988 -0.0137523 0.00481929 
0.00314401 -0.00165695 -0.00887058 

-0.193417 -0.192501 0.639611 
0.102496 0.282173 0.139046 
-0.000124455 0.000768968 -0.00925681 

0.0400591 -0.0384476 -0.0249113 
0.0136294 -0.00880241 -0.0568104 
-0.00301241 0.000812293 -0.0281469 

0.00582141 0.0245716 0.0448707 
-0.00385922 0.0120026 0.036847 
0.00267858 -0.00616985 -0.0623484 

-0.0393168 0.0849267 -0.0826003 
-0.0164126 0.0120764 -0.283642 
-0.00313705 -0.0241688 -0.00826803 

0.126604 0.00851816 0.102791 
-0.316696 -0.208646 0.00240201 
0.0138962 -0.0296643 0.112954 

-0.00475377 -0.019274 -0.0227409 
0.00473299 0.00131859 0.00177297 
0.033718 -0.00829659 -0.0483919 

-0.24585 0.275718 2.02726 
-0.331633 0.193164 0.139357 
0.00276017 0.00103751 0.17497 

-0.0301048 0.0833744 -0.148415 
-0.0573748 0.0132571 0.142111 
-0.0721182 -0.0518913 0.363131 

-0.0134749 -0.0422642 0.0230975 
0.0233227 -0.00740432 -0.129363 
-0.000374309 0.000484172 0.043737 

-0.205376 0.19679 -0.360538 
-0.0700117 0.0860257 -0.259929 
0.0397213 -0.0244425 0.177748 

-0.0273987 0.0248649 -0.0347654 
-0.0116345 0.0137512 -0.079285 
-0.00737016 -0.0407672 0.57567 

-0.0477458 0.35872 0.38113 
-0.444314 0.29354 0.510198 
-0.0361891 0.0331104 0.0987641 

0.01125 0.0337823 0.239475 
-0.0462854 -0.032108 0.430635 
-0.04907 -0.0272895 0.437087 

-0.115597 -0.0356379 -0.484968 
0.112828 0.169463 0.0271709 
0.0445424 0.0355032 -0.191187 

-0.0501134 -0.149445 0.845398 
-0.155778 -0.190673 0.19897 
-0.00884008 -0.017254 0.16316 

-1.04241 0.707556 10.362 
-0.50831 0.194228 -1.1374 
0.0433935 -0.0185409 0.708873 

-0.0657752 0.243416 0.0357024 
0.260101 -0.0186746 0.656177 
0.147411 0.0240013 0.479041 

-2.6401 -1.11399 -5.49477 
-0.110458 -0.0617797 -0.492583 
-0.0057354 -0.0541882 0.310562 

0.00722018 0.0792234 0.0655826 
-0.0254623 0.00152194 0.103736 
-0.0215344 0.0329355 0.108256 

0.0155447 -0.0244393 0.0660112 
0.0140687 -0.00941048 -0.090037 
-0.00316923 0.0123765 -0.0752558 

0.0157647 -0.113989 0.245855 
0.0280823 -0.0331892 0.146956 
0.00192746 -0.00267218 0.00308672 

-0.00310968 -0.0393403 0.0248207 
0.041873 0.000511366 0.0280297 
0.0012904 -0.000922707 0.013264 

-0.00358205 -0.0894388 -0.152146 
0.109348 0.0202278 -0.0642712 
0.00377646 0.00207722 0.0195966 

0.012914 -0.157837 -0.184659 
0.141072 0.0158456 -0.15757 
-0.00321984 0.00582142 0.0848316 

0.0107465 -0.094007 -0.0356185 
0.00810053 -0.0232368 0.0195626 
0.00167281 -0.0105416 0.011126 

-0.0365152 0.23241 -0.135167 