# vtk DataFile Version 3.0
Output file generated by Yade's KinematicLocalisationAnalyser
ASCII
DATASET UNSTRUCTURED_GRID

POINTS 13483 float
433.788 43.5411 -0.58788
519.142 90.6987 -0.541835
104.001 5.83238 -0.497301
556.41 9.79579 0.302664
367.426 14.2018 0.353323
248.793 60.2351 -0.521128
135.902 7.73324 0.48873
412.353 11.6481 -0.179681
370.02 42.6803 0.183657
508.924 18.7731 -0.429193
174.792 9.23113 -0.163193
213.665 6.20942 0.407661
451.931 56.3 -0.144325
448.806 35.2219 -0.099668
120.024 21.7235 -0.567188
183.258 42.0323 -0.404152
180.679 13.5703 -0.288808
238.187 12.2149 0.483183
271.818 52.5914 0.443373
381.056 10.7056 0.49513
325.971 69.8996 -0.102089
418.942 52.1254 0.302671
545.314 71.2731 -0.48316
472.21 64.8547 0.43952
346.798 25.9384 0.346691
198.465 52.4655 0.141052
364.1 54.594 -0.476978
421.723 24.7467 -0.264933
37.8913 17.4639 0.60459
492.928 49.1845 -0.385578
357.412 4.28151 0.495945
12.8096 28.1049 0.335719
533.591 89.2393 0.24244
366.493 3.96711 0.582052
67.0556 50.4221 -0.113394
381.205 48.2093 0.355693
387.454 27.1757 -0.475386
269.445 37.2762 0.168638
390.228 39.5771 -0.327239
281.513 60.2577 -0.393274
201.633 16.9552 -0.337375
331.522 64.5719 0.0747123
476.886 5.18364 0.257386
161.512 8.19907 0.453868
47.0433 7.12292 -0.109998
57.9718 9.56222 -0.253952
489.705 8.38141 -0.52756
20.8967 13.3035 -0.289051
413.431 65.8618 0.397304
476.59 36.8234 0.465522
143.962 41.297 0.297403
514.597 79.2354 0.13742
29.7042 31.4708 -0.119179
387.911 2.60672 0.582256
123.177 7.4085 -0.551647
429.381 45.4279 0.46742
371.772 49.255 0.133735
152.331 0.979087 -0.257574
28.2264 2.29478 0.401911
274.122 33.2274 0.324015
408.428 86.7674 0.132096
352.066 52.0843 0.19534
301.825 6.47361 -0.266027
498.333 9.21781 -0.590771
20.7257 45.8945 -0.275633
215.636 39.7275 0.293931
513.027 11.8588 -0.266775
460.421 85.8645 0.345923
317.789 9.31989 -0.689079
414.857 5.47762 -0.443575
512.696 58.5811 0.452428
114.062 8.62238 -0.321549
369.696 48.4624 -0.156545
360.289 26.6396 -0.132126
242.906 19.0711 -0.392459
17.6351 14.844 -0.308042
533.985 81.1318 -0.321154
264.01 57.9242 -0.317863
477.595 35.2181 0.337511
488.167 14.8911 0.271478
544.965 43.0425 -0.258473
351.749 57.5305 -0.169523
81.168 45.8389 0.135627
467.496 55.7769 0.276779
438.445 75.4299 0.112217
549.676 76.2769 0.116814
548.015 0.705803 -0.593446
240.979 32.3073 0.433795
454.75 10.8985 -0.287025
21.7349 5.88425 0.611472
114.712 49.0313 0.159112
379.171 22.4707 0.244232
527.739 64.8118 -0.477723
167.359 37.9418 -0.250161
37.2946 41.3066 -0.284511
366.396 2.5482 -0.212111
198.154 9.69029 -0.363699
493.927 84.0134 0.253259
521.927 49.5174 0.249842
282.879 46.9889 -0.265104
139.445 32.7019 -0.440751
397.517 74.9028 -0.425919
295.755 33.0752 -0.47812
319.778 39.5209 0.115173
291.307 23.0911 0.380068
398.077 14.0537 0.164314
556.427 25.0863 -0.282087
69.5109 45.7991 -0.442338
277.171 5.962 -0.182368
408.65 14.8134 0.359984
287.038 74.3417 0.0939992
20.5518 27.6883 -0.493652
26.6077 6.07456 -0.344772
406.666 48.132 0.470884
374.865 43.7269 -0.162944
19.6805 39.0731 -0.40592
80.5166 34.8676 0.224074
267.37 17.9499 0.408916
437.663 23.7106 0.126061
347.909 68.8183 -0.304721
522.75 13.7916 0.508112
520.28 7.39727 0.264728
308 54.2282 -0.1177
449.937 52.1581 0.0919755
199.833 20.1117 -0.491178
273.562 5.04864 0.48731
89.4325 36.0197 0.315218
101.628 26.3197 -0.273518
394.687 80.9118 0.0944755
254.364 19.7118 0.564595
491.129 57.0761 -0.101266
465.589 86.4873 -0.105001
361.996 40.1134 -0.489698
546.204 20.5006 0.345287
328.376 34.8754 0.221531
228.451 32.7697 0.307652
462.945 70.623 0.289997
232.341 35.2439 0.391141
422.163 14.9505 -0.251048
265.738 54.8554 0.188222
373.985 19.9957 0.628571
294.989 58.2489 0.0845573
327.753 18.2143 0.104155
252.759 65.19 0.443806
165.182 37.9959 -0.11475
524.159 89.011 0.160598
553.257 30.5975 -0.295164
5.94416 12.9564 -0.434089
330.281 29.7245 -0.475138
33.6523 26.0114 0.0811678
299.025 55.3017 -0.455728
308.12 37.1643 -0.286995
63.5538 13.6006 -0.514858
41.0533 41.9568 -0.463145
190.803 14.3237 0.513895
409.495 80.1889 0.415323
419.363 26.9664 -0.437092
64.0941 23.0428 0.498758
475.561 67.109 0.429067
538.016 8.6375 0.696497
454.734 78.6772 0.46711
496.076 1.6528 -0.53906
400.125 41.6805 -0.421643
418.358 50.6859 -0.481092
379.999 28.9319 -0.401846
555.258 5.4187 -0.443259
190.381 30.6897 -0.108366
115.879 42.824 -0.207839
208.013 7.59425 -0.423239
81.5439 4.68011 0.30162
54.6826 11.9438 0.255348
231.314 44.0195 -0.250388
13.7556 29.4832 -0.389937
402.854 28.5994 0.501145
417.561 68.1522 -0.200698
355.163 36.479 -0.42307
546.835 90.5051 -0.35208
311.759 10.5409 -0.198663
331.428 56.9573 -0.412075
395.292 3.40427 -0.325677
18.511 26.2526 -0.388399
423.904 6.42292 0.595402
403.261 8.79638 -0.265295
173.932 14.0656 0.549951
324.268 18.0467 -0.304604
259.383 6.75453 0.510779
303.186 34.2317 -0.373241
501.893 72.0644 0.107543
166.729 33.1827 -0.393178
550.161 12.9117 -0.463422
504.246 69.1558 -0.34053
299.714 23.6753 0.198598
512.187 2.2898 0.495611
437.105 42.0052 -0.439145
518.577 28.9958 0.50379
338.362 62.4592 -0.291209
367.692 20.9711 0.378414
341.439 63.6014 0.22732
341.778 17.4558 0.152778
458.476 79.3344 0.273164
458.149 75.1572 0.306441
165.517 48.0855 0.361475
542.639 42.6709 -0.108006
421.815 49.1467 0.353761
9.31485 19.7959 0.19735
316.373 34.0372 0.418506
161.523 31.155 0.408206
82.6877 46.9664 -0.248678
526.786 55.4745 0.435469
452.06 83.5777 0.223303
262.954 33.4148 0.339615
391.973 10.4271 0.312739
72.1787 51.2497 0.169734
208.332 31.4698 -0.498628
404.363 33.8234 0.444281
366.897 31.9865 0.429578
221.043 0.870391 -0.551648
403.405 66.5667 0.34614
385.517 77.5351 -0.449494
360.975 68.5644 0.372318
372.304 5.4092 -0.592006
500.713 21.6442 -0.420578
153.892 17.5775 0.180118
369.958 66.5906 0.456843
408.843 53.1091 -0.150453
63.1472 0.919465 -0.351668
212.369 4.73834 -0.218773
551.851 33.9392 0.16405
545.262 44.9572 -0.412515
556.49 38.6526 -0.528827
252.825 9.08544 -0.237139
522.181 35.0748 -0.420267
324.898 75.5178 0.309418
342.609 2.16749 0.622953
445.037 69.753 -0.422205
21.7501 33.5737 0.310576
266.134 59.3858 -0.571683
212.993 2.93607 0.554728
537.464 87.386 -0.17603
483.012 66.7366 -0.243512
240.378 13.588 0.294279
457.439 63.7893 0.0888332
411.538 2.59783 0.34221
400.658 8.19622 0.546795
84.5274 20.9386 -0.471651
253.711 1.02307 -0.381148
284.62 3.48349 -0.601024
12.7568 8.42434 -0.674311
2.73821 42.9104 -0.259346
139.983 23.9103 -0.340327
59.144 47.1192 -0.232833
59.3368 34.3858 -0.315369
325.463 15.1464 -0.455025
296.033 65.3573 0.506599
511.033 80.5439 0.115269
18.1479 4.64626 0.351186
61.3167 8.15145 -0.192022
418.67 75.941 -0.151573
245.593 0.903829 0.455912
285.505 37.3986 0.0848285
199.681 4.90593 0.619095
467.682 45.108 0.186589
345.282 16.505 0.463091
525.8 35.6846 -0.393411
442.163 60.2427 -0.343472
481.329 28.0196 0.0796377
326.221 39.3917 0.569076
92.8522 49.8329 0.0767658
399.996 78.1429 -0.0115367
516.137 25.4428 0.178523
203.434 35.6641 -0.253107
27.8914 20.363 0.181974
278.118 16.3258 0.532065
96.1934 43.1798 -0.521778
228.514 54.8133 0.180112
330.212 2.17498 -0.265067
530.105 74.7094 0.393397
490.889 0.718513 -0.520486
277.812 4.35459 0.450512
251.122 33.4228 -0.0404254
344.906 62.6548 0.122608
70.4108 8.90377 0.601708
168.614 57.2062 -0.37791
522.189 59.9236 -0.391156
369.69 71.9924 0.0646965
171.701 53.9908 -0.276012
136.909 53.2307 -0.467777
553.612 69.4306 -0.435288
555.106 27.5708 -0.618784
450 3.87443 -0.672919
165.451 31.7892 -0.0958459
400.591 46.6982 0.110541
400.548 40.0016 0.316027
315.301 6.5757 -0.124105
363.454 0.96664 0.401897
509.148 83.49 -0.529002
74.6518 36.5493 0.214845
471.883 32.8206 0.488249
228.26 21.1983 -0.333481
8.74444 2.34387 0.33854
113.778 43.0931 -0.199686
57.5368 28.1237 0.441331
479.564 52.8211 -0.376955
538.04 97.8378 0.173895
161.516 36.1654 -0.169305
550.099 34.9373 -0.295263
37.2665 45.1355 -0.278487
79.997 32.9388 0.164694
457.818 34.3392 0.405379
320.97 18.6705 -0.607376
385.719 27.7583 0.125016
202.454 33.1759 0.22931
459.782 11.3942 -0.54692
556.561 29.7587 0.653662
24.8736 35.0628 0.292668
227.571 8.80498 0.282654
188.315 16.1515 0.269824
1.06884 54.0854 0.16697
191.486 15.2938 -0.456915
178.429 11.41 -0.128452
182.54 30.8757 -0.287774
117.535 32.8077 0.135268
401.153 21.3761 0.355417
144.788 16.9124 -0.362042
531.123 87.035 -0.221344
152.406 5.20964 -0.610347
38.893 48.1234 0.443514
485.876 92.978 -0.426127
238.028 36.7056 0.411656
477.527 37.8015 -0.543458
534.244 70.4044 -0.459931
251.142 9.97016 0.245688
507.652 55.3288 0.35901
275.555 2.61717 -0.329249
323.069 30.2611 -0.391829
480.225 20.6712 0.459208
93.1521 12.8303 0.454639
363.627 4.13947 -0.499269
527.298 28.452 0.302091
76.2043 7.79354 -0.405049
234.877 17.2261 0.217651
326.821 12.7283 0.218716
553.159 2.27461 0.644425
305.863 4.75009 0.465843
150.866 45.3896 0.276132
518.62 22.1524 -0.33227
116.204 45.9495 -0.175647
221.552 43.9338 0.38716
311.673 29.2034 0.255943
422.816 16.7572 -0.425624
302.358 19.3318 -0.49872
351.631 42.3932 -0.466486
520.048 91.3987 0.389775
41.4369 12.025 0.134012
243.87 55.8312 -0.318404
302.753 45.3044 -0.440674
318.326 26.4528 0.29949
382.223 65.6168 -0.411323
502.972 81.0584 0.184059
463.202 76.572 0.342199
191.554 38.7799 0.420355
6.63288 41.3114 0.147957
456.162 75.0247 -0.137664
380.034 59.3831 0.525698
195.519 43.2094 0.10795
472.459 51.6939 -0.140193
133.427 10.2829 -0.30623
291.272 42.1267 0.248933
343.461 64.257 -0.123141
320.942 23.3285 0.247495
515.931 92.7454 -0.290811
330.53 3.79111 0.70424
43.3724 28.3112 0.318805
357.012 60.7795 -0.360318
335.566 56.9925 0.37804
535.342 82.4566 0.214057
504.469 55.0542 -0.245357
395.471 24.552 0.129989
525.256 82.1759 0.414051
245.481 2.11768 -0.531201
301.682 51.6749 -0.47386
22.8105 41.1224 -0.317209
508.679 57.0044 -0.153341
444.989 27.4217 0.562785
346.597 0.653474 0.518477
111.238 5.56965 -0.419748
335.595 64.2563 0.108378
11.0998 0.870459 -0.318047
554.583 10.8868 0.121835
301.299 66.3371 -0.249277
[...]
POINT_DATA 13483
TENSORS Strain_matrix float
-0.00698655 -0.0295285 5.05617 
-0.0230601 0.0194721 -1.20619 
-0.00012032 0.000474792 -0.144444 

-0.0571463 0.442461 -67.264 
-0.00255845 0.0767911 -9.45085 
7.89532e-05 0.000744314 -0.188717 

-0.00194144 0.000996199 -0.00991247 
-0.00536425 -0.00875676 -0.045026 
-0.00160866 -0.00183253 0.00890138 

-0.305093 -0.0988722 0.0212264 
0.0851684 0.432339 -0.227279 
0.0539006 -0.0181458 -0.139707 

-0.0166059 -0.0139732 0.0264553 
0.00727161 0.0150929 -0.0170581 
-0.00151686 0.00331391 0.0271866 

-0.0720825 -0.30761 -6.76759 
0.0965716 0.15266 0.35116 
0.00109125 0.00286957 0.140813 

-0.0954729 0.0506788 -0.0857791 
0.0638391 0.0526341 -0.681736 
-0.0094437 0.0695985 1.1334 

-0.00825558 0.0310015 0.00448935 
-0.0386084 0.0178159 0.038676 
-0.00043785 -0.0052942 -0.0160191 

-0.0721251 0.0906517 -0.00104394 
-0.178371 0.0557577 0.461496 
0.000120162 -0.00230612 -0.00224498 

0.0108904 -0.076477 -0.0996221 
0.0380783 0.00447724 -0.0773892 
-0.00339871 0.00283042 0.00201709 

-0.231925 -0.0457144 0.28829 
0.09187 0.168777 -0.193667 
0.0155106 -0.0575896 0.480748 

-0.146256 -0.0449641 -0.223559 
0.0948399 0.0138236 -0.247505 
0.0641915 -0.0114549 0.185918 

-0.0331089 -0.25381 -0.531429 
-0.0432133 0.0109855 -0.279664 
-0.00169011 -0.00104065 0.00504562 

0.0173058 0.0641288 -0.00877706 
0.00946222 -0.0384155 -0.050123 
-0.002345 0.000500886 0.0167045 

-0.133958 -0.0275943 7.80359 
0.0398915 0.0446111 11.6631 
-0.00432317 0.000736231 0.654738 

-0.376897 -0.233353 -2.45957 
-0.307431 0.336587 -0.564131 
-0.0138911 -0.0423056 -0.230256 

-0.0567226 0.0609563 -0.253136 
-0.0298494 0.0389834 -0.27341 
0.0149681 0.00782748 0.0324066 

-0.0255036 -0.0757173 -0.21209 
0.032624 0.00825646 -0.00155723 
0.00394228 -0.0029442 0.0156162 

-0.0412756 -0.226146 -0.333749 
-0.0328459 -0.0461476 -0.431972 
-0.00296476 -0.00109781 -0.0293173 

0.0012878 0.0126458 -0.00808787 
-0.00809783 -0.00898158 -0.046316 
-0.00176129 -0.000309757 0.00450122 

-0.0457095 0.0396316 0.110549 
-0.0865446 0.0105738 0.0469359 
0.00351317 -0.00367082 0.031767 

0.00457425 0.0062504 0.12614 
-0.0123665 -0.000337689 0.176787 
-6.6776e-05 0.000108033 -0.0117895 

-0.000238933 -0.00853044 0.0502772 
-0.00033881 -0.00707746 -0.199312 
6.09377e-05 -0.0012667 0.022107 

-0.0232773 0.00860756 -0.0383832 
-0.00876019 0.0211766 0.124503 
0.000956194 0.000313283 0.0349535 

-0.00606939 -0.0596998 -0.00550856 
0.0560565 -0.000940548 0.0105904 
-0.000783438 -0.000524979 0.0212695 

-0.515568 0.106601 2.68804 
0.0141037 0.0692715 -0.23384 
-0.0139245 -0.0372072 0.159939 

-0.206346 -0.245259 -2.03772 
-0.0830535 0.180228 -1.81315 
0.00327367 0.00303903 0.202775 

-0.0915462 0.122363 0.180858 
-0.0178517 0.123049 0.0528336 
0.000372646 -0.00444599 -0.0728925 

-0.0387816 -0.012859 -1.12829 
-0.0167816 0.0450061 -1.01307 
-0.00228859 0.0015447 -0.0483136 

0.127128 -0.122723 -0.333806 
0.0799346 -0.109013 -0.694053 
-0.0159846 0.0112571 0.0929291 

-0.017978 0.00652809 -0.283982 
-0.0370078 0.0254523 0.188928 
0.00291273 -0.00159826 -0.026022 

-0.101815 0.0877057 0.0480752 
-0.0586443 0.073581 -0.104835 
-0.0114503 -0.0020755 -0.00144074 

-0.00167194 -0.00193102 0.00934676 
-0.00422252 -0.000269068 -0.0130347 
0.000317232 -0.00029494 0.000706059 

-0.00095286 0.0123367 -0.00594582 
-0.00339198 -0.0068471 0.132597 
-2.7889e-06 0.000751018 -0.0173605 

0.000804793 -0.00880971 0.0649596 
0.0432473 -0.0486825 -0.191159 
6.79245e-05 -0.00023505 -0.016957 

0.00160038 -0.205649 1.98311 
-0.149531 0.00972139 -0.723473 
0.00559629 -0.00822011 -0.0528491 

0.0121129 -0.0897535 0.736345 
0.0256637 -0.0179135 -0.242518 
-0.000378065 -0.00127042 0.121296 

-0.747137 -0.290197 -0.0265525 
0.0627193 0.439289 -0.503489 
0.0960404 0.0355726 0.407379 

-0.0416652 -0.0483698 0.250635 
-0.0397887 0.0280809 -0.153445 
-9.35458e-05 -0.0133273 0.0491814 

0.0136129 0.0585892 0.128615 
-0.0438605 0.0224033 0.0841147 
0.0153174 0.00195868 0.0148176 

-0.128334 -0.140669 0.620953 
0.0298363 0.135186 0.520162 
-0.00446267 -0.00408409 -0.00839212 

-0.133819 0.0638794 -0.133106 
-0.039588 0.102072 -0.101179 
0.0121603 0.0309036 0.46671 

0.00400947 0.00963258 -0.00832269 
-0.00124257 -0.00215087 -0.00124432 
-0.00175439 0.000305415 -0.00317939 

-0.0463786 0.189511 0.0255382 
-0.257326 0.0648737 -0.0413921 
-0.0234533 -0.00734407 0.0692613 

-0.0173474 -0.0181741 -0.0340238 
-0.0331742 -0.0175479 -0.0448075 
0.0187499 0.0215324 0.0694883 

0.0168349 -0.108497 0.00589285 
0.0651063 0.00452694 -0.224228 
0.00561317 0.00910057 -0.0135652 

0.0110496 0.00132407 -0.0187269 
-0.0141574 -0.0163641 0.0664281 
0.0038225 -0.000151781 -0.00162811 

0.0609076 0.0678778 -0.10808 
-0.114057 -0.0626559 -0.0115735 
-0.000557443 -4.83958e-05 -0.0460477 

-0.0159978 0.0299486 -0.0181936 
-0.0214336 0.0118521 0.0145056 
0.00310012 -0.00228696 0.00410445 

-0.0188011 -0.00450154 -0.423645 
-0.028371 0.0146311 -0.293247 
0.00175118 0.00739498 0.0869359 

-0.0115894 -0.0355793 0.21809 
0.0847416 0.0196557 -0.0628049 
0.00577196 -0.0151418 0.023969 

-0.00136442 0.00687624 -0.0226233 
0.0162025 0.00157952 -0.0310104 
-0.000266951 -0.000230992 0.0122766 

-0.00853349 -0.028892 0.343859 
-0.00873902 0.0160661 -0.150351 
0.00147867 -0.00126783 -0.00375636 

0.0044127 0.000583302 -0.00124323 
0.00284935 -0.00188403 0.00471404 
-0.000846176 -0.000856275 -0.000543536 

-0.0652383 0.0309326 -0.326906 
-0.0111318 -0.00961483 0.0547375 
0.000231161 -0.0189663 0.168434 

0.00473932 0.0122367 -0.0312838 
0.00813632 0.00857034 -0.036946 
0.00055579 0.00198702 -0.00181511 

-0.315243 -0.124436 0.295738 
-0.0721628 0.308685 0.454176 
0.017938 -0.0279947 0.019963 

-0.423643 1.11882 0.322104 
0.109678 0.596961 0.897389 
-0.0639167 -0.415311 0.147053 

-0.0511873 0.0353865 0.177802 
-0.0685971 0.0344388 0.0418645 
-0.0118855 -0.0224819 0.539471 

-0.242056 -0.249594 -0.400822 
0.344694 0.258099 -0.453261 
0.00860831 -0.0240521 0.0686636 

-0.0637685 0.336947 -0.300715 
-0.0245747 0.153359 -0.517399 
-0.000941534 0.012024 0.0158712 

-0.072155 -0.00431715 0.289228 
0.0899765 0.0258486 0.68064 
-0.00268928 0.0375148 -0.022853 

-0.666388 -0.967485 -1.31378 
0.259992 0.69071 0.455651 
-0.00199584 -0.00125038 0.0531819 

-0.00674615 -0.0105162 -0.116198 
0.000947239 -0.0026782 -0.542695 
0.00155478 -0.000468601 -0.023885 

-0.019044 0.0615112 -0.105756 
-0.0533963 -0.0170637 0.21021 
0.00294317 -0.00684233 0.0743387 

-0.1858 0.556153 -0.147944 
-0.102961 0.10622 -0.199961 
0.0455337 -0.00790672 0.0371223 

0.00825382 -0.0494486 1.86697e-05 
0.0415673 0.00366931 0.0221905 
-9.59906e-05 -0.00535832 -0.0203876 

0.0219385 -0.0754358 -0.027495 
0.0942726 -0.000115971 -0.017665 
-0.00269399 -0.0392025 0.041806 

-0.0505428 0.0472801 -7.01167 
-0.143878 0.107565 -1.9812 
-0.00155879 0.000204938 0.237024 

0.000418517 0.0018273 -0.0059656 
-0.0148192 -0.0121444 0.00601023 
0.000283248 0.00159533 0.00663201 

-0.00816146 -0.0161776 0.0102427 
0.0172429 0.00753809 -0.00878433 
0.000606197 -0.00109308 -0.000558694 

-0.0760033 0.0281393 -0.115681 
0.102456 0.0295313 -0.561105 
0.00894262 -0.020409 0.0727088 

-0.185313 0.163516 0.126664 
-0.288135 0.160434 -0.131306 
0.027105 0.0187646 0.160179 

0.0967894 -0.120111 -0.615892 
-0.229349 0.00285155 0.403904 
0.0491955 -0.0699776 0.0464433 

-0.0243551 -0.0906182 -0.913741 
0.0603349 -0.0270399 0.876007 
0.00290928 0.00342534 -0.00715465 

0.0421408 -0.0660598 -0.166006 
0.0537856 -0.041579 0.154707 
0.00480643 0.00123636 0.066988 

-0.0159074 0.0195441 -0.0743742 
-0.0186273 0.00603759 0.0581797 
-0.000418288 0.00056903 0.0138031 

0.00034598 0.0352465 0.0441187 
-0.0659027 0.00315724 -0.0360858 
0.00581704 0.0119597 -0.0554115 

0.00634094 -0.00984644 0.00839487 
-0.00488325 0.0284223 -0.0120414 
0.00104223 -0.00409747 -0.0565828 

0.0253438 0.0287779 -0.00922304 
-0.0340578 -0.0266501 -0.0767134 
0.00106998 0.00166571 -0.0124148 

0.00811455 -0.00166258 0.0163479 
0.0294094 -0.0144874 -0.0603062 
-0.00105538 0.000999863 0.0277309 

-0.0702587 -0.0555845 0.475088 
0.141504 -0.0325105 -0.341821 
-0.0110151 0.00223208 0.0652601 

0.0100412 0.0483429 -0.00386089 
-0.0423017 -0.00771517 -0.00911111 
-0.000613873 -1.44567e-05 -0.0111268 

-0.0898273 -0.180795 0.729755 
-0.0631506 0.105772 -0.0631836 
-0.0085857 -5.55363e-05 -0.0236769 

0.0218533 0.0167827 -0.046222 
-0.1008 -0.0292618 -0.0234982 
-0.0267047 0.0054539 0.118327 

0.00528937 0.00443617 -0.01926 
0.0439535 -0.0198031 0.0163577 
-0.000214394 0.000515969 0.0342279 

-0.288709 -0.584648 -1.86924 
-0.0209721 0.447833 1.47289 
0.012435 -0.0429199 -0.00851474 

-0.0992524 0.154915 0.242 
-0.206061 0.132587 -0.405542 
-0.0629284 0.0501152 -0.0858151 

-0.00594133 -0.00461741 0.0166795 
0.0307072 -0.00380554 0.0587457 
0.00539807 0.00459723 0.0161568 

-0.0779073 0.0458536 1.80863 
-0.0661468 0.0485896 1.25611 
-0.00704908 -0.0250636 -0.74623 

0.118425 -0.754784 -0.158646 
0.622682 0.342034 0.055339 
-0.0114393 3.59041e-05 0.0354304 

0.0352559 0.0301901 0.0393406 
0.0140074 -0.0799671 0.0114642 
0.000320541 0.0105171 0.041701 

0.00815818 0.00698052 -0.158645 
0.0162175 -0.00468443 -0.134358 
-2.00157e-05 0.000579912 -0.0126111 

-0.113192 0.115316 0.0816155 
-0.029037 0.0767141 -0.32477 
-0.0105606 0.0389077 0.633989 

-0.10806 -0.193261 -0.0281511 
0.0128236 0.106572 0.199878 
0.0105507 -0.00218329 0.109783 

-0.00610207 0.00384736 0.00313072 
-0.00473237 -0.00885988 -0.019983 
0.00127918 -0.00179009 0.00968187 

-0.0967198 -0.0833281 0.0889474 
0.168619 0.0543559 0.00650199 
0.0104175 0.00753587 0.0742245 

-0.00712947 -0.0332664 -0.00113443 
0.0438545 0.0100494 0.0246924 
-0.000779908 1.22821e-05 0.0057855 

-0.0156153 -0.0777907 0.624306 
0.0951382 0.0286216 -0.126723 
-0.000488796 -0.00247745 -0.0155501 

0.0205045 0.198055 0.385422 
-0.276138 0.0860903 0.521508 
-0.0247558 -0.00996533 -0.0259014 

-0.219999 -0.129632 -4.57071 
0.100684 0.0554858 0.0433713 
-0.00449621 0.00424322 0.0350677 

-0.0366953 -0.00157023 0.667125 
-0.00895691 0.0390736 -0.941537 
-0.00900414 0.00275286 -0.111754 

-0.0365874 -0.0398174 -0.145764 
-0.0128644 0.028944 -0.129147 
0.0008156 -0.0012434 -0.0638489 

0.0384775 -0.118484 -0.114773 
-0.0113205 -0.0918496 0.130613 
-0.00505169 0.00732446 0.0484819 

0.0427937 0.160737 0.28925 
0.037797 -0.0471877 0.544937 
0.0062826 0.0087055 0.0707622 

0.0118199 -0.00247363 -0.0148999 
0.0108937 -0.001076 0.0233842 
0.00282761 -0.0034593 -0.0233432 

-0.0497049 -0.0111688 -0.0694467 
-0.190843 0.011717 -0.348433 
0.112772 -0.064896 0.10116 

-0.0107123 0.023519 -0.0683687 
-0.0441445 0.0253785 0.40172 
0.0141088 0.0105053 -0.128406 

-0.00899588 -0.102965 -0.00423564 
0.0502774 0.0103935 -0.0217637 
-0.00272087 0.000734156 -0.0197104 

-0.00311144 0.0555011 -0.0098308 
-0.0291368 0.0266532 -0.0310996 
0.00411663 -0.00217398 -0.0611701 

0.000254873 -0.0878773 0.0419466 
0.0714779 0.0415332 -0.0135571 
0.00493082 0.0145912 -0.0154383 

-0.0215329 0.0595493 1.38315 
-0.0183102 0.0181472 -1.32271 
-0.00789595 -0.00197837 0.216645 

-0.073279 0.128788 -0.0505781 
-0.138823 0.0462755 -0.0219351 
-0.0531665 -0.000424783 0.283001 

-0.0208729 0.0555457 0.241626 
0.0956143 0.0266662 -0.815798 
0.00200385 0.00304952 -0.0203341 

-0.256681 -0.0991029 0.268849 
-0.0431097 0.168518 -0.0331779 
-0.0204057 -0.00750076 0.0310281 

0.0533327 0.0227011 -2.74171 
-0.0519718 -0.0335611 0.074096 
-0.00683667 -0.00695445 0.277222 

0.00589706 0.0983304 0.0468914 
-0.105909 -0.00794041 -0.0325857 
0.00441014 -0.000479904 0.0142259 

-0.00223923 -0.117615 -0.269417 
0.114124 -0.00234966 -0.156091 
0.00152749 -0.00091987 0.036479 

-0.01072 -0.0333953 -0.00540192 
0.0131867 0.0174544 -0.0579173 
0.00049572 -0.00193327 0.00128652 

0.0322615 -0.0548665 0.227867 
0.0444819 -0.0325097 -0.131542 
0.0075673 -0.00933253 0.159608 

-0.0963374 -0.163379 0.300934 
0.103833 0.0485222 0.0343526 
-0.00762113 0.00514087 0.0114381 

-0.0310751 -0.000190531 0.0961926 
-0.0332632 0.0344437 0.107689 
-0.0104475 0.011161 -0.0248902 

-0.00514365 0.113711 0.0271696 
-0.147006 0.0230321 0.0179672 
-0.00276024 -0.00250878 -0.0211755 

-0.10042 -0.216215 -0.1994 
-0.032198 0.130314 0.237081 
0.00299766 -0.00153773 0.037726 

-0.089214 0.0246629 0.10427 
0.0546938 0.0887532 -0.189728 
0.00246523 -0.00458758 -0.07526 

-0.0183821 -0.0508074 0.077837 
0.00346315 -0.00807115 0.0860111 
-0.00722754 -0.00430449 -0.00678426 

-0.0535848 0.108439 0.377442 
-0.0909503 0.0393263 0.0491717 
0.00100869 -0.000109156 0.00727661 

0.043362 -0.163906 -0.131615 
0.0572659 -0.0955083 -0.312672 
-0.00579529 0.00380308 0.015234 

-0.0134023 0.0483309 0.374576 
-0.0626081 -0.0270213 0.148679 
-0.0100013 0.0173914 0.161996 

-0.118158 -0.0848491 -0.74676 
0.13523 0.100511 0.0327087 
-0.00153397 0.00163562 0.346248 

-0.0256019 0.0198655 0.0989084 
0.00140087 0.0129193 -0.253726 
0.00141376 0.000296251 0.0175426 

0.0686975 0.082339 -0.074644 
-0.0317513 -0.113349 0.0175834 
-0.0869548 0.0508589 0.248181 

-0.106435 0.0311092 -1.4896 
-0.25219 0.0538001 -1.01841 
0.00141652 0.000738593 0.0533865 

-0.0370215 -0.171094 0.0582405 
0.145104 0.0776839 -0.101656 
0.0104071 -1.5889e-05 -0.018414 

0.29048 -0.154938 -0.378469 
0.386629 -0.0650985 -0.0224966 
-0.00880017 0.00940822 0.00728948 

-0.0881622 -0.0777804 -0.493167 
-0.0302287 0.0585902 -0.548912 
0.0117676 -0.0101066 0.102682 

-0.0043159 -0.0406923 0.185998 
-0.0301739 0.0861354 -0.472509 
-0.00311241 0.0279093 0.0585013 

-0.0771456 0.0690264 0.0260499 
-0.225134 0.0521976 -0.355303 
-0.0273741 0.00871188 -0.0317616 

-0.00646577 -0.0813645 -0.0370506 
0.0730871 0.0168637 -0.000195908 
-0.00461428 0.00253344 0.00783502 

-0.00181706 0.078572 0.0349144 
-0.0839342 0.0136128 -0.0895422 
-0.0434263 -0.0279253 0.0276096 

-0.0378675 0.0841255 -0.401524 
-0.0623949 -0.00618014 -0.035014 
-0.00987999 -0.00268496 -0.0232755 

0.0347901 0.0748455 0.167712 
0.0527195 -0.194603 0.0152347 
-0.00402646 0.00205326 0.0162271 

-0.360591 0.305793 -1.10723 
0.532697 -0.207508 -0.615448 
0.0360436 0.0182417 0.151832 

0.0855003 -0.137768 0.0995357 
0.0988393 -0.172648 -5.80064 
-0.00343656 -0.00841082 -0.0458289 

-0.142052 0.082737 0.174524 
-0.040631 0.157952 0.285653 
0.0137219 0.0386728 0.433223 

-0.00205689 -0.00385946 0.00721117 
0.0105978 0.0010179 0.0014177 
0.00081049 -0.000185935 0.00850483 

-0.02099 -0.04294 -0.0733506 
0.0450934 -0.0105245 -0.0587701 
0.00200421 0.00316495 0.0293121 

-0.0626492 -0.0450331 0.199295 
0.0480825 0.0585119 0.126177 
-0.0183379 -0.0158724 -0.00970578 

-0.159532 0.449253 -0.98345 
0.0123775 0.174673 -0.506511 
-0.00770881 -0.00220614 0.0165083 

0.0227859 -0.0409973 -0.223951 
0.053054 -0.00103824 0.00342978 
0.00323353 0.00428803 0.0155063 

-0.21331 0.149056 -0.802505 
0.401391 0.147855 0.626204 
-0.0679841 -0.0575788 0.305156 

-0.00151107 0.0750571 -0.586343 
0.0102308 -0.0205856 0.0609456 
-0.00310008 0.00245263 0.0523672 

-0.00019997 -0.0700392 -0.52387 
0.0870519 -0.0185097 -0.480665 
-0.0136532 0.0154968 0.05777 

-0.0415302 -0.132329 -0.554444 
0.0200905 0.00448508 0.353048 
-0.0062107 0.00392233 0.229733 

-0.0408985 -0.0948773 -0.583217 
0.0812282 0.021837 0.754281 
0.00112979 -0.00315775 -0.0799957 

-0.121008 -0.0357077 -0.751459 
0.0682907 0.112241 -0.375384 
0.00147132 0.00414948 -0.0437222 

-0.0340135 0.000183475 0.0779316 
0.0237992 0.0660819 0.442935 
-0.00204941 -0.00176014 -0.0334935 

-0.0478273 0.0429253 -2.41768 
0.0179417 0.0282801 0.56976 
1.66312e-05 -0.000277901 0.017053 

-0.00870979 0.00930208 0.2361 
0.00281577 0.00846083 0.604414 
0.000648865 -0.000652901 0.0140433 

-0.0383224 -0.0208985 -1.35096 
0.0335141 0.0418264 -4.76924 
0.00483592 -0.00448385 0.586757 

-0.0195015 -0.0605935 -1.60701 
0.0743193 0.0348128 2.28147 
-0.0012413 -0.00119246 0.13758 

0.0358132 0.0259778 -0.0605721 
-0.0385231 -0.0493444 -0.248886 
0.0025507 -0.00187604 0.0476785 

-0.0233036 -0.0458418 -0.519791 
-0.0341877 -0.0374177 -0.145469 
-0.00863106 -0.00253104 0.0276136 

-0.00567942 0.00045985 -0.0617306 
9.2816e-05 -0.0107708 -0.478955 
-0.00168919 0.000373551 -0.0017769 

-0.0533917 -0.0742775 -0.353559 
0.0753857 0.0456467 -1.04733 
-0.0054797 0.00294053 0.192253 

-0.0658019 0.296044 0.0128546 
0.00984329 0.0263198 -0.312443 
0.10494 0.00974764 0.318566 

-0.0783244 0.0595208 -0.0442834 
-0.0418985 0.0491837 -0.0668628 
0.00141455 0.0166424 0.0562981 

0.219364 -0.48944 -1.09107 
0.414334 0.205741 0.820296 
0.0968576 -0.0213873 0.571488 

-0.109289 0.0599741 -0.987346 
0.0466441 0.0533184 -0.0655044 
-0.0483075 -0.0770741 0.223166 

-0.00349697 0.0448796 0.019201 
-0.0111462 0.000524343 0.0453615 
0.00701223 -0.00509544 0.0172728 

-0.0217993 -0.0693998 0.221337 
0.072228 -0.0118485 -0.16985 
-0.0101977 -0.000737139 0.102035 

-0.0506662 0.179665 0.0777098 
-0.369319 0.0583589 -0.573457 
0.00296577 -0.00281959 0.0315705 

0.01014 0.0628466 0.262302 
-0.0595114 0.0792256 0.117172 
-0.00204838 0.00855437 -0.0306536 

-0.0182664 -0.0591567 -0.350473 
0.0379943 0.0199039 -2.12595 
-0.00151716 0.00165683 0.185765 

0.0405493 -0.00552479 0.131957 
0.021264 -0.012142 0.197532 
-0.00777795 -0.0080453 -0.00230352 

-0.0349937 -0.106452 -0.0734811 
0.126485 0.0299393 -0.611766 
0.00911741 -0.00319023 -7.00758e-05 

-0.00668227 0.0040074 0.0164815 
-0.0245214 0.00884001 0.017076 
0.000167133 0.000295332 0.0091094 

0.0189513 0.128212 -0.0217569 
-0.145036 0.00100711 -0.0218055 
-0.00396944 -0.00232736 -0.00237322 

0.0319315 -0.125334 0.175777 
0.130789 -0.0107488 0.0888959 
-0.00231108 0.00392859 -0.00399177 

0.0030298 0.00407607 0.00470133 
0.00392211 0.00536286 0.000166214 
0.0003851 -0.000716236 -0.00890347 

0.00104452 0.106194 -0.196381 
-0.0396172 -0.023096 -0.0842064 
0.00919818 0.0145517 0.0839057 

-0.202849 0.0594367 -0.0614224 
0.0638547 0.0183784 0.074591 
-0.0457954 -0.0361253 0.179681 

-0.00517922 0.014439 0.037141 
-0.0122232 0.00615247 -0.00247652 
-0.000705053 0.00246514 -0.00405781 

-0.259405 0.101355 0.38162 
-0.053785 0.195869 -0.233478 
-0.0115115 -0.00463937 0.126075 

-0.390445 0.260906 -1.24676 
-0.0284458 0.061105 -0.478969 
-0.064816 -0.0239493 0.247752 

-0.104689 5.68455e-05 -0.338286 
-0.00532788 0.00636687 -1.13609 
-0.0102959 -0.000467559 0.164406 

-0.0772121 -0.305904 -0.871309 
-0.0356839 0.124197 -0.83134 
0.00242466 0.0030666 0.0692654 

-0.00194826 -0.00807252 0.0462539 
0.0097081 -0.00300611 -0.0390695 
0.000431364 0.000896176 -0.00139968 

-0.0987409 0.0397054 -0.069076 
0.0060714 0.0988117 0.964787 
-0.0117011 -0.0821373 -0.854744 

-0.0760287 0.00133875 0.00876177 
-0.140865 0.0605563 -0.00719744 
-0.00717993 -0.0050148 0.0139367 

0.0108761 -0.00254184 0.015208 
0.0133542 -0.00333559 -0.0337978 
7.12338e-05 -0.000254754 0.00543208 

0.0071189 -0.0198801 -0.0475257 
-0.0473395 0.00165882 0.242554 
-0.00194208 0.00626058 0.0453643 

-0.0114206 -0.0129042 -0.0162037 
0.00379065 0.00769597 0.0312836 
0.00333325 -0.00941443 0.0125427 

-0.0370106 0.0815032 0.294474 
-0.058508 0.0403978 0.151992 
-0.00196187 0.00104744 -0.00619199 

-0.116877 -0.0177394 0.024701 
0.214095 0.114038 0.0570367 
-0.00539257 -0.01354 -0.0101489 

0.01213 -0.0930176 0.0586798 
0.0734936 -0.000107019 0.179729 
0.0109139 -0.0188101 0.241746 

-0.15781 0.266697 0.49271 
-0.0375751 0.160692 0.103049 
0.00319257 0.011557 0.0103824 

0.0264344 -0.100635 0.052209 
0.0252524 -5.23538e-05 -0.0208663 
-0.00197921 9.37507e-05 0.00369031 

0.0572851 0.115196 0.830819 
0.00971033 -0.032199 -0.169409 
0.0128139 -0.0173632 0.0658831 

0.00370007 -0.0922122 -0.170403 
0.0986706 0.00707115 -0.0789825 
7.09838e-05 0.0010733 -0.00309035 

-0.0446126 -0.0570249 -0.564277 
0.0683169 0.0310038 -0.112217 
-0.00149544 -0.000939264 0.02042 

-0.0259755 -0.0357208 -0.379396 
0.0726497 0.034096 -0.298894 
0.00701623 -0.00467253 -0.159798 

0.013485 0.037051 -0.0389236 
0.00397124 0.000903581 -0.0668803 
-0.00517224 0.00355177 -0.00831673 
