# vtk DataFile Version 3.0
Output file generated by Yade's KinematicLocalisationAnalyser
ASCII
DATASET UNSTRUCTURED_GRID

POINTS 13483 float
632.308 30.3931 -0.423924
809.183 59.2004 -0.638085
123.774 6.23272 -0.42086
834.087 3.9767 0.528875
516.516 7.72905 -0.254154
324.41 35.9846 0.397856
161.366 6.88503 0.425015
591.121 10.11 0.148823
513.302 24.8533 0.137596
753.711 14.194 0.543269
217.087 8.88216 -0.124858
265.009 6.32026 -0.260087
679.02 28.9787 -0.141456
659.502 14.3304 -0.103757
141.327 17.1364 0.449111
228.32 34.6824 0.397432
224.514 13.0004 -0.272697
298.04 9.55654 0.386571
351.543 32.9453 0.442438
542.491 8.62611 0.344224
424.107 36.6772 -0.120882
613.4 45.3441 -0.279388
831.726 37.5736 -0.493572
728.98 49.1402 -0.441325
474.292 16.1272 0.303732
248.612 44.1407 0.127197
508.089 28.2163 -0.464523
608.783 20.3745 0.212386
46.2912 15.5067 0.463221
750.342 33.0443 -0.385154
498.892 4.94166 0.317092
17.239 23.2492 -0.282412
822.037 54.9906 0.285204
512.281 2.48019 0.484424
80.5737 44.5162 0.100663
539.62 30.6678 0.323162
548.993 16.763 -0.410188
354.838 22.3208 0.195687
552.618 25.7824 -0.317044
361.916 33.5076 0.474412
248.681 14.4333 -0.359931
448.678 36.4652 0.0714009
706.47 7.19415 0.118059
198.888 6.20514 0.372494
57.2379 6.97782 -0.125503
70.7545 8.83275 -0.263389
723.429 9.13663 -0.527548
24.1352 11.524 0.283267
635.452 46.4046 0.352823
709.975 24.6573 0.348537
177.881 32.5299 -0.306626
802.21 48.6515 -0.116611
36.2316 28.2318 -0.1181
552.99 2.99538 0.323936
146.622 7.49197 -0.48377
617.096 34.4231 0.405183
521.44 28.0375 0.117931
180.34 0.94691 -0.266454
33.733 2.40312 0.298015
360.103 17.7537 0.270335
647.442 47.8067 0.135384
477.985 32.7139 0.193167
412.867 1.02722 0.196637
734.476 7.93425 0.327539
27.4058 43.1161 0.235811
264.909 30.4996 -0.312663
754.567 8.44266 0.33816
701.255 46.0341 0.403141
431.831 8.59174 -0.501183
592.149 3.54188 -0.343521
777.605 37.1965 0.382387
134.955 7.59343 -0.281278
516.008 27.1939 -0.14901
494.544 14.9167 -0.151462
304.361 16.5306 -0.356587
21.3744 13.5575 -0.272053
822.304 43.8819 -0.321652
343.726 38.4498 -0.305192
707.3 21.5448 0.362923
723.299 13.0067 -0.265147
821.477 12.381 -0.291064
481.493 34.4262 -0.165153
95.6151 38.5819 -0.275977
717.65 39.051 0.248321
677.139 41.1743 -0.110248
836.934 42.3505 0.11749
815.455 0.769732 -0.551608
301.106 29.5407 0.435902
647.76 6.48637 -0.126299
24.9361 5.14229 0.478505
137.602 38.1342 -0.140527
531.276 14.5547 0.235852
811.679 34.0392 -0.502872
202.147 28.7032 0.251434
45.996 34.3146 -0.288455
511.177 1.15874 0.13476
243.82 8.83965 -0.375944
785.336 55.0707 -0.269783
802.349 38.7232 0.270659
374.165 20.5911 -0.261834
169.675 26.9358 -0.439205
571.255 39.6102 -0.457311
393.93 15.3721 -0.42757
428.532 29.7048 -0.102968
391.906 4.54727 0.407391
569.596 10.8509 -0.0988642
838.618 11.2333 0.215971
83.0781 39.3823 -0.401653
347.468 4.8642 -0.186422
584.455 9.38678 -0.358167
372.926 44.3806 0.441845
26.6665 25.0082 -0.493797
31.4229 5.65555 0.340887
591.69 33.1204 0.450988
524.39 24.1426 -0.140698
27.3347 37.1149 0.412436
96.6517 31.0549 0.212317
337.135 15.913 -0.303026
627.101 19.0604 -0.141513
493.898 38.0551 0.301955
770.143 7.39936 -0.467962
762.13 6.78765 -0.281821
401.383 36.7778 0.0965072
665.831 25.5731 0.10338
247.265 16.8329 0.54592
342.567 3.73275 0.458213
107.272 31.5868 -0.352464
120.647 24.1174 0.24827
566.498 39.959 0.081837
317.578 18.7029 0.492859
744.233 35.9883 0.0962736
704.459 45.855 0.112609
500.595 20.6484 -0.365209
800.66 18.0577 0.361244
445.853 23.8057 0.237675
288.461 24.0116 -0.294862
708.441 33.4976 0.287824
289.968 29.035 0.3841
602.679 12.613 -0.20258
344.795 35.1426 0.199827
525.562 11.6245 0.488459
380.886 31.8195 0.087111
448.166 16.6486 -0.101991
330.951 42.4605 0.432953
198.175 29.9833 0.117889
812.628 56.9495 0.154118
835.61 12.7336 -0.480176
6.20957 12.1724 0.423908
452.234 22.2085 -0.430086
39.8385 22.5145 0.0816653
391.543 31.1194 -0.46823
411.847 24.7171 -0.2665
77.7298 11.8641 -0.484402
53.9023 34.0847 0.529634
235.165 13.5041 0.419947
648.593 40.1201 -0.474421
605.098 21.4307 -0.499144
77.9828 20.9497 -0.48198
732.795 51.2754 -0.403051
797.083 3.68146 -0.663212
694.551 41.4269 0.532073
729.575 2.31901 0.403714
575.172 26.3182 0.387107
614.987 45.4529 0.439503
535.049 17.9348 -0.426223
831.537 2.74827 0.315607
232.973 25.2087 -0.114673
133.067 35.1843 0.18932
257.738 6.65203 0.388831
98.3981 4.42304 -0.255681
66.978 10.0688 0.22108
287.791 36.0481 -0.334962
17.5524 25.104 -0.35182
582.027 18.9056 -0.459266
635.33 41.3998 0.223783
483.866 21.2129 -0.363872
840.562 61.8804 0.351752
424.841 8.58754 -0.107532
455.183 36.8122 -0.275021
561.649 3.46384 -0.186065
23.9778 23.9971 0.374093
605.237 4.61648 0.40763
571.756 4.32109 -0.292034
215.249 11.3878 0.489697
444.207 16.2636 -0.199602
325.023 6.3046 0.339336
405.278 18.7627 -0.349801
773.704 50.7999 0.0988996
201.023 25.4028 -0.421393
808.56 8.50266 -0.403779
774.043 46.9524 -0.337809
400.68 10.2028 -0.170273
752.334 2.31823 -0.506279
635.755 26.8128 -0.397347
776.816 18.1378 -0.402856
450.396 43.4691 -0.267072
520.083 12.5171 0.445068
486.751 43.8816 0.22783
466.252 8.62003 0.11941
698.03 40.2957 -0.262878
695.727 36.8346 0.305823
200.486 38.9974 0.339512
819.409 12.8142 -0.11816
617.209 45.9911 -0.243827
11.8927 16.9115 0.245682
426.001 25.5025 0.349279
195.863 23.178 -0.398572
97.282 39.5526 -0.205057
808.961 32.9938 -0.413054
691.92 46.3473 -0.242611
333.356 25.3972 0.372598
558.399 10.2304 0.31952
85.8958 44.2667 -0.168543
258.802 25.8063 -0.467684
584.731 24.1777 0.355535
510.345 18.2955 -0.415527
274.67 0.890935 -0.343175
580.786 41.0608 0.386149
559.681 41.4167 -0.469354
505.282 34.1051 0.385778
523.278 0.84905 -0.559353
738.661 19.684 0.351463
187.667 12.086 -0.184531
524.568 37.6934 0.449971
592.688 40.2219 -0.126204
76.2814 0.955945 0.27067
263.199 4.73914 0.174212
835.038 16.058 0.270435
822.277 14.3016 -0.444418
841.893 15.5861 -0.53141
317.356 8.5724 -0.229042
779.924 25.196 -0.482739
425.989 41.5262 -0.348223
470.579 0.8139 -0.399269
682.819 38.4271 -0.605838
28.1934 30.6979 0.303023
345.845 41.0736 0.58612
264.075 2.87136 0.327948
825.624 52.6499 0.193181
748.342 51.6802 -0.133504
300.654 10.9003 0.228204
702.519 30.2953 -0.0801223
586.359 2.63676 0.298951
569.478 6.42004 0.420141
101.159 18.4356 0.498436
317.262 1.03162 -0.224785
359.318 2.26822 -0.361718
14.3867 7.65961 0.388261
4.57237 31.184 0.249375
169.389 18.8534 0.41366
71.2258 41.616 0.215397
69.717 28.6836 0.332796
443.933 14.3943 -0.436876
384.171 35.2514 -0.466151
800.071 50.5533 0.123463
20.1454 4.02725 -0.2645
73.9257 6.88496 0.133666
658.001 38.147 -0.16426
308.439 0.915664 0.361776
382.331 15.8791 -0.126512
246.616 4.67207 -0.376724
687.435 22.7104 0.209442
473.799 8.35709 0.414592
782.709 21.8336 -0.509026
665.499 28.8769 -0.307085
706.121 19.7852 0.075504
440.742 26.8221 0.499367
106.969 45.0538 -0.316137
569.994 43.4756 -0.0693179
774.714 13.0421 0.261351
248.897 30.3033 0.246054
33.3854 17.2612 0.18096
352.407 13.7327 0.498658
112.849 40.7295 -0.466857
280.437 42.1951 -0.204157
446.207 1.09667 -0.235104
814.556 35.776 0.384881
722.203 0.720662 -0.539902
348.033 3.2494 0.527584
314.651 27.7363 0.145367
485.497 40.8167 0.229401
85.4188 8.10067 -0.428462
207.174 45.0592 -0.377598
805.246 42.5836 0.338845
519.901 40.4809 0.0791551
209.512 41.2583 -0.262068
168.547 42.4408 0.263452
840.239 36.0107 0.433142
837.176 11.9228 -0.5281
638.742 3.20267 -0.599492
199.41 24.5867 0.0921189
576.9 27.2922 0.102541
578.962 27.613 0.253225
429.45 5.65282 -0.14287
506.038 0.927081 -0.286628
798.554 54.463 -0.51354
88.914 30.9421 0.208602
693.097 19.3642 -0.566109
287.676 15.4866 -0.351259
9.8739 2.40202 -0.327652
131.616 37.0239 0.192613
70.0939 23.1027 0.485731
737.704 39.4954 -0.334557
829.673 59.8497 -0.164806
194.448 28.4343 0.180815
831.072 13.5375 -0.438231
47.365 36.4266 0.253906
95.4193 29.3901 0.161742
669.227 12.6133 0.389966
434.41 17.5911 -0.57739
545.73 16.796 0.112597
249.476 28.3449 0.177776
655.097 4.54081 -0.397787
841.069 10.8568 0.50462
31.312 31.703 -0.26404
283.258 7.72254 0.190097
232.795 15.1575 0.251279
1.07815 35.7321 0.149782
236.178 14.5691 -0.374576
222.009 11.0292 0.124724
224.574 26.1971 -0.276803
139.83 27.7587 -0.133146
576.265 14.9735 -0.349619
175.253 14.2717 0.327609
819.556 53.804 0.232289
182.427 3.84602 0.500212
49.5789 38.3813 -0.365762
776.108 59.2525 0.426511
294.928 32.0464 -0.395995
716.497 24.5039 0.433372
820.941 38.5801 -0.489733
315.369 9.18387 -0.106248
772.908 34.6014 0.33419
344.877 2.59426 -0.381827
436.929 23.7502 0.360717
712.041 18.2324 0.726403
110.626 11.9566 0.431931
507.772 3.88355 -0.486885
786.986 21.1799 -0.217312
92.6636 7.73673 0.210357
295.593 14.6752 0.200041
444.788 11.6078 -0.201714
830.123 3.54683 0.604796
417.892 1.9394 -0.530366
185.335 39.121 0.309516
777.642 10.9314 -0.330414
134.919 36.226 0.181476
276.218 31.2616 -0.379683
420.688 21.4003 0.220666
605.136 14.5196 -0.322536
406.647 9.7973 -0.490403
479.811 27.3587 -0.419515
809.753 58.6201 0.528883
49.843 11.0013 -0.116303
314.026 38.993 -0.274641
398.43 25.832 -0.42287
430.568 20.7836 -0.249935
548.003 44.7673 0.356339
792.203 53.9304 0.257921
702.066 36.1124 0.378256
236.559 34.6959 -0.377347
14.551 31.7342 0.16049
693.909 37.4337 -0.165115
535.213 40.9935 -0.480365
240.711 39.4086 0.105996
722.53 35.9448 -0.126792
158.558 9.2406 0.209313
385.211 20.8472 0.298302
487.348 41.7718 0.107032
434.608 19.2443 0.200049
807.015 62.2366 0.291138
447.736 3.42236 0.438623
52.1616 25.3828 -0.313128
494.602 31.7512 0.343749
457.013 41.9975 0.380825
822.697 48.0056 -0.216374
770.522 32.9381 -0.223974
570.196 18.715 -0.14524
813.213 49.5391 -0.448563
307.974 2.20135 -0.465863
397.587 28.6646 0.441054
30.5872 38.848 0.299266
774.659 35.6036 0.13067
643.482 20.2347 -0.455274
486.942 0.779953 -0.4699
132.304 4.48244 -0.281609
448.484 40.7861 -0.113068
12.3272 0.921201 0.313956
829.891 5.46939 0.192936
388.583 39.1647 -0.396548
643.883 7.76153 0.457673
[...]
POINT_DATA 13483
TENSORS Strain_matrix float
-0.0653363 -0.0228302 -0.292453 
0.124343 0.102061 0.0173679 
-0.0176589 -0.00238969 -0.0599479 

-0.0266661 -0.501043 7.68931 
-0.0795323 0.407257 -40.4915 
-0.00146671 0.000287802 0.591126 

-0.022579 -0.000710658 0.184576 
-0.000157847 0.00751007 0.0591398 
0.000137467 0.000616646 0.0557982 

-0.0144807 -0.0131544 0.079904 
0.000932242 -0.00224413 -0.100229 
-0.00420898 0.000507837 0.0318339 

-0.167966 -0.0434459 0.0062112 
0.0307157 0.10978 -0.333755 
-0.0177029 0.0376546 0.379908 

-0.0546307 0.0427123 0.969484 
-0.0830125 0.073411 -0.0409652 
0.00643958 0.0364707 -0.0899716 

-0.0194512 -0.00825103 0.00750466 
0.00425667 0.00700741 -0.00563289 
0.00108062 -0.000115585 0.00738728 

-0.0184306 -0.00843039 0.00351473 
0.0153761 0.00114449 0.0130344 
-0.000836769 -0.000456104 0.0156008 

-0.130683 0.0304475 0.635369 
0.159468 0.193146 0.312996 
-0.0255433 -0.00240133 0.166739 

-0.0617193 -0.0763456 0.144371 
0.0560688 0.00960304 0.367698 
-0.000393114 -0.00153482 0.184502 

-0.0152748 0.00247598 -0.0299001 
0.00375134 0.00661632 0.016788 
-0.000741121 -0.00022442 -0.00808351 

-0.0128798 -0.00387451 0.00510288 
0.00329206 0.00562448 0.00247029 
0.000589789 0.000254103 0.00144931 

-0.0644821 -0.00664479 0.216582 
-0.0685375 0.0820692 -0.407959 
0.00343539 0.00187789 0.0020755 

-0.0386306 -0.0624464 0.0999338 
0.0394742 0.00715602 -0.0129798 
-0.0601423 0.00135787 0.70848 

-0.0195703 -0.0035165 0.132432 
0.00956883 0.00790858 -0.408928 
4.64083e-05 0.000794085 0.0502237 

-0.00912197 -0.0107393 0.0352451 
0.02233 0.00334438 -0.00104521 
-0.000870046 0.000550038 0.0277171 

-0.0145676 0.0040814 -0.0125802 
-0.00679501 0.00701033 -0.00728897 
2.5328e-06 0.00143464 0.00728309 

-0.0296493 -0.00164957 0.0104762 
-0.00854854 0.00605635 -0.0315347 
-0.00025321 0.00119885 0.0368636 

-0.019124 -0.0184726 -0.00938196 
0.00399543 0.00603314 0.00456296 
0.00126896 -0.00144516 0.00111488 

-0.0172554 0.010103 0.0939932 
-0.0259658 0.011566 0.122512 
-0.0016247 -0.00521576 0.0600843 

-0.0295019 -0.00663388 -0.031698 
0.000770192 0.00664987 -0.0496215 
0.00264296 0.000754951 0.0108958 

-0.0165333 -0.0309753 0.0654999 
0.0132411 0.01087 -0.0451891 
-0.000210359 -0.00203253 0.0234651 

-0.0699035 0.0604464 -0.722474 
-0.236281 0.00745194 -0.472679 
-0.00909232 0.00580458 0.00874266 

0.0380313 0.211876 -0.0961067 
-0.21569 0.0280062 0.833161 
-0.00940069 0.0126105 0.151763 

-0.01257 -0.00765623 0.00891619 
0.00902003 0.000725598 0.0240651 
-0.00120029 -0.00012497 0.00892194 

-0.0261537 0.0134041 0.0181595 
-0.00754429 0.0120809 -0.0193328 
-0.00677007 0.000643376 -0.00295947 

-0.0920616 -0.0084631 0.949396 
0.0397009 0.0961397 -1.06311 
0.00533198 9.12713e-05 0.423365 

0.00938804 0.0209169 -0.2658 
0.0458359 -0.00821488 -0.228493 
0.0292118 -0.0199671 0.249877 

-0.00423238 0.00947943 0.079541 
0.00593941 0.00330935 -0.163351 
-0.00165437 0.0061784 -0.38567 

0.00440206 -0.0740264 0.211214 
0.0154412 -0.0527518 -0.542712 
0.0015829 -0.0192301 0.182957 

-0.0261637 0.0162142 -0.0607165 
-0.0620332 -0.000374547 -0.0355024 
0.000657551 -0.000401005 0.029438 

-0.0257471 -0.0109952 0.0752053 
-0.0281599 0.0183228 0.148618 
-0.00222104 0.033422 -0.0460568 

0.0122121 0.284566 -0.529679 
-0.375339 -0.000813457 -0.108659 
-0.0325181 -0.0177406 0.128613 

-0.0357904 0.0734781 -0.649001 
0.00407788 0.0151441 -0.126662 
0.00300187 -0.0341788 0.0532797 

0.0294129 0.00679403 0.0515837 
-0.0372341 -0.0199218 0.0179192 
0.00639212 0.0103528 -0.0399331 

-0.0177089 0.0417531 -0.609754 
0.0457212 0.019321 0.704259 
-0.00105674 -0.000632113 0.0202754 

-0.0282857 0.0323274 0.0157826 
-0.0126078 0.0165026 0.00473533 
-0.00120287 0.0100137 -0.020675 

-0.0160948 0.00878573 -0.00206736 
-0.0183822 0.00779651 -0.014976 
1.74605e-05 -0.000849759 0.0134399 

-0.0162024 -0.00339185 0.205818 
0.0238006 0.00803043 -0.175034 
0.0408461 -0.00236915 -0.232166 

-0.0155149 -0.00382445 0.22161 
0.00159892 0.0100506 0.337006 
0.000181007 0.000981789 0.0363063 

-0.0165008 -0.0145961 0.058579 
0.0103223 0.00377226 0.0353178 
0.00148439 -0.000398147 0.0168631 

-0.0157229 0.0148385 -0.0123895 
-0.0170449 0.00549496 -0.00563638 
0.00378293 0.0044768 0.0383721 

-0.231573 0.125282 0.739947 
-0.159866 0.0649496 0.190796 
0.0401618 -0.037088 0.215182 

-0.0105447 0.00261725 0.021411 
-0.00319431 0.0047501 0.0240449 
0.00308444 -0.000967398 0.0329113 

-0.0182326 0.0103312 0.0058732 
-0.0112764 0.00937255 -0.00699465 
-0.000707033 -0.000353211 0.00253889 

-0.0111422 -0.00232792 -0.0117314 
-0.00556803 0.00650925 -0.0363117 
5.83438e-05 -4.78149e-05 0.000894072 

-0.0412139 0.0389084 0.0649004 
-0.0435415 -0.00808659 -0.0304398 
0.00217904 0.00148104 0.131697 

-0.0105988 0.0200883 0.00632233 
-0.0146387 0.00234878 -0.00441391 
-0.00170055 -0.00053187 0.011459 

0.00818142 -0.0815673 0.0738803 
0.0887341 0.00406224 0.0341601 
-0.0180068 0.00280728 -0.0420492 

0.00764815 0.102551 -0.156953 
-0.0847829 0.0102236 0.203892 
0.0172775 0.0177146 0.0264204 

-0.0108571 0.00406017 -0.0782883 
-0.00422098 0.00409474 0.00016354 
0.000927064 0.000157552 0.0150312 

-0.0429459 0.205747 0.0284805 
-0.206789 0.040691 -0.391427 
-0.00917902 0.0524981 -0.0536541 

-0.00618174 0.0248218 0.0151993 
-0.0278308 0.00786561 -0.027954 
-0.000188093 -0.000487023 0.00895985 

-0.0243209 0.00471195 0.0226101 
-0.00286135 0.00936378 -0.00928223 
-4.10872e-05 -0.00129879 0.00467795 

-0.0187275 0.00221713 0.0203444 
-0.00229013 0.00277319 -0.144688 
-0.000729196 0.000282759 0.0413477 

0.00287895 -0.0417725 0.0714742 
0.0296223 -0.056859 -3.97121 
-0.000590868 -0.00163223 0.00453932 

-0.152922 0.0756598 0.0323861 
-0.0498827 0.122547 -0.180611 
-0.0220253 -0.0114369 0.0330209 

-0.0146313 0.0126538 0.0203999 
0.000378658 0.00686061 -0.00497573 
0.00013689 0.00607388 -0.00251615 

-0.00476772 0.00299058 0.0153276 
-0.0027939 -0.008835 -0.00577001 
-0.000817788 0.000774971 0.0169201 

-0.00911746 -0.00465526 -0.0343572 
-0.00182964 0.00746954 -0.00140567 
0.000293029 -0.00216399 0.0256622 

-0.0694388 -0.287465 -0.959347 
-0.00111752 -0.292929 -0.402873 
-0.00519371 0.0806279 0.239775 

-0.0113514 -0.0137459 0.234734 
0.0287904 -0.00522511 0.132351 
-8.60365e-05 -5.08731e-05 0.0196616 

-0.0148489 -0.00209067 -0.00993616 
-0.00510879 -0.00433501 -0.0158377 
0.000344603 0.00145379 0.0192774 

-0.0471889 -0.0607668 -0.190585 
0.0430566 0.0501165 0.380194 
0.000528917 0.00418585 0.141099 

-0.0268747 0.0105111 0.0271535 
-0.0175631 0.0194134 0.0207539 
0.00302422 -0.0147631 0.0466074 

-0.00771796 0.0116078 0.00492537 
-0.00634941 0.00306324 0.00501245 
0.00067692 6.24029e-05 0.00887791 

-0.0797428 -0.0405341 -0.145349 
0.103663 0.00368522 0.141755 
0.0491812 -0.0601821 0.287093 

-0.355235 -0.199486 -0.775803 
0.085474 0.0514456 0.278524 
0.00445985 -0.00973218 0.187262 

-0.0208878 0.00374854 -0.179979 
-0.00505813 0.00211197 0.290085 
0.000664413 0.000292059 0.12958 

-0.0148616 -0.00793058 0.00452083 
0.00418045 0.00679731 -0.000252216 
0.00108769 -0.00101291 0.0160028 

-0.539667 0.208479 1.86937 
0.417018 0.356193 -0.175993 
-0.0162371 -0.0103122 -0.0248233 

-0.0159914 0.00362311 0.0201206 
-0.00132353 0.00181958 -0.00185107 
-0.000858165 -0.000609774 0.0221432 

0.0127723 0.295377 1.11102 
-0.181799 0.0380418 0.474223 
0.0111335 0.0229798 0.038222 

-0.0302602 0.00361207 -0.0687192 
-0.00784817 0.0117838 -0.0611514 
-0.0245667 -0.0196432 -0.0770581 

-0.0406123 -0.0038373 -0.262133 
0.027234 0.00353847 -0.0475808 
0.0127823 -0.0778106 0.878681 

-0.017812 0.024119 0.0185666 
-0.0178388 0.00425303 -0.0138401 
0.00192819 0.000171417 0.00347133 

-0.312672 0.201064 1.31122 
-0.217945 0.415188 1.32984 
-0.0232127 -0.0167911 -0.0132741 

-0.0159398 0.0260678 -0.0523753 
-0.0269506 0.00241637 0.0302954 
-0.000251698 -0.000305245 0.0298507 

-0.0596433 0.0294781 0.0143626 
0.0669773 0.041041 0.154314 
-0.0197431 -0.0307365 0.0220658 

-0.0305997 0.044401 -0.0988157 
-0.072545 0.00266467 -0.00497149 
0.0120682 -0.0172122 -0.0517625 

-0.0600871 0.149334 -0.204225 
-0.0549025 0.0403848 0.128186 
0.00258684 0.00243959 0.0358377 

-0.00540529 -0.00498612 0.0218981 
-0.00381842 -0.0056232 -0.00108551 
0.000860053 0.00110064 0.0376065 

-0.0101048 -0.00817268 0.100246 
0.0240312 0.00647066 0.107165 
0.0362686 0.018519 -0.169879 

-0.292522 0.0596995 0.869839 
-0.202388 0.23849 -0.446794 
0.0362998 -0.0152732 0.760949 

-0.000110141 0.0171519 -0.00407978 
-0.0218698 0.00520386 0.000978338 
-0.00453519 -0.000950155 -0.0261326 

-0.126511 -0.069498 0.478396 
-0.0500217 0.023134 0.176349 
-0.038519 0.0200438 0.133779 

-0.116161 2.48923 -6.04016 
-0.00116568 -0.0841226 -1.30279 
0.00957107 -0.0731437 0.150799 

-0.0221074 -0.0872053 0.281733 
0.0277232 -0.0720621 0.0678753 
-0.00432286 0.00272914 0.0314128 

-0.0179783 0.0280943 -0.0529159 
-0.0513816 -0.0191147 -0.0388833 
0.00488367 -0.00228358 0.0595674 

-0.0165216 0.0153387 0.252052 
-0.00493965 -0.00657409 0.680952 
-0.00118359 -0.00137349 0.0955827 

-0.0191614 -0.0815099 0.0112492 
0.0129949 0.00472496 -0.0841013 
0.0186151 0.0184669 0.251204 

-0.0311083 -0.0355424 -0.0211569 
-0.00537113 8.38338e-05 0.00535259 
-0.00809955 0.0181363 0.0675472 

-0.319985 0.0613215 -7.02537 
-0.434366 0.184366 -2.83466 
0.00214832 -0.002863 0.12099 

0.00825934 -0.0395682 0.21729 
-0.00925456 0.0103889 -0.0750074 
-0.00997689 0.00813051 0.0431556 

-0.0155632 0.0117829 0.0763608 
-0.00223149 0.0181762 -0.204468 
-0.00077572 -0.00307987 -0.0443591 

-0.0252875 0.112907 -0.276845 
0.00611279 -0.00774497 0.0472924 
0.00154957 -0.189553 0.146213 

-0.0166956 0.00194601 -0.0144351 
-0.00335993 0.00307804 -0.0232282 
-0.00111503 0.000162893 0.00908131 

-0.194937 -0.139472 0.00926626 
0.23138 0.180254 -0.130796 
-0.000571962 0.00189384 0.0631731 

-0.607603 0.330108 0.449913 
-0.0968716 0.451389 -0.720371 
-0.00140667 -0.000683434 0.0713031 

-0.00822762 -0.017687 0.0165049 
0.0101369 -0.00379251 -0.0222101 
0.000692178 -0.000466197 0.0102366 

-0.0048665 -0.00280374 -0.0709903 
0.00127213 0.000241639 0.0145462 
0.000270968 -0.000466096 0.0384504 

-0.0408767 -0.000160752 -0.145218 
-0.048857 -0.0132482 -0.041618 
-0.000314354 0.00912364 0.0983408 

-0.0160081 0.00218961 -0.0742096 
-0.0214595 9.52923e-05 -0.021318 
0.000984054 0.0015341 0.0546685 

-0.00200965 -0.0343245 -0.0295685 
0.0223759 -0.00173467 -0.0126623 
0.000361734 0.000932289 0.00722258 

-0.0216736 0.000119671 0.132953 
0.00724404 0.012212 -0.00406392 
0.011962 -0.0109124 -0.0228 

-0.0237071 0.0225476 -0.0666229 
-0.0445881 0.0102071 -0.0397127 
-0.00123289 0.000343108 0.0198193 

-0.0220507 0.0736446 -0.014314 
-0.0441678 0.000419745 0.00545276 
-0.000237685 -0.00126349 0.0391 

-0.0187561 0.000595091 -0.0830321 
-0.0135857 0.00674443 0.190977 
0.0080577 0.00570121 0.775177 

-0.0207045 0.00729438 0.00889408 
0.00434145 -0.00147792 -0.00804561 
-0.000271778 0.00201147 0.0440363 

-0.0263742 -0.0172412 -0.0252877 
0.00454967 0.00394448 -0.0195437 
-0.000815585 0.00149299 0.00815844 

-0.0229191 0.00599724 -0.309558 
0.0257914 -0.016496 -0.38367 
0.0145747 0.022402 0.0634738 

-0.0524384 -0.00348025 -0.574188 
-0.014865 0.0317996 -0.185826 
0.000244701 0.000639108 0.095718 

-0.0115533 0.0071543 -0.0121051 
-0.00310095 -0.00680114 -0.0105968 
0.00184273 0.000869278 0.0260086 

-0.0029775 -0.0177344 0.000393767 
0.0174654 0.00976189 -0.813614 
0.00621965 -0.00648783 0.169635 

0.00816452 0.071989 -0.0726279 
-0.0742962 -0.0165336 0.113911 
0.013204 -0.00793866 -0.0560839 

-0.0174206 0.0115801 -0.0371781 
-0.0123692 0.000959309 0.0350024 
-0.000352974 1.02581e-05 -0.00610541 

-0.00138267 -0.00569452 -0.0266641 
0.0167432 -0.0119336 -0.0685115 
0.0018793 -0.000197677 0.0171254 

-0.0139455 0.00886603 0.00622495 
0.000973473 0.002205 -0.0116077 
-0.000763885 0.0015136 0.0221712 

-0.0658467 0.0545805 0.0187339 
-0.00638186 0.0361228 -0.0273658 
-0.000407022 -0.00234439 0.0630567 

-0.0142989 -0.058298 -0.127167 
0.0594141 0.0160415 0.078788 
0.00913419 -0.0023868 -0.0925439 

-0.162901 -0.093458 0.0208412 
0.0946678 0.0312549 0.189262 
-0.016916 0.0122505 0.110901 

-0.0745934 0.0503623 -0.210184 
-0.00222517 -0.0108786 0.0577045 
0.00225368 0.00394518 0.156243 

-0.0185933 0.0038696 0.00799484 
-0.00589278 0.00917517 0.0198485 
-0.00240223 -0.00131018 0.0587359 

-0.068983 0.0140537 -0.120545 
-0.233808 -0.0102536 -0.0838323 
0.00244522 -0.00575593 0.0191203 

-0.0187077 0.00157187 -0.406233 
-0.000478657 0.00832716 -1.57428 
-0.000181924 5.31387e-05 0.341677 

-0.0139557 0.00507832 -0.107278 
7.17735e-05 0.0015414 0.0496176 
-0.000828173 -0.000793042 0.0218158 

0.0145149 -0.0473704 -0.115176 
-0.020263 0.00200135 -0.0154213 
0.0373253 -0.0410833 0.154338 

-0.00719268 -0.0381203 -0.0340264 
0.0405414 0.0274571 -0.167112 
4.68418e-05 0.000983721 0.0018221 

-0.0263591 -0.0703694 0.0141822 
0.053258 0.0180254 -0.073551 
0.0154751 0.0100261 0.143035 

-0.0274843 0.00508006 -0.0899196 
0.00131924 0.0138725 -1.29917 
-0.00282395 -0.00343498 -0.304716 

0.0974607 0.079641 0.206587 
-0.177833 -0.118061 0.306996 
0.0224196 0.0129298 0.465345 

-0.0271283 -0.357394 -0.127263 
0.166762 0.102874 0.0709878 
0.0340787 -0.0788763 0.212784 

-0.0349544 0.0318663 0.093418 
-0.0223938 0.0621987 -0.374425 
-0.0164874 0.0133565 0.548371 

-0.16058 0.0871827 0.268559 
-0.345594 0.0665498 0.48747 
0.00191023 0.00771554 0.0128169 

-0.0277376 0.0166658 0.120882 
0.0237632 0.0371353 0.066275 
-0.000120993 0.000223631 0.0151645 

-0.0220773 0.00300885 0.186918 
0.010271 0.0161317 -0.0104367 
-0.000237985 0.00147827 0.0146673 

-0.00977263 0.000429158 0.160205 
0.0804078 -0.0456249 -0.0735637 
-0.000505267 -0.00148239 0.0459464 

-0.00803677 0.00170346 0.0201675 
0.0141449 0.0120408 -0.0791263 
-0.00129122 0.000299908 -0.00335267 

-0.00843677 0.0225829 0.066641 
0.039967 0.0161395 -0.0274234 
0.00975492 -0.00470226 -0.0417152 

-0.00660457 0.0211278 -0.0264925 
-0.00973699 -0.00365686 0.0438897 
0.00813444 -0.0102836 0.0919765 

-0.0352987 -0.0671772 -0.128373 
0.0320943 0.0152637 0.042392 
0.0168558 -0.0508668 -0.298482 

0.0213725 0.0166525 -0.0251577 
-0.033043 0.00118514 0.0117578 
0.00331349 0.0022555 -0.00406417 

-0.0209059 -0.00220416 0.0240978 
-0.0111931 0.00313842 -0.00114925 
-0.0160597 0.00217518 0.0452385 

-0.0174315 0.0328405 -0.10778 
-0.0359745 0.00282533 -0.0565295 
-0.000360854 -0.00158389 0.0714435 

-0.0135901 -0.00955585 -0.0355385 
0.010482 0.00450436 0.054659 
0.000957614 -0.000830419 0.011517 

0.0174721 0.187451 0.0760418 
-0.194622 0.0331868 -0.00996927 
3.62831e-05 0.00641016 0.00290026 

-0.0539852 0.0658291 0.0125108 
-0.0796238 0.00454095 0.0602088 
0.00309785 0.0038304 0.0116794 

-0.0237092 0.0233553 0.0171133 
-0.0244321 0.00651008 -0.0619427 
-0.00205038 -0.000621824 0.0282852 

-0.0232182 -0.000340026 0.0825266 
-0.0163945 0.00641118 -0.163293 
-0.00088048 0.000148338 0.00759112 

-0.0245586 0.0087023 0.03892 
-0.0306009 0.0212262 0.0909904 
0.00801572 0.0304795 0.0261244 

-0.0171017 -0.0131583 -0.729921 
0.00219192 0.00873122 0.526197 
0.00683566 -0.00855425 0.102768 

-0.00496924 -0.0175859 -0.0184587 
0.0185248 0.0113204 -0.0522902 
-0.000368728 0.000801583 0.00676303 

-0.0157059 -0.00957719 -0.0297807 
0.00625419 -0.00158028 0.0814206 
0.0181056 0.00234127 0.0874274 

-0.0108207 0.0101955 -45.5456 
-0.00795737 0.0408753 23.2563 
-0.000763058 0.00363338 2.98316 

-0.016271 0.0042889 0.0494837 
0.0134595 0.00307213 0.0157733 
0.0076362 0.00803587 -0.0275576 

-0.188658 0.124033 0.797466 
-0.169445 0.277244 0.316315 
-0.00729254 0.0290913 0.486275 

0.00317731 -0.0173251 -0.0360459 
0.0292385 -0.0198177 -0.167527 
-0.00337799 0.0091042 0.13395 

-0.0148997 0.0127842 -0.154889 
-0.00788988 0.0205242 -0.240366 
0.000129401 0.000904348 0.0139078 

-0.116421 -0.225825 2.14595 
-0.145361 0.299696 -0.832264 
-0.013073 0.00925383 -0.305569 

-0.525842 -0.321355 6.56555 
0.258856 0.174505 -0.538565 
-0.0295218 0.0182189 0.448214 

-0.0415927 0.00444529 -3.10441 
0.0179131 0.00642469 1.61517 
0.0033249 0.00134165 0.565954 

-0.00166048 -0.0164462 -0.0376278 
0.00271131 -0.00880797 0.0155805 
0.00259201 -0.00930236 0.0572614 

-0.343206 0.254939 0.278603 
-0.404612 0.187847 -0.227591 
0.0290338 -0.0444426 0.291101 

-0.0217828 -0.0338492 -0.272687 
0.0238173 0.0413898 0.20736 
0.000847515 -0.00167515 -0.049584 

-0.00944797 -0.00818617 0.121035 
-0.00452894 0.00043771 0.0467482 
0.000798784 4.43425e-05 0.0196162 

-0.0189607 -0.0014887 -0.0158442 
0.0434282 -0.0112702 -0.00963746 
0.00146719 0.00395938 0.0227979 

-0.0515314 0.0222328 -0.0679816 
-0.0200656 0.0729069 -0.163864 
-0.00147968 0.00108278 0.0221816 

-0.00372699 -0.000221552 -0.00744586 
-0.0270447 0.000203437 0.00371213 
-0.000570477 -1.12162e-05 0.00618939 

-0.0182112 0.00482041 0.0231678 
0.00466678 0.00685481 -0.0168701 
0.000153076 0.000324639 0.00704101 

-0.0444549 -0.0139117 -0.0252569 
0.00688586 0.0254122 0.0343453 
-0.011791 0.0136237 0.0350492 

-0.0154521 0.00177481 0.0017278 
-0.00480583 0.00623219 -0.0564969 
-0.000215605 0.00016728 0.00616795 

-0.0130291 -0.0180793 -0.00899699 
0.029066 0.00747345 -0.0102978 
0.0132079 0.000648602 -0.11769 

-0.0463318 -0.0302429 0.191383 
-0.0504079 0.0308679 0.30485 
-0.000560388 0.00094663 0.021853 

-0.032169 -0.0500291 0.195328 
0.011283 0.0209428 -0.251677 
0.0126773 0.0105749 0.11479 

0.0217182 -0.0774807 0.0118034 
0.107582 0.0114988 -0.00524189 
-0.000723075 0.00168829 -0.0380482 

-0.00871829 0.0086609 -0.00639291 
0.00730328 0.0132099 -0.00838825 
0.00121107 0.00116115 0.0088684 

0.0289008 -0.724669 -0.911209 
0.812049 0.5653 0.666942 
0.0694886 0.00852802 0.868051 

-0.02324 -0.00572094 -0.0321896 
0.0141275 0.0031066 -0.000927745 
-0.00590242 -0.0417706 0.131586 

-0.0171577 0.00720654 0.042705 
-0.0060743 0.00751605 0.0199607 
-0.00118907 -0.000985474 0.019168 

-0.0475621 -0.00956935 -0.00783371 
0.0174256 0.0106785 0.010682 
0.00455474 0.00108848 0.0380393 

-0.0317329 -0.00464077 -0.399256 
0.0657263 0.0553398 -0.415417 
0.00120447 -0.00071909 0.0147199 

-0.119345 0.00343549 0.136611 
-0.0944247 0.020952 0.165321 
-0.0296331 -0.0134823 0.314844 

-0.0126132 -0.00486585 0.0190133 
-0.00662485 -0.00143753 0.010497 
-0.000840973 -0.000356063 0.0249225 

-0.0157594 0.00218709 -0.0246297 
-0.000772806 0.00894194 -0.238578 
0.000145308 -0.00010446 0.0648001 

-0.0154892 -0.013161 -0.00503497 
0.00847714 0.00427585 0.00944276 
0.0390211 -0.0152564 0.0231519 

-0.0313671 -0.0200359 0.035321 
0.0135568 0.00705223 -0.0136357 
-0.00151527 0.004435 0.0402325 

-0.0237189 -0.00514526 0.177377 
0.013628 0.0287067 0.225812 
0.00134972 0.00145794 0.0091915 

0.0385551 -0.426903 0.0884782 
0.402476 0.121014 -0.0295904 
-0.00623775 0.00364331 0.0197431 

0.0133913 -0.0292645 0.187876 
-0.0527049 0.0342294 0.10776 
-0.00115197 0.000466559 0.0255727 

-0.230139 -0.0376913 -0.827928 
-0.142512 0.168189 -0.543342 
0.0139956 0.037278 -0.127946 

0.0480202 -0.265859 -0.031213 
0.339243 0.0232489 0.212091 
0.00327903 0.00501606 -0.01046 

-0.0137347 0.00328809 -0.00662277 
0.00418561 0.00233032 0.0142683 
0.000484377 0.00169109 0.0216934 

-0.169192 0.0735982 -0.177029 
-0.075112 0.221271 1.63922 
-0.00988132 -0.0846285 -0.140084 

-0.0983517 0.0380966 0.685307 
-0.01591 0.110869 0.879747 
0.00199569 -0.00666547 0.0765649 

-0.0957936 -0.183888 0.159369 
0.107271 0.0069411 0.0600828 
0.00689615 0.00939879 0.121786 

-0.0183732 0.00757646 0.0906847 
-0.0198775 0.00127069 -0.0491406 
0.000459479 0.000106068 0.083713 

-0.101756 0.0467048 -0.0791121 
-0.0696505 0.0341453 0.0758624 
0.0156728 0.0998943 0.792195 

-0.0573949 -0.0171003 -0.080466 
0.0201448 0.0304135 0.129142 
-0.00652801 0.0158007 0.107719 

-0.0158894 -0.00456314 -0.0260403 
-0.00455167 0.00756624 0.00840796 
0.00734529 0.0103579 -0.0313276 

-0.00833451 0.0127211 0.055984 
0.00198881 0.00209972 -0.0560683 
0.0046841 0.00472958 -0.0528404 
