# vtk DataFile Version 3.0
Output file generated by Yade's KinematicLocalisationAnalyser
ASCII
DATASET UNSTRUCTURED_GRID

POINTS 13483 float
477.223 62.352 -0.414396
573.603 93.0773 0.442065
110.367 6.1091 -0.447906
596.174 9.14622 0.327644
427.599 8.30838 -0.377461
285.883 47.2356 0.5066
145.172 7.26619 0.450327
455.392 32.0756 0.146648
420.733 25.7039 -0.171965
547.704 16.4229 0.617577
193.298 9.29896 -0.114682
236.752 6.62837 0.29889
500.679 53.7397 0.143245
497.92 16.3487 -0.129233
126.89 18.738 0.497185
204.862 38.1395 -0.283959
200.467 13.1195 -0.306385
264.368 10.0637 0.462738
308.56 39.4108 0.425614
448.372 7.78313 0.508845
369.88 64.3762 0.0954911
470.796 80.8401 -0.261411
586.79 61.7026 -0.527624
532.191 80.387 0.501653
395.047 18.698 0.352675
221.579 50.0141 0.128926
403.442 35.3517 -0.588136
467.522 44.9096 -0.231627
42.409 16.9199 -0.526111
540.285 43.8993 -0.393805
413.743 4.46913 0.426543
14.683 24.96 -0.278651
580.61 79.7846 0.26101
425.464 2.22614 0.649915
72.7041 46.4113 -0.114504
417.581 41.5606 0.342589
453.177 16.9192 -0.481195
310.092 27.9416 -0.208652
426.479 44.1839 0.33511
319.055 41.3372 0.455369
222.528 14.9482 -0.331738
374.334 47.2638 0.0692281
524.905 29.3258 -0.162373
177.468 6.14213 0.438168
51.1662 7.18362 -0.107951
63.0994 8.95883 -0.247078
524.436 12.264 -0.611528
21.7252 12.2033 0.316681
492.657 89.9129 -0.107223
520.779 48.9694 0.3398
157.477 35.1068 -0.288919
563.504 83.291 -0.12256
32.0287 30.1465 -0.111464
457.923 2.56134 0.362099
131.688 7.26793 -0.508447
478.667 72.4551 0.374123
405.816 43.6172 -0.127354
162.504 1.02938 -0.30891
30.077 2.38718 0.348874
313.732 21.4996 0.402893
504.365 94.0425 -0.133978
397.774 40.8813 0.176263
345.951 0.996094 0.22463
532.947 7.78525 0.372362
23.3695 44.9551 0.246167
236.009 34.5786 -0.299649
549.17 9.36858 0.564783
509.422 86.5752 0.343223
362.51 9.66736 -0.653836
465.025 14.3039 -0.533362
556.962 68.4602 0.452875
121.171 7.86693 -0.259191
417.291 27.2373 -0.174994
409.464 13.5326 -0.423394
270.772 16.839 -0.349202
19.0564 14.1591 -0.299276
576.102 67.9289 0.31074
301.72 46.2534 -0.327729
521.795 45.4224 0.436681
526.058 20.9549 0.29563
582.966 31.5991 -0.375654
398.413 45.0534 0.168124
86.6288 41.2896 0.275374
525.232 88.4969 0.206259
495.09 67.5622 -0.122439
591.115 65.9962 0.156338
596.441 0.784708 -0.690331
268.021 31.6138 0.441932
490.203 6.77819 -0.181193
23.1795 6.30733 0.646045
121.233 40.947 -0.167278
440.493 15.329 0.299858
571.87 53.8014 -0.525553
180.333 30.9711 0.249119
40.6881 38.2768 -0.280429
424.307 1.14826 0.136857
217.815 9.19518 -0.451891
548.238 91.033 -0.261959
568.843 63.3719 0.270414
323.107 25.8043 0.292963
151.143 29.4607 -0.47392
434.496 66.0789 -0.449607
337.017 25.4916 -0.519908
368.444 52.2196 0.108872
336.148 7.80135 0.553234
436.991 29.2834 0.10672
594.14 24.9954 0.327749
74.9711 41.1317 -0.430603
304.942 6.58653 -0.442222
450.086 31.4078 -0.438998
325.907 55.4898 0.470662
22.7334 26.2805 -0.455506
28.5512 6.19602 0.417868
454.959 62.0012 0.411107
425.647 25.0614 -0.168495
22.7814 38.4215 0.433622
87.9825 33.0979 -0.2251
296.641 19.6417 -0.288847
478.829 33.7117 -0.119713
397.461 59.4266 0.157376
562.774 7.1687 -0.541969
555.593 8.02289 -0.340235
353.098 51.661 -0.103759
496.041 40.0998 -0.102788
220.645 17.6126 0.584545
302.082 5.98829 0.600676
97.1217 35.0425 -0.300333
107.703 25.0654 0.297963
429.843 64.9587 0.0762646
281.767 18.928 0.541024
527.705 56.9475 -0.110013
513.229 90.1102 0.103767
412.462 20.3517 -0.456255
561.964 35.8158 0.350556
366.097 31.0726 -0.23813
256.891 25.4448 0.333684
517.258 73.4029 -0.341563
258.074 30.7661 0.36532
464.39 36.6617 -0.239576
302.148 42.751 0.239746
435.152 12.6924 0.592922
336.486 42.2691 -0.0829443
373.703 20.0153 0.158451
290.911 54.2816 -0.449613
176.599 32.7884 0.1133
574.544 87.9639 -0.146306
591.782 27.0599 -0.263413
5.85794 12.3389 0.443591
373.768 26.8483 -0.483983
35.9356 24.4971 0.0736122
345.456 43.792 -0.461944
353.746 33.401 -0.30258
69.3316 12.4975 -0.470132
47.1784 38.5248 0.57688
210.092 15.1487 0.583345
479.445 46.6241 -0.433494
460.826 49.0556 -0.493703
68.3893 23.1728 -0.514197
534.846 77.2544 0.425468
586.111 3.79898 -0.58925
507.982 77.9049 0.453613
528.639 1.9 0.644734
440.776 53.6285 0.43656
472.098 81.8526 0.448131
443.915 19.0068 -0.473476
594.274 9.04097 0.357395
208.48 28.5196 0.133804
116.673 38.1094 -0.190261
229.784 6.80199 0.425562
87.0166 4.91881 -0.263941
59.544 10.5038 0.271556
255.975 39.4786 -0.415862
15.4835 26.6444 -0.400021
446.348 42.3426 -0.415023
493.719 84.9905 -0.200647
402.184 25.061 -0.429965
594.647 89.6819 0.345752
356.336 8.94401 -0.164366
374.28 39.8769 -0.465104
464.788 3.92872 -0.433767
20.8494 25.1058 0.416036
463.923 20.8624 0.43332
471.513 6.55857 0.624817
192.054 12.1285 0.529831
370.969 18.4898 -0.350262
289 6.35338 0.434611
346.885 27.7775 -0.408704
546.757 77.2078 0.108845
179.57 27.2023 -0.418538
577.552 22.5962 -0.329292
550.285 76.3806 0.310309
340.912 17.3968 -0.197092
548.28 2.43027 -0.511866
476.418 40.8519 -0.608784
567.705 17.7899 -0.629251
383.073 54.2755 -0.291077
430.467 13.475 0.518934
387.886 60.8288 -0.22368
389.123 11.8422 -0.211926
511.397 79.8436 0.253887
511.984 75.7575 -0.293309
178.902 41.8765 0.355767
580.768 31.4833 -0.21963
473.864 83.2765 0.241863
10.0268 17.9085 0.263702
360.875 34.92 0.364449
175.192 24.587 -0.452265
87.131 43.1256 -0.202331
569.962 52.061 -0.424787
502.16 81.5923 -0.295205
293.691 30.7508 0.352817
462.038 9.74513 0.383493
77.4589 46.3385 -0.19272
229.388 28.2514 -0.521628
446.677 48.1106 0.38142
422.243 18.9305 -0.614188
244.358 0.879442 -0.537838
443.467 69.8777 -0.370131
422.543 64.4306 -0.411976
407.861 64.0144 0.397669
434.566 2.14755 -0.662891
535.722 20.6775 0.447742
168.34 13.1505 -0.255157
424.272 72.6416 0.41635
454.157 69.7844 0.112584
68.923 0.924327 0.348659
235.02 5.19122 0.195178
591.297 30.5228 0.239489
582.968 33.6055 -0.466252
596.157 30.3556 -0.665997
281.796 8.64059 -0.252827
548.91 42.867 -0.505907
371.365 69.6665 -0.214489
389.546 0.852646 0.652505
501.143 68.2913 -0.50299
23.8591 32.0386 0.309144
304.239 48.7797 0.467691
235.719 3.36749 0.440685
582.283 75.7108 0.167252
537.899 70.9797 0.248347
266.862 11.3839 0.321937
509.398 66.0806 -0.0720458
474.283 5.66035 -0.329226
468.966 11.3485 0.455506
90.5217 18.9237 0.526246
281.681 1.04445 -0.25382
312.807 3.22599 0.541921
13.4546 7.65163 0.481429
4.8375 34.0342 0.232025
152.141 20.1231 0.389
64.2935 44.5268 0.235244
60.7521 31.7101 0.314544
370.578 15.553 -0.605466
338.236 48.3595 -0.501625
560.565 87.9085 -0.114314
19.0975 4.11692 -0.27294
66.2968 7.21081 0.11837
485.694 52.7277 -0.160317
273.34 0.911317 0.4246
327.497 20.3568 -0.0944137
220.203 5.07865 0.421634
505.118 38.7601 0.189655
392.495 10.9524 0.451045
569.647 27.1883 -0.458982
497.196 43.063 -0.338212
520.918 43.7412 -0.0884964
369.516 40.4807 0.536057
93.6951 50.9175 -0.303428
432.379 69.3818 -0.0852321
566.551 12.6176 0.411041
222.315 33.4475 0.240854
29.9361 19.0178 0.19487
308.492 16.6192 0.64702
99.6294 46.9688 0.473384
251.325 45.4202 0.193489
373.942 2.55312 -0.215772
572.567 57.7592 0.468196
522.586 4.87003 0.61526
305.204 5.36824 0.703878
279.059 30.8302 0.159154
390.036 58.0502 -0.219955
76.3741 9.48532 -0.550554
184.878 48.0569 -0.396478
568.012 68.4008 0.3972
418.808 73.8616 0.0635609
187.181 43.8269 -0.310556
148.622 45.6483 0.399473
597.484 57.972 0.445582
593.413 26.3764 -0.583364
483.172 6.02508 -0.644736
178.132 26.1014 0.109933
442.588 54.1187 0.0992003
445.174 56.4364 0.266499
360.764 6.00338 -0.12478
419.489 0.911381 0.452066
561.623 93.0545 -0.505049
80.624 32.6944 -0.225356
508.735 38.4412 -0.481835
255.359 16.8997 -0.403737
9.01403 2.38424 -0.328141
115.686 39.9773 0.210697
60.4972 25.1209 0.483012
524.441 67.1667 0.313214
589.096 83.5536 -0.16864
174.547 32.002 0.193833
591.225 33.3342 -0.450126
41.6204 40.5119 0.242141
86.8725 31.4995 0.161533
505.316 17.5222 0.474318
364.489 18.4085 -0.569433
451.304 16.862 -0.146722
221.915 31.5242 -0.193893
496.872 4.67958 -0.609938
596.163 25.256 0.451062
27.032 33.1714 -0.261921
250.924 8.90963 -0.188575
207.815 16.0003 0.29143
1.09275 39.3718 -0.155669
210.998 15.8311 -0.450717
198.108 11.3154 -0.157393
201.315 27.5409 -0.303267
123.27 30.8993 -0.131051
442.17 36.756 -0.298199
157.126 15.5574 -0.346888
578.172 80.4116 0.26331
164.334 4.34427 0.580767
43.1715 43.2763 -0.357265
540.421 84.9027 -0.480689
262.313 34.8708 -0.388311
526.246 49.5592 0.469384
577.559 60.0741 -0.533194
279.951 9.33999 0.168787
547.515 55.2539 -0.356785
303.627 2.94554 0.596394
362.99 28.4731 0.422076
527.687 43.7022 0.505302
98.9023 12.0717 -0.549646
421.546 3.66108 -0.557066
557.371 33.4481 0.179313
82.1804 7.99377 0.310946
262.668 15.3925 0.21132
371.736 13.9722 -0.315091
594.096 12.9389 0.647809
351.115 1.66247 -0.592116
164.493 42.1481 0.354511
569.194 10.1792 -0.526493
118.629 39.0532 0.218958
245.651 33.8013 -0.406017
357.311 31.1741 0.242242
464.939 39.7001 0.483029
345.002 14.4434 -0.624515
396.772 33.1021 -0.429054
573.138 91.6005 0.373381
44.9435 12.3232 -0.130487
278.041 42.5374 -0.26518
345.584 37.0171 -0.401819
360.607 21.678 -0.309476
411.497 57.938 0.365004
555.002 93.1354 0.230305
517.105 79.491 -0.0749129
212.578 39.5932 -0.429836
10.5203 35.3462 0.161362
510.461 74.4173 0.139682
434.997 76.2053 0.364664
216.405 44.0993 0.117602
519.068 74.3054 0.113179
142.439 9.46953 0.254051
329.527 28.225 0.287943
389.885 60.0985 -0.132243
364.382 20.232 -0.290092
572.032 97.039 0.291084
374.785 5.43332 0.620816
46.1538 29.142 -0.329069
402.159 54.6628 0.360366
375.448 45.4829 -0.181249
577.795 72.9466 0.245087
544.696 47.7067 0.259636
436.244 40.0555 -0.152408
570.79 81.694 -0.517848
273.063 2.17282 -0.49591
348.385 42.1687 0.455602
25.7155 40.3333 0.34102
553.989 60.5477 0.146822
488.642 25.2924 -0.688776
402.579 0.744198 -0.562772
118.251 4.8002 0.346492
381.592 55.6647 -0.121255
11.3703 0.903223 0.317046
591.829 14.1614 0.150734
341.623 54.5135 -0.432139
487.494 8.87201 0.697517
[...]
POINT_DATA 13483
TENSORS Strain_matrix float
0.0156145 0.108698 0.696827 
-0.0155733 0.0466386 0.841204 
-0.000795761 -0.00310956 -0.0139481 

-0.0899419 -0.0435275 -2.57138 
0.0138144 -0.000665497 0.330074 
0.0177775 -0.0200012 -0.805912 

-0.0124554 0.00261377 -0.0594872 
0.000495567 0.00274249 -0.0337685 
0.00069634 0.000108831 0.00575491 

-0.0584619 -0.057205 -0.146546 
0.0524747 0.140443 0.0794687 
0.0349809 0.023366 -0.098656 

-0.0211884 -0.0107933 0.00897747 
0.0226947 0.00715368 0.0194412 
0.00371812 0.00174917 0.0105716 

-0.0612674 -0.35233 -0.877185 
0.352779 0.148052 -0.379302 
-0.0587677 -0.028174 0.475642 

-0.00296967 0.00135369 0.00364869 
0.00692142 -0.00337136 -0.0116523 
-0.00104279 -0.000787965 0.01211 

-0.000195066 0.0164303 -0.0159294 
0.00760013 -0.00109163 -0.00621351 
-0.000271483 0.00293182 -0.00506407 

-0.136816 -0.243191 -0.651793 
-0.0167116 -0.00600698 -0.232319 
-0.00982394 -0.00028526 -0.0204272 

-0.00545606 0.00935947 0.00215767 
-0.0115909 -0.00253618 0.0739539 
-0.000221244 0.000578403 0.00381743 

-0.0325665 0.0456742 -0.00599337 
-0.0921563 0.0957004 -0.00808774 
-0.0128203 0.0392288 0.140345 

-0.132261 -0.00148626 -0.752764 
-0.0464919 0.0822638 -0.858006 
0.00910758 -0.0175243 0.223984 

-0.0288655 -0.173891 -0.00968852 
0.16658 0.113652 0.449829 
-0.00121968 -0.00817889 0.0278281 

-0.000690158 0.0264095 -0.00562191 
-0.0321034 0.0119874 -0.0361639 
0.00109635 0.00367114 -0.0244518 

-0.000757545 -0.0493652 0.0679648 
0.0358716 -0.000425978 0.0784222 
-0.00242887 0.00208232 0.0511538 

-0.00274537 -0.0436664 0.00449378 
0.0913255 0.0318685 -0.000839098 
0.000102349 0.00199386 -0.0283126 

-0.0208163 -0.0079744 -0.0282002 
0.00983986 0.00265007 0.0554785 
0.0140251 0.00898938 0.0291178 

-0.0365352 0.0495828 -0.0725206 
-0.0301405 -0.014205 -0.0332352 
0.00457771 0.00157395 0.0845107 

0.109328 0.110417 -0.188821 
-0.0252532 -0.037375 0.351214 
-0.00587851 0.00315106 -0.0855373 

-0.0782288 0.0470703 0.310039 
0.0114782 0.00647699 1.20372 
-0.00441184 0.00754031 0.119945 

0.0500107 0.277972 0.012765 
-0.307416 0.0389332 -0.0344643 
0.000201448 0.00401378 -0.0260185 

0.0147955 -0.0847159 0.083994 
0.0675523 -0.00195574 0.00432875 
0.0486366 -0.0736508 0.277577 

0.0161233 -0.010317 0.623169 
0.0778817 -0.019985 -0.548844 
0.0048511 -0.00140399 0.0244454 

0.0381116 0.150985 5.86025 
-0.0170676 0.0245512 4.61219 
-0.00659151 0.0141879 0.0183026 

-0.00363893 0.0116498 -0.0187652 
-0.00376405 -0.00230108 0.0123643 
-0.00157785 -0.000617293 -0.00885051 

-0.200314 -0.0641243 0.481174 
0.0333744 0.160537 -0.268234 
-0.0427669 -0.0261138 0.572805 

-0.0685441 -0.0899352 -2.04862 
-0.0012995 0.0249787 2.63964 
0.000174105 -0.000119719 0.136696 

-0.043094 0.0928325 0.487364 
-0.005828 0.0579787 0.182478 
-0.00207313 -0.00169549 0.0250444 

-0.0485932 0.0184986 0.711441 
-0.00487013 0.0610296 -0.270526 
-0.0189583 -0.0115091 -0.107131 

-0.350996 -0.0221179 -0.181171 
0.166632 0.296976 0.81353 
0.0422091 0.00412882 0.124169 

-0.00898877 -0.0324012 0.00736599 
0.0188862 -0.0166228 -0.0107185 
-0.0034419 0.00482076 0.0277176 

0.0677254 0.0372073 -0.152761 
-0.18969 -0.0709583 0.473296 
-0.00995313 0.00138694 -0.0588168 

0.0481123 0.197819 0.504574 
-0.175225 0.0110411 0.373728 
0.00718894 0.00716332 -0.0431251 

-0.0207085 -0.0064493 -0.0465103 
0.00928286 -0.00428566 -0.105346 
-0.00172754 -0.000532488 -0.0190344 

-0.0219518 0.0093201 0.0279142 
-0.013576 0.00908399 -0.00915016 
-0.000570165 -0.00214823 0.0312107 

-0.151836 -0.104781 -0.775386 
0.205266 0.166106 -1.07004 
7.05488e-05 0.00585979 0.0702796 

-0.0279468 -0.0731439 -0.0400311 
-0.0295424 0.0216691 -0.341931 
-0.0271092 -0.0274121 0.0124133 

-0.0609243 -0.0609754 0.116683 
0.0016292 0.0161405 0.169126 
0.0169784 0.00951845 0.0446181 

-0.307121 -0.0909307 -0.258169 
-0.034452 0.242796 -0.246871 
0.0112658 -0.0584476 0.288811 

0.0317178 0.0525572 -6.00233 
0.255414 -0.0530977 2.59671 
0.000318137 -0.00188828 0.321008 

-0.0888574 -0.078918 0.79402 
0.145206 0.0954344 -0.389086 
-0.0326179 0.0150073 0.19675 

-0.397347 0.67308 0.115083 
-0.698879 0.441118 -1.63307 
-0.0309795 0.00280927 0.51364 

-0.00610386 -0.102204 0.0285663 
0.0393768 0.026069 0.000877566 
0.00523115 -0.004595 -0.0338948 

-0.276089 0.167139 -0.280955 
-0.189688 0.117212 -0.253693 
-0.00801153 -0.11231 0.645273 

-0.00664098 0.00468702 -0.051094 
0.0140119 0.00242285 0.0135635 
0.00159311 0.00192491 -0.000194994 

0.000105253 -0.0333444 -0.11265 
0.0183671 0.0150999 0.140013 
0.00448992 0.00075722 0.0737108 

0.00445093 0.0543948 -0.188513 
-0.0412846 -0.0520814 0.0982546 
0.000140148 -0.0173971 0.073312 

0.0156731 -0.0554387 -0.00432474 
0.0571634 -0.0182548 -0.0152933 
0.00159789 0.000928597 0.00133604 

-0.01805 -0.0643448 0.0723595 
0.0494081 0.0477038 -0.10437 
0.018129 0.0234646 0.317514 

-0.00332376 -0.0787008 0.0279265 
0.0883051 0.00922069 0.00604729 
0.0014291 -0.00129269 -0.00546223 

0.013506 -0.0475224 0.0201537 
0.0195046 0.00991981 -0.0106355 
-0.00112444 0.000450915 -0.0423285 

-0.079182 0.0231614 0.197321 
0.0383685 0.0357145 -0.95291 
-0.000550328 -0.00185138 -0.0511523 

-0.00301247 0.0219727 0.0838904 
-0.0421083 0.0112493 -0.128331 
-0.0282286 -0.00180786 0.0686258 

-0.0222237 -0.0258502 -0.0426543 
0.0231321 -0.00430229 -0.0211355 
0.00326376 0.000414001 0.0288199 

-0.014488 -0.00559917 -0.0250009 
0.00369683 -0.000371242 0.00928962 
0.000321142 0.000891532 0.0131117 

-0.0577846 -0.0125257 -0.315647 
-0.0327919 0.0346968 0.0213563 
0.00655781 0.0056178 -0.0167946 

-0.401585 0.0904116 -1.0857 
-0.358526 0.324294 -1.25788 
-0.0328352 -0.00974354 0.120632 

-0.0478406 0.649119 0.849944 
0.0202541 -0.00395552 -0.42824 
-0.0078045 -0.00285815 0.171396 

-0.0540763 0.0656135 0.052961 
-0.0340155 0.04993 0.0995952 
-0.0203044 -0.00704839 0.141194 

-0.165882 -0.0876923 0.877953 
0.0374072 0.141744 0.0307866 
0.0291935 -0.0325707 0.326208 

-0.029391 -0.00556862 -0.0656929 
0.0385918 0.039897 -0.0751771 
-0.0015889 0.00840878 0.0983266 

-0.0503481 0.0088259 -0.00944607 
-0.00201897 0.0944101 -0.0697025 
0.00204468 -0.000429356 0.10144 

-0.172396 -1.76135 1.51391 
-0.100461 0.0831593 0.912085 
-0.0144869 0.0402066 0.086046 

-0.022581 0.00370808 -0.080555 
-0.0337042 0.0127979 0.0849014 
0.00690843 -0.000244438 0.0973194 

-0.155077 0.0699684 0.61506 
0.0392585 0.0978405 0.0877858 
0.0116802 0.00233557 -0.0130994 

-0.0854573 0.122195 0.249272 
-0.13855 0.128268 0.797359 
0.00913363 -0.00365862 0.0299797 

-0.012346 -0.00716542 0.0350931 
-0.000768647 0.00050615 0.0340158 
-0.00258336 -0.00248297 -0.0220708 

-0.0269338 -0.0148943 -0.118789 
0.0557742 0.0278439 0.00530384 
0.00774156 0.00948098 -0.0762768 

-0.0501361 0.0528655 -2.03541 
-0.0901854 0.0444259 -0.483946 
0.0053933 -0.000744271 0.290678 

-0.0994312 -0.783657 -0.911085 
0.193104 0.282959 0.224805 
9.57433e-05 0.00610679 -0.0578536 

-0.106949 0.0908 -0.837307 
0.0118776 0.0498541 -0.159634 
0.00223443 0.00424808 0.175048 

-0.0085616 0.00421825 0.012603 
-0.00152291 -0.00492135 -0.0112928 
-0.000910692 -0.000917388 0.0221914 

-0.0654434 -0.18925 0.138021 
0.131658 0.114865 -0.050871 
0.00393882 0.00537022 -0.0226869 

-0.134233 -0.0224413 -0.422223 
-0.0340694 -0.0241918 0.360825 
-0.00397665 0.0312642 0.214619 

-0.0630212 0.0352833 0.712853 
-0.0390344 0.0580206 -0.395229 
-0.00704598 0.00781029 0.047578 

0.0197665 -0.0533564 -0.012214 
0.0251379 -0.00415204 0.0627929 
0.00170742 -0.0014828 -0.018296 

-0.0585734 -0.0594679 -0.650775 
-0.109691 0.0778202 -0.0222634 
0.00866719 0.0247524 -0.153398 

-0.0438386 0.17155 -0.417685 
-0.303993 0.0838554 -1.3863 
0.0282627 0.00848469 0.0459129 

0.0046852 -0.083554 -0.0129123 
0.0894348 0.00572628 -0.00279597 
0.0011869 0.000134492 0.00373141 

-0.111303 0.146379 1.27757 
-0.0875053 0.124056 -0.208142 
-0.029456 0.0105844 -0.0789412 

-0.00145497 0.00428814 -0.0204348 
0.0312059 -0.00202817 0.0713958 
0.00442337 0.00100044 0.016963 

0.0794209 -0.0354709 -0.378499 
0.171828 -0.00220837 -0.398539 
-0.00677143 -0.00215476 0.134567 

0.00327265 -0.0708383 0.065907 
0.0837832 0.0141824 0.19829 
-0.000245885 -0.000251941 -0.0194044 

0.0771967 -0.0351697 0.12444 
-0.131596 -0.0163894 -0.0386874 
-0.00125373 0.000435822 -0.0100946 

0.00802636 -0.0180472 0.000523893 
0.0625499 -0.000642419 -0.0325521 
0.00144037 -0.00111405 -0.0228785 

0.0390374 0.093111 -0.470179 
-0.0326485 -0.0319717 0.00530623 
0.00603553 -0.00173193 0.0744665 

-0.462855 0.47564 10.2552 
-0.080329 0.274071 1.54377 
-0.00781785 0.0358129 0.645072 

-0.0308143 0.144397 -0.081168 
-0.0434277 -0.0309997 0.179224 
-0.00179463 -0.00492074 0.0250594 

-0.0171925 -0.0135147 -0.0331156 
-0.0351726 0.0210508 -0.0251852 
0.00496812 -0.00998729 -0.00773432 

-0.0474286 -0.0146713 3.90541 
0.019137 -0.00975567 2.32994 
-0.00317037 -0.0103849 -0.0773382 

-0.0127975 0.0471493 0.0338997 
-0.0396637 0.00258167 -0.0275996 
0.0107964 0.0262442 0.0686708 

-0.0525117 0.038652 -0.0939009 
-0.0479073 -0.010054 -0.0149281 
-0.00100529 0.00784771 0.044594 

-0.061053 0.040748 0.0322843 
-0.010478 0.0284492 0.826279 
-0.000511043 -0.000340237 0.12651 

0.02004 -0.0177981 -0.0326773 
0.0422284 -0.0309785 0.0702611 
0.0023696 -0.00238544 0.00322383 

-0.00768506 0.0116974 -0.0401093 
-0.0120635 -0.000663937 0.0124751 
0.000260107 0.00219115 0.0250042 

-0.0148792 -0.00167609 -0.0153254 
0.00574129 0.0114615 0.0187692 
0.000437367 0.00605213 0.0381623 

-0.0154447 0.0194417 0.0780911 
0.0114604 -0.0125486 0.125307 
-0.00154049 -0.000807565 0.146737 

0.00712145 0.0205105 0.00971289 
-0.0136256 -0.000778958 0.0137204 
0.000118033 0.000625738 -0.0135194 

-0.145329 0.130126 0.306239 
-0.0966183 0.165176 0.427564 
-0.0019006 0.00016956 -0.0103374 

-0.371201 -0.0170384 -0.0306691 
-0.0626331 0.293134 -0.182283 
-0.000785262 -0.00358728 0.0998905 

-0.0212676 -0.123644 -1.41474 
0.0692294 0.0587384 -0.0444647 
0.00172009 -0.00134761 -0.0019272 

-0.00489655 0.0794869 -0.587924 
-0.0594633 -0.0134861 0.239348 
0.00233196 -0.000388244 -0.0312215 

-0.0874062 -0.0138847 -0.820034 
0.137081 0.107417 1.9456 
-0.00034714 0.00588312 0.41862 

-0.629806 1.05888 -0.54211 
-0.965046 0.885179 -0.190932 
0.0226031 0.0678702 0.222628 

-0.433899 -0.150801 1.48892 
0.219323 0.356278 1.08252 
-0.0802207 -0.000682831 1.25962 

-0.232387 -0.262419 0.602734 
0.0870713 0.223318 1.06688 
0.00507341 -0.00138297 -0.00106233 

0.00480137 0.0385895 -0.015047 
-0.0343777 0.0216526 0.0103062 
-0.00400223 -0.0051646 -0.0139498 

-0.0145418 -0.0106713 -0.204135 
-0.00432618 0.00175467 -0.102825 
-0.00137386 0.000328178 0.0486455 

-0.234739 -0.0804739 -0.188502 
0.29603 0.11549 0.683538 
-0.0134704 0.0456778 0.138643 

-0.0299561 0.0408377 0.369017 
-0.00970844 0.0232867 -0.383071 
0.0044891 0.000335551 0.148179 

-0.0721263 -0.0135669 0.364191 
0.0397567 0.753119 11.6991 
0.00116063 -0.000918936 -0.154669 

0.0733899 0.0959991 0.210578 
0.00743818 -0.0571109 0.110897 
-0.00402367 -0.00384507 -0.0823147 

-0.100105 0.0880874 -0.117654 
-0.0901853 0.0822778 0.399235 
-0.0102438 -0.0168676 -0.0445068 

0.050913 0.0710327 0.230417 
0.0237075 -0.0489439 0.190804 
-0.0129214 -0.0172942 -0.114299 

0.0391427 -0.215671 -0.182521 
0.228916 0.10093 -0.194583 
0.0185881 0.00979271 0.101201 

-0.0391967 -0.0273264 0.852891 
0.042155 0.0131852 -0.173986 
0.00471784 -0.00622424 0.0674752 

0.0244685 0.0331583 -0.203775 
0.170631 -0.0156263 0.25844 
-0.00115267 0.0003692 -0.0402652 

-0.184074 0.0393179 -0.610196 
-0.00315089 0.157079 -0.32686 
0.0468978 0.0370157 0.263956 

-0.0435542 0.0571231 0.0784188 
0.109345 0.0521631 0.147409 
-0.00117935 0.000981368 -0.06846 

0.0188822 -0.176974 -0.153789 
0.19862 0.0237464 0.225257 
0.00027736 0.000444842 0.0331264 

-0.0081274 -0.118948 -0.0233424 
-0.118948 -0.00120674 0.052739 
-0.0769284 0.130596 0.247505 

-0.0184106 -0.0280111 -0.0182025 
0.00827227 0.0064606 -0.00091118 
-0.000462303 -0.00140829 0.0106227 

-0.0101429 -0.0698473 -0.00420678 
0.0531038 0.0239952 -0.003175 
0.0157157 0.0398576 0.528543 

0.133529 0.312212 0.440908 
-0.305619 -0.0782909 -0.349889 
-0.00423757 0.00151417 -0.0174593 

-0.0713286 -0.138202 -0.114841 
0.159312 0.102634 2.39852 
0.035501 -0.0126269 0.231453 

-0.130534 0.0338202 0.109437 
-0.236049 -0.133194 -0.172006 
0.0117907 0.0142133 0.25478 

-0.126267 0.0766422 1.41389 
0.0405888 0.125319 0.0828462 
-0.00551158 -0.00606657 -0.0783127 

-0.0333925 -0.0526772 0.208954 
-0.0774439 -0.0939113 0.36257 
-0.0179951 -0.0137898 0.0865343 

0.00756761 0.0452768 0.0940793 
-0.045476 -0.00522376 -0.0593781 
-0.0249339 0.0394545 0.178801 

-0.28691 -0.0994995 0.78114 
0.213971 0.26554 -0.57883 
0.0366292 0.0337695 0.0147969 

-0.00493471 -0.0796122 0.0327321 
0.0952415 0.0113983 -0.0243514 
-0.00235624 0.00121791 0.00361597 

0.00672764 -0.0167956 0.0368961 
0.0648851 -0.0189981 -0.0207512 
0.049665 0.0586378 0.202772 

-0.0859861 -0.0255129 -0.768068 
-0.0874755 0.0227112 0.0378019 
-0.00325545 -0.0148317 -0.104527 

0.0164357 -0.00976682 0.0170001 
0.00114857 -0.0157211 -0.00625581 
-0.00202633 -0.0023716 0.00915061 

-0.295292 0.00798962 -1.06522 
-0.130524 0.192964 -0.750357 
-0.008283 -0.00662057 0.175306 

-0.0413172 0.0640156 0.0652985 
-0.0331954 0.0177795 -0.360162 
-0.000685484 0.000458757 -0.0330307 

-0.229056 -0.0962696 0.311474 
-0.109801 0.214152 -0.124689 
-0.0228629 0.0171411 -0.00417619 

-0.0123247 0.0460233 -0.120994 
-0.0423861 0.00596453 -0.307027 
0.000669623 -0.000341353 0.00641831 

0.00807169 -0.00389857 -0.0160883 
-0.0058128 0.00242872 -0.0140027 
0.00212011 -0.000383937 -0.0303946 

-0.0137405 0.107483 0.505094 
-0.281663 -0.0237217 0.838098 
-0.021863 0.0205138 0.154807 

-0.0335483 -0.0512954 -0.0940158 
0.044939 0.0413166 -0.362335 
0.00574824 0.00841029 0.165033 

-0.592456 0.511984 1.70405 
0.0591411 0.352853 -0.384804 
-0.000637138 0.00180129 -0.0129737 

-0.0159383 -0.0660809 0.05689 
0.0920982 0.00414443 -0.105412 
-0.00716878 0.0044229 0.0326187 

-0.0943876 0.353963 -6.26221 
0.0423995 -0.0195781 3.71758 
-0.00120147 0.0236758 -0.425837 

-0.0015533 -0.0322201 -0.00104677 
0.0232213 0.00715469 -0.0204426 
-0.0013161 -0.00123751 0.00111353 

0.00835917 0.0988993 -0.0720744 
-0.141576 -0.0234732 0.0155026 
0.0201798 0.0385965 0.223952 

0.0059815 0.011503 0.000266246 
-0.0306999 0.00289835 0.00481006 
0.00136253 -0.000458924 -0.00262491 

-0.0487767 -0.0662802 -0.608986 
0.0327767 0.0262652 -0.00498635 
0.00847741 0.0348016 -0.131454 

-0.0210916 -0.0531909 0.0541322 
0.0126393 -0.0289693 -0.0201921 
0.00133526 -0.00156817 0.15254 

0.00309092 -0.0428624 0.0708549 
0.0411672 0.00461602 -0.0315069 
-0.00206545 0.000162778 0.00591765 

-0.0402954 0.249278 2.97501 
-0.0281354 0.140278 1.19194 
0.00934973 -0.0187309 0.228523 

-0.287023 -0.0675435 -1.80472 
0.0212973 0.292417 0.840001 
0.0252234 0.0111003 -0.127855 

0.0054656 0.00465092 -0.0655976 
-0.00350996 -0.00209754 -0.0292428 
0.0012344 -0.00148118 -0.000415642 

0.00132708 -0.343349 -67.9233 
-0.0076942 0.033169 -0.747028 
0.00146202 -0.0123776 -1.45853 

-0.0360661 -0.0126741 0.218827 
0.0136864 0.0169195 2.19401 
-0.000314335 0.00124894 0.320156 

-0.0108777 -0.0819104 0.0352224 
0.0906324 -0.00338932 0.0127185 
-0.00412602 -0.00205748 0.0105497 

0.0031433 -0.0199212 0.341412 
-0.00681528 -0.0247035 0.398049 
0.0124819 0.00138902 0.127193 

0.0120791 0.0351292 -0.614227 
0.00174439 -0.00957447 -0.0459436 
0.00126257 0.000200958 0.107949 

0.0349714 0.00578091 0.555001 
-0.024823 -0.0467407 0.752404 
0.00765682 0.014547 0.00887211 

0.00460386 -0.176699 0.212407 
0.206172 0.0165361 -0.289903 
-0.0035933 -0.0114863 0.0334762 

-0.00811341 0.0109973 -0.328463 
0.0633166 -0.0103934 -1.10716 
0.0023558 0.00355328 0.0231607 

-0.044501 -0.054879 0.221973 
0.00272864 0.0233049 0.0161921 
0.00172779 -0.0928522 0.0668656 

-0.00179299 -0.0639871 1.20624 
-0.0297918 0.00613625 -0.698584 
-0.010714 0.00631905 -0.0614052 

-0.0424075 0.0485596 0.516841 
0.0587969 -0.0105394 -0.649345 
-0.00126073 0.014264 0.0612033 

-0.201538 -0.232232 2.98598 
0.191414 0.174002 0.729502 
-0.0144958 -0.0308444 -0.0328222 

-0.0380575 -0.0224342 0.0899383 
-0.0551569 0.0749856 0.274777 
-0.0151272 -0.0162997 0.0488755 

-0.074534 0.0806066 -0.0101934 
-0.122828 0.0636242 0.108753 
0.0330673 0.0315816 0.186145 

-0.141042 0.0616687 -0.0590536 
0.0875846 0.109724 0.298164 
-0.00252661 0.0362285 0.0997587 

-0.0297863 -0.0841855 -0.0107178 
0.101484 0.00712746 -0.116337 
-0.00192626 -0.00900278 0.0340951 

-0.00671486 -0.00189703 0.0134903 
-0.00395201 -0.00169015 0.0114093 
0.000185187 -0.000233242 0.00750712 

-0.0762934 -0.0774336 0.357707 
-0.0268631 0.10173 -0.342605 
-0.00895587 -0.0102031 0.0731629 

-0.00707001 0.0408674 -0.019906 
-0.0349826 0.0039826 0.191934 
0.0155899 -0.0206671 -0.0195954 

-0.122593 0.284175 0.863636 
-0.158645 0.0246463 0.628209 
-0.0179364 -0.0219409 -0.0649011 

-0.000275422 0.0599353 0.0321965 
-0.0386661 -0.00603336 0.147601 
0.00099584 -0.00129473 0.0174899 

-0.0113506 -0.0283395 0.0171008 
0.0356127 0.0125618 -0.000425134 
-0.00669703 0.00810804 0.0370002 

-0.0472825 -0.134335 -0.193926 
0.022508 0.0662938 0.312963 
0.00613919 0.000578725 0.130666 

-0.0352244 -0.040346 0.299129 
-0.116951 0.0562002 -0.187721 
-3.44284e-06 -0.0247958 0.0902069 

0.0235883 0.044861 -0.00335503 
-0.0313948 -0.0163042 -0.00803055 
-0.000104543 -0.00295255 -0.0053368 

-0.069427 -0.118691 -0.112059 
0.0270979 0.0624518 -0.246254 
0.0135532 -0.027303 0.0360388 

-0.150684 -0.0399797 0.181416 
0.019514 0.048525 0.00157271 
-0.0108552 -0.00717142 0.158429 

-0.0247546 0.0963584 0.979258 
0.0279442 0.00379635 -0.0167664 
0.00338957 -0.00563776 0.0384463 

-0.0488433 0.0069993 1.02245 
0.00898699 0.198934 0.642864 
-0.00175501 0.0036768 0.00326118 

-0.144553 -0.0923965 -0.0409064 
0.0529646 0.0579673 0.802805 
0.0142128 -0.00962072 -0.00986186 

-0.0465337 0.0567664 0.665137 
-0.129174 0.0551619 -0.840847 
0.0343925 0.00723955 0.0343826 

-0.0453953 0.0235913 0.0144018 
0.0494153 -0.0218039 -0.0564567 
0.00378087 -0.00761136 0.0495082 

-0.0679164 -0.10233 -0.0990351 
0.117415 -0.0433625 0.179914 
0.00131994 0.00415641 0.168159 

0.0313113 0.10356 0.0242191 
-0.261078 -0.0264689 0.272898 
0.00420252 -0.00620907 -0.00996872 

-0.0562793 -0.055343 0.0869965 
-0.0588778 0.0732004 0.0980271 
0.0176715 -0.0792644 0.392161 

0.0386377 -0.0227788 0.170572 
0.0283645 -0.040138 -0.269627 
0.000180836 0.0037422 0.0360642 

-0.0806312 -0.216888 -0.215007 
0.196628 0.20112 -0.0199908 
0.0251162 0.0462144 -0.051681 

-0.0703898 -0.0457465 -0.315328 
0.0304379 0.0449922 0.0770896 
-0.000159791 -0.00235215 0.0945248 

-0.157679 -0.0528007 -0.691745 
0.0778918 0.213768 -0.401943 
-0.0121832 0.00207192 -0.0222686 

-0.00482996 -0.03189 -0.0307598 
-0.00401463 -0.0155902 -0.0529675 
0.00443361 -0.00204615 0.0110399 

-0.0330692 -0.024522 0.962746 
-0.00251472 0.0454243 -3.55151 
-0.000877411 -0.00199244 0.0306393 

-0.0859252 -0.154058 0.804492 
0.189755 0.0419741 0.556703 
0.00847803 -0.00376609 0.154499 

-0.293954 0.396381 1.62124 
-0.404275 0.0882738 -0.315924 
-0.0203251 -0.0122678 0.198846 

-0.0148564 -0.022512 -0.0293936 
0.0327798 0.00111476 0.0118247 
0.000142056 0.00142865 0.00844846 

-3.16793 0.161617 -1.91202 
0.351257 0.00743083 0.265624 
-0.0406789 0.0721674 0.236684 

-0.0335404 0.00996136 0.090733 
-0.0300681 0.0489465 -0.135638 
-0.000245579 0.0215969 0.0257016 

0.0318957 -0.0532217 -0.0571576 
0.0384325 -0.00867824 -0.0183013 
0.0041672 0.00014624 0.00749205 

0.0156456 0.00882971 0.0660342 
0.0555093 0.0026313 0.108567 
-0.000616407 0.000157739 -0.0700599 

-0.0117381 -0.0360365 -0.012895 
0.0357197 0.00456465 0.00194356 
-0.000181486 0.00119724 0.0161639 

-0.0194528 -0.00657439 -0.0485123 
0.0349195 0.000473942 -0.0222504 
-0.00296576 -0.00107482 0.0310099 

0.00575945 -0.0268225 0.0299059 
0.0585623 -0.00795785 -0.0956627 
0.0344281 -0.0226385 0.216141 
