# vtk DataFile Version 3.0
Output file generated by Yade's KinematicLocalisationAnalyser
ASCII
DATASET UNSTRUCTURED_GRID

POINTS 13483 float
396.77 44.0869 -0.554212
478.615 93.0007 -0.543477
95.1069 5.84366 -0.493105
515.562 10.071 0.402891
333.009 14.0948 0.406921
217.725 67.2118 -0.492047
127.112 7.75126 0.497984
376.372 11.9987 -0.188404
336.034 44.1852 0.189156
469.574 19.0133 -0.409981
159.11 11.5065 0.138872
192.137 6.06964 0.42914
414.388 57.2883 -0.154259
410.918 35.9924 -0.096992
110.927 21.4055 -0.53314
167.174 47.1115 -0.399859
164.319 16.0009 -0.318253
215.164 12.0195 0.512136
240.7 58.212 0.421964
346.332 10.7772 0.49843
295.132 74.3875 -0.0967702
382.734 54.4458 0.311201
504.458 73.1177 -0.487793
432.329 65.857 0.449984
313.691 27.2488 0.36074
179.723 60.6308 0.132243
330.926 56.3655 -0.493713
386.181 26.5011 0.26813
35.8303 18.892 0.5199
453.389 50.4617 -0.371974
323.211 4.28722 0.496833
11.6359 30.1307 0.331457
492.874 91.3686 0.246802
332.363 4.05082 0.632284
63.7411 55.5834 -0.102707
346.509 48.9794 0.423001
352.144 27.3752 -0.506914
241.876 42.3376 -0.199286
355.354 39.647 -0.350268
250.745 65.7786 -0.392608
181.825 18.6149 -0.383018
300.719 68.9428 0.0752518
438.779 5.19293 0.251957
148.058 13.1721 0.467766
43.7745 7.62315 -0.0716835
51.9027 11.2879 -0.245891
451.639 8.29456 -0.527636
19.2697 13.9282 -0.322907
377.131 68.0348 0.376925
439.026 37.2219 0.382507
128.736 47.5287 0.284636
474.11 81.5105 0.138095
27.8777 33.7374 -0.126191
353.157 2.62958 0.586084
114.354 7.23772 -0.561705
393.213 47.5326 0.446463
337.404 51.1094 0.138841
143.31 0.917429 -0.326106
25.344 2.26244 0.435745
245.975 37.7725 0.330252
369.235 90.1804 -0.0525356
320.798 55.4891 0.196498
273.872 9.3093 0.206123
460.225 9.08205 -0.591298
17.9322 47.6259 -0.288437
195.218 41.5543 0.304534
474.827 11.8695 -0.264303
421.293 88.6286 -0.0841155
287.382 11.5943 -0.617959
378.219 5.71355 -0.421574
472.12 60.8191 0.441337
105.167 8.4859 -0.323489
335.551 49.8892 -0.150189
326.995 27.2923 -0.0867596
219.571 18.9643 -0.428317
16.8399 16.1864 -0.266644
493.184 83.2298 -0.31138
233.234 63.8962 -0.316068
439.753 35.5286 0.339955
450.142 14.8975 0.24347
504.033 44.8936 -0.240304
319.69 60.8054 -0.177893
77.9919 50.6609 0.0805257
428.303 57.2842 0.25253
399.313 78.0564 0.104238
508.636 78.221 0.113809
507.428 0.710426 -0.582032
216.89 32.7839 0.548403
417.994 11.2078 -0.278606
19.4157 6.38846 0.606172
104.6 51.1 0.145288
344.391 22.5569 0.24008
487.008 66.8508 -0.481494
152.22 44.9187 -0.235888
34.7021 43.9145 -0.286864
332.14 2.67638 -0.210843
178.664 12.0078 -0.422873
453.764 85.765 0.24978
481.104 51.6352 0.231501
252.257 52.3879 -0.253726
125.502 35.8994 -0.463122
359.905 76.3651 -0.408615
266.432 36.0744 -0.545256
289.141 43.8214 -0.128226
261.627 26.122 0.372445
363.25 14.5107 0.122042
515.405 26.1826 -0.205905
66.3816 51.0851 -0.43637
252.733 5.89512 -0.19652
373.157 15.566 0.385362
256.73 79.5811 0.10216
19.6954 28.9143 -0.514494
23.975 5.75539 -0.468012
369.97 48.4947 0.425641
340.894 45.7354 -0.16436
16.8064 40.9061 -0.406267
74.8634 38.6607 0.221721
243.084 17.7561 0.422331
400.649 24.0373 0.126925
317.077 73.0813 -0.293433
484.624 14.7878 0.410213
481.988 7.505 0.26859
277.045 58.7621 -0.12265
412.688 53.2256 0.0983417
180.778 22.492 -0.529675
249.166 5.02612 0.500024
82.1137 38.5547 0.323725
93.8549 26.36 -0.298583
356.201 83.8328 0.0277055
229.898 20.6775 0.618881
451.126 58.2875 -0.120025
426.413 89.2815 -0.105338
328.213 41.2941 -0.517469
506.776 20.7411 0.429643
297.538 38.5735 0.259869
205.051 32.9072 0.334106
424.041 72.8216 0.304001
208.564 35.2776 0.440232
386.262 14.8504 -0.245902
234.904 60.8473 -0.186984
339.152 20.4014 0.533149
264.132 62.7729 -0.0827581
295.851 19.0923 -0.177341
222.39 71.5135 0.471469
150.115 45.319 -0.117355
483.473 91.2775 0.160016
512.084 31.8742 -0.249942
4.98294 14.6654 -0.425006
297.915 31.5079 -0.497721
32.1463 28.7768 0.0793702
268.105 59.8059 -0.460314
277.492 41.5102 -0.286691
57.9144 15.536 -0.490973
38.4413 44.6615 -0.437034
172.306 18.0427 0.490226
370.305 83.3507 0.450769
384.659 26.5485 -0.547387
58.9806 25.3069 0.518529
435.628 68.1458 0.448721
498.411 9.83093 0.649289
415.759 81.0322 0.490692
457.982 1.62912 -0.551607
365.279 41.866 -0.427093
382.102 53.0021 -0.484452
345.391 28.9664 -0.442194
514.528 5.46832 -0.512156
174.639 35.7932 -0.161295
108.468 45.8184 -0.212042
186.639 7.48149 -0.522968
74.8227 4.6266 0.338687
49.9595 14.7189 0.247673
206.601 45.1739 0.301424
12.5372 31.5182 -0.38578
367.771 29.1405 0.470438
381.236 70.3821 -0.186575
321.427 37.8058 -0.406576
505.869 92.5512 -0.347427
283.187 13.9449 0.247123
300.613 61.2895 -0.404076
360.44 3.41495 -0.319925
18.5182 27.7977 -0.411963
387.658 6.34648 0.598814
367.117 8.52877 -0.40966
159.711 16.9674 0.575813
293.155 20.6026 -0.23896
235.142 6.90266 0.501492
272.362 39.0243 -0.347717
461.497 74.3334 0.113979
151.358 40.2354 -0.413378
510.312 12.7453 -0.408517
463.788 71.45 -0.341372
270.306 26.9653 0.213151
473.988 2.22546 0.491831
399.769 43.7672 -0.515108
478.506 29.3519 0.438553
307.523 66.8011 -0.283964
333.095 20.9129 0.447716
310.258 67.9734 0.233397
309.221 18.3479 0.190173
419.422 81.8124 0.273414
419.087 77.655 0.308186
149.327 54.8519 0.354687
501.735 44.5718 -0.104941
385.544 51.4214 0.340947
9.15679 21.8512 0.177742
286.078 38.5186 0.429656
147.078 36.8513 0.407178
79.6094 51.72 -0.236711
485.866 57.6016 0.438642
413.177 85.8407 0.159522
238.014 36.3771 0.41014
357.331 10.4895 0.306334
69.1589 56.5095 0.16325
186.913 38.6388 -0.504495
369.507 34.0456 0.424172
332.065 33.4991 0.490305
197.691 0.881589 -0.706497
368.245 70.4021 0.346933
347.999 77.9758 -0.444604
329.32 73.0684 0.386974
337.497 4.65178 -0.624551
462.698 21.4608 -0.386513
140.431 21.2855 0.245534
337 69.5571 0.404295
372.784 55.5009 -0.170878
56.5162 0.963957 -0.344314
190.717 4.81456 -0.285248
510.867 35.3448 0.157832
504.338 46.794 -0.412449
515.529 39.9723 -0.517385
229.079 9.19231 -0.270361
481.664 35.7263 -0.482591
294.068 80.0572 0.309232
308.255 2.12617 0.647298
405.574 72.2181 -0.402891
19.7732 35.4557 0.320835
235.396 65.347 -0.561269
191.494 3.31076 0.65117
496.733 89.4993 -0.182077
443.115 67.9609 -0.238987
217.175 13.5107 0.305306
418.052 65.7833 -0.091236
376.452 2.64115 0.475687
366.159 7.75858 0.619191
76.1618 22.7185 -0.476906
229.909 0.983417 -0.357192
260.034 3.47825 -0.597382
10.6866 9.32895 -0.60698
2.65848 47.3208 0.263336
129.469 26.4965 -0.390063
55.897 51.6341 -0.223843
56.0289 37.9555 -0.306354
293.972 14.2399 -0.646147
265.327 70.095 0.497295
470.555 82.8286 0.120196
15.7854 5.25899 0.36428
55.2876 9.37527 0.141909
379.749 79.628 -0.165567
222.108 0.915922 0.505578
256.615 42.7224 -0.106297
179.274 4.67936 0.550353
429.879 45.9641 0.17111
312.34 17.5328 0.469869
485.087 36.851 -0.400054
404.988 61.8981 -0.308517
443.564 28.1016 -0.0828228
295.957 44.365 0.514137
90.5018 51.5507 0.0330143
361.404 80.2088 -0.0723439
476.207 25.4367 0.28378
184.566 44.1426 -0.247342
26.6704 21.0261 0.174685
253.74 16.1412 0.545227
91.4523 43.9802 -0.552367
209.229 57.381 0.221531
298.081 1.80488 -0.462771
489.485 76.7248 0.405547
453.07 0.717984 -0.571667
253.338 4.31268 0.477693
227.277 33.8953 0.166859
313.547 66.7327 0.192686
63.9235 8.74865 0.612766
152.104 63.9561 -0.379237
481.235 62.2446 -0.371225
338.247 75.1345 -0.0777807
155.379 61.0498 -0.268573
120.953 60.7758 -0.347461
512.566 71.1957 -0.422663
514.087 28.6968 -0.575638
413.359 4.12044 -0.676699
150.715 38.5287 0.0928856
365.458 47.0468 -0.116326
365.691 40.1766 0.314734
284.911 8.79319 0.172016
329.235 0.937988 0.39153
468.767 85.8321 -0.547276
70.4609 41.4001 0.208903
434.076 33.7542 0.491009
206.389 21.0282 -0.338198
8.16004 2.59802 -0.39653
106.935 44.3869 -0.192938
54.3845 31.1136 0.455031
439.804 53.6473 -0.309336
497.207 99.9845 0.175614
147.28 42.3634 -0.169338
509.138 36.4129 -0.294245
34.417 47.7248 -0.278799
75.4854 36.7845 -0.15166
419.934 34.8482 0.431057
289.788 21.7253 -0.624022
350.612 28.2691 0.139443
184.744 37.4662 0.185945
422.859 12.0284 -0.526787
515.467 30.9023 0.60918
22.6632 36.7111 0.262098
204.875 8.78182 0.301342
169.83 19.6415 0.24968
1.11414 61.0998 0.146495
173.059 19.0345 -0.455438
162.493 13.7862 0.111587
167.055 36.5355 -0.276275
110.208 33.9386 0.117999
365.769 22.2108 0.398733
133.238 19.8002 -0.470548
490.43 89.1805 -0.221896
143.578 4.97714 -0.745758
35.7734 50.8367 0.447714
445.684 94.6224 -0.426228
213.982 37.5199 0.483443
440.057 38.271 -0.493393
493.508 72.2921 -0.4648
227.397 10.07 0.2907
467.038 57.6204 0.391993
251.128 2.59575 -0.340504
293.091 35.073 -0.371106
442.931 20.6103 0.451827
85.3886 13.8927 0.485758
329.4 4.09088 -0.513406
487.271 29.6007 0.282226
69.5754 7.68985 -0.428032
212.243 16.758 0.247927
294.098 12.6745 0.299685
512.347 2.28319 0.646016
277.802 8.26564 0.493651
134.761 50.9431 0.292567
479.145 22.5876 -0.337017
107.06 48.9278 0.212858
199.278 47.5824 0.408223
281.239 33.954 0.235412
386.605 16.8121 -0.442219
273.068 22.7492 -0.52322
318.549 44.1888 -0.520361
479.494 93.7152 0.391348
37.8036 12.0131 0.110053
219.114 58.1626 -0.258242
271.809 49.7827 -0.431165
288.269 31.2011 0.358158
349.776 65.3859 -0.55132
462.856 83.1309 0.187629
423.97 79.1385 0.338838
176.29 45.5571 0.416149
4.78566 42.586 0.172953
417.108 77.4292 -0.132855
346.059 60.8993 0.52877
178.561 50.7333 0.13683
433.691 51.6221 -0.141624
124.556 10.3107 -0.290042
260.958 46.139 0.272909
312.293 68.4168 -0.122701
290.474 27.8251 0.202661
475.449 95.0385 -0.290717
299.639 3.9225 0.672518
41.6877 31.7312 0.340698
326.036 65.0039 -0.345078
304.626 61.2844 0.379049
494.497 84.698 -0.23898
463.908 57.4558 -0.271719
360.041 24.7687 0.142285
484.601 84.3623 0.417154
222.141 2.10779 -0.534819
270.751 56.226 -0.471856
19.9108 42.8409 -0.308421
468.174 59.1624 -0.15063
407.458 28.0141 0.597226
312.376 0.672681 0.511676
102.328 5.50818 -0.423101
304.767 68.5926 0.116613
10.5893 0.881321 -0.294907
514.034 11.4561 0.101028
270.631 70.9416 -0.290044
[...]
POINT_DATA 13483
TENSORS Strain_matrix float
-2.14107 -0.406503 35.0687 
1.14664 0.798069 -3.65661 
3.41482e-18 -3.01205e-18 1 

-1.08285 1.89221 -351.915 
0.0968277 0.397684 42.7895 
7.43585e-18 1.51149e-17 1 

-0.14906 -0.152254 -0.15338 
0.122493 -0.0370745 0.236944 
-5.9939e-19 8.19166e-18 1 

-6.39133 -0.727427 9.88177 
0.117842 1.42677 0.70781 
-1.28257e-17 5.09513e-18 1 

-0.828105 -1.2293 0.996165 
0.552877 0.566743 0.153972 
-2.48083e-17 -1.73336e-17 1 

-0.245017 -0.910542 -50.1435 
0.0786619 0.291849 26.1972 
-4.86349e-19 -7.29524e-19 1 

-0.256556 0.0365233 -0.725786 
0.0182127 0.0125045 -0.736148 
-1.07817e-17 -6.53797e-18 1 

-0.378432 0.215278 0.253012 
-0.089748 0.0417837 -0.825282 
-4.53781e-18 -2.87336e-18 1 

-1.59418 0.306122 -0.887335 
-0.500699 0.578441 1.57385 
-1.34427e-17 -1.49604e-17 1 

-2.11209 -1.348 0.957778 
-0.233452 0.502461 -0.36559 
-1.30727e-17 -3.54051e-18 1 

-1.5864 0.607681 -1.10766 
0.392215 0.249539 0.056866 
-5.68044e-18 -1.34714e-18 1 

-0.453887 -0.543569 0.455311 
0.211474 0.156267 0.280737 
7.96824e-18 1.27072e-17 1 

-0.352932 -3.11556 -1.75529 
0.104174 0.50227 0.995656 
2.82287e-18 6.56317e-18 1 

-0.762567 -1.37863 -1.58983 
0.940751 1.17313 -0.553714 
-1.31895e-17 3.67423e-18 1 

-0.565425 -0.20123 15.6496 
0.122487 0.198683 3.13607 
-9.98865e-18 -5.58709e-18 1 

-0.667175 -0.426348 -7.40267 
-0.556216 0.367882 -4.86527 
-2.89379e-18 -4.56933e-18 1 

-0.612304 -0.157363 -0.884473 
0.0654832 0.188844 -0.433252 
-1.05185e-17 2.1493e-18 1 

-0.394227 -0.0386319 -0.15651 
0.213666 -0.119014 -0.242608 
-4.735e-18 -4.61951e-19 1 

-0.43179 0.842865 0.580608 
0.232346 0.119611 0.931684 
-3.87759e-18 1.32654e-18 1 

-0.549714 0.544825 4.3989 
-0.510058 0.24126 0.78458 
-1.44793e-17 -3.15004e-18 1 

-0.168457 -0.527874 0.686673 
0.463576 0.216633 -0.467963 
-8.27968e-18 -1.61036e-18 1 

-1.3536 -1.77991 3.31028 
-0.0116049 1.22693 3.28703 
-4.6497e-18 -2.27201e-18 1 

-0.822598 0.213439 -9.33105 
-0.309701 0.333408 4.20056 
1.58466e-17 7.85244e-19 1 

-3.77051 0.86845 -24.0685 
-2.28188 1.77348 -7.52747 
2.30239e-18 -4.90433e-18 1 

-0.092431 -0.173831 0.257366 
0.14544 -0.00991074 0.117567 
-7.94596e-18 -9.22186e-19 1 

-1.14412 0.0206497 6.18558 
0.396282 0.418987 0.559378 
9.84966e-19 -2.84546e-18 1 

-1.71182 -0.822117 -10.293 
-0.291772 0.684888 -0.991769 
-1.32918e-17 -6.95816e-18 1 

-0.933313 0.13065 -0.717122 
-0.15619 0.434886 -0.554591 
2.49459e-18 7.12109e-18 1 

-0.426459 0.0929521 4.96794 
0.0770881 0.198636 -1.35204 
-1.39595e-18 -3.25721e-18 1 

-0.550962 -2.69864 -5.23139 
0.246775 0.819732 0.389403 
1.27379e-19 -3.56662e-18 1 

-0.253816 -0.126161 -0.939001 
-0.143034 -0.296476 0.424441 
-1.82907e-17 7.04955e-18 1 

-0.774648 0.0577275 -0.680725 
-0.459914 0.43639 0.0199114 
1.73614e-17 2.65103e-18 1 

-0.0436185 -0.411826 -0.696391 
0.318484 0.0936277 0.626977 
3.93783e-18 -3.6876e-18 1 

-1.03437 0.281004 -18.4306 
0.236993 0.490327 -6.09475 
-5.04274e-20 1.68825e-17 1 

-0.05645 -0.210713 0.0129796 
0.243781 -0.0664092 -0.224268 
1.09563e-17 4.9242e-18 1 

-0.243727 0.209148 1.08613 
-0.538078 0.202297 -0.109962 
7.51532e-18 -9.29041e-18 1 

-1.68373 -0.0951949 -2.26592 
-0.361351 0.669998 -3.46699 
8.34482e-19 2.50345e-19 1 

-2.26155 -0.386665 1.42527 
0.592163 0.827958 0.82573 
-7.67759e-18 -5.82903e-18 1 

-1.02945 0.298783 2.30926 
-0.152145 0.172522 -0.725469 
-5.56545e-18 -9.7264e-18 1 

-0.352529 -0.0389191 -1.46988 
0.481184 0.25252 0.372995 
-2.11125e-18 6.78766e-18 1 

-0.482482 -0.395902 0.114566 
0.205298 0.209145 1.33172 
2.98042e-18 -1.22197e-17 1 

-0.0487527 0.793756 5.365 
-1.09425 1.04424 0.174859 
2.66246e-18 -3.66088e-18 1 

-0.179579 -0.0665292 0.105577 
-0.693538 -0.0533141 0.292447 
2.46655e-17 -1.12114e-17 1 

-0.384002 0.756541 -0.384868 
-0.596556 0.15677 -0.895345 
-5.61176e-18 1.36286e-17 1 

-0.612852 -0.128869 -0.256046 
0.253484 0.294535 0.17077 
-2.14156e-17 -2.75522e-18 1 

-0.563976 0.149575 -0.41566 
-0.340261 0.310253 -0.411406 
2.16051e-17 8.9561e-18 1 

-0.834 -0.398734 0.423397 
0.111687 0.265701 -0.351262 
-8.20681e-19 6.4703e-18 1 

-0.283845 0.221337 -0.371488 
-0.0180988 0.0851805 0.364011 
1.19759e-17 -9.43178e-18 1 

0.395094 -4.43373 3.68853 
0.887842 1.74882 0.394963 
-1.06782e-17 4.77282e-18 1 

-2.49656 -1.64274 3.63066 
-0.751121 -0.0451354 -1.83885 
3.42611e-18 -6.2812e-18 1 

-0.387889 -0.426292 0.960208 
-0.306228 0.20548 0.20882 
-5.9304e-18 4.81845e-18 1 

-0.627532 0.00752339 -0.758327 
0.259736 0.245594 -0.760452 
-5.56485e-18 -1.2281e-18 1 

-0.201426 -0.328294 -1.12277 
0.160914 0.0613525 0.175898 
1.02896e-17 -3.23792e-18 1 

-0.445202 0.409462 0.1174 
-0.0693807 -0.115179 0.255812 
2.39546e-17 1.61809e-17 1 

-0.253007 0.00896414 -0.778806 
0.0776891 -0.183247 -0.571481 
-1.23715e-18 4.94861e-18 1 

-1.40886 -0.393068 -4.35906 
1.33406 0.704902 0.793416 
7.45913e-18 -3.29947e-18 1 

-1.85039 -1.58769 0.429618 
-0.385007 0.334085 0.508837 
-4.62847e-19 2.21781e-18 1 

-0.847524 2.08476 3.14431 
0.0865226 0.25013 -0.562787 
1.14546e-17 4.48571e-17 1 

-0.183387 0.0578694 1.61605 
-0.0677047 -0.157903 0.172482 
2.42864e-17 -1.12689e-17 1 

-1.18843 -0.766149 2.66998 
0.587357 0.48963 -0.546644 
3.19062e-17 -7.47631e-18 1 

-1.66564 4.99504 21.6374 
0.00377089 0.885497 -1.06645 
5.62296e-19 6.035e-18 1 

-1.08115 0.748232 1.1962 
1.19103 0.0744309 -0.958157 
5.89242e-18 2.41885e-18 1 

-5.58873 -7.54609 0.736852 
0.592449 1.48478 0.417658 
-1.06256e-18 -2.81265e-19 1 

-0.741943 -0.207782 -3.47271 
0.125477 0.104654 3.06881 
-1.2375e-17 -8.62826e-18 1 

-0.975493 0.506262 1.22148 
-0.112596 0.38358 -0.29142 
2.75352e-18 -7.08049e-19 1 

0.235608 1.74167 -0.599242 
-0.268623 -0.0121098 0.0745572 
4.21891e-18 2.45464e-18 1 

-1.2896 -0.757423 2.31636 
0.403072 0.599863 -0.815311 
1.90589e-18 -1.33706e-17 1 

-0.00107234 -0.412777 0.163103 
0.424103 0.0797649 -0.21438 
2.00548e-18 -7.16243e-18 1 

-0.188888 0.585497 0.555617 
-0.92534 0.170407 -0.290469 
5.2065e-18 -8.51766e-18 1 

-0.605777 -1.05832 0.374179 
-0.0555482 -0.0150028 -0.665623 
3.03621e-19 -1.06501e-17 1 

-1.60919 -0.000965093 3.16669 
0.187449 0.807785 2.37747 
1.02661e-17 2.92506e-18 1 

-0.234523 0.111999 -0.255136 
-0.0391639 0.00796011 -0.567836 
-5.82507e-18 6.32072e-18 1 

-2.22362 -1.06267 0.25833 
0.0120733 0.632807 0.396808 
2.69244e-18 -1.18021e-17 1 

-1.32596 1.36553 -1.73332 
-0.420047 0.50114 0.852668 
5.87064e-18 3.14301e-18 1 

-0.318046 -0.198144 -0.436444 
0.093772 0.162779 -0.0438261 
9.79182e-18 -1.054e-17 1 

-0.125489 0.145652 0.254287 
-0.15095 -0.0302661 -0.0302253 
4.14783e-18 9.73655e-19 1 

0.0132871 3.66709 -11.9966 
0.0685337 -0.00453635 3.03885 
5.812e-18 -1.06582e-17 1 

-0.100658 0.0314122 0.190818 
-0.0537131 -0.0780695 0.634999 
1.66036e-18 1.92171e-19 1 

-2.29457 -1.26246 0.544243 
-0.755385 0.212506 -1.04604 
-1.55706e-17 -7.46602e-18 1 

-0.462631 -0.829344 0.499231 
0.183988 0.196808 -0.272445 
6.32039e-19 5.30913e-18 1 

-0.100452 -0.225611 -1.44625 
0.195341 -0.082683 0.642726 
-2.28555e-18 -9.60327e-18 1 

0.204149 -1.10191 3.05235 
1.0063 1.19814 1.68447 
-5.5436e-18 7.24933e-18 1 

-0.24593 0.0586298 0.290519 
0.013599 0.152445 0.284871 
-4.6715e-18 -3.7372e-18 1 

-5.49468 -3.26854 -1.2533 
-1.3995 0.260302 -0.581841 
1.32592e-18 4.22942e-18 1 

-0.227399 -0.0686078 -0.174683 
0.0820338 0.0598336 0.00218088 
2.54921e-18 -2.76587e-18 1 

-1.56123 -1.24579 2.78305 
-0.414351 0.409143 1.31953 
-4.34052e-18 -1.7288e-18 1 

-5.19819 -8.75265 -13.5597 
0.0185392 0.626335 0.433241 
6.95476e-18 -9.24221e-18 1 

-0.420989 0.818903 -0.0378528 
-0.167217 0.254137 -1.83646 
8.14804e-18 1.96999e-17 1 

-0.848842 0.0871227 -1.04492 
0.708621 0.225547 0.656451 
-8.05312e-18 -2.65013e-18 1 

-0.374575 0.253578 3.29316 
-0.105027 0.0238409 -3.61339 
3.07271e-18 -9.46007e-18 1 

0.62244 -1.57779 -0.386868 
0.885705 1.27305 -0.0124698 
1.67469e-18 -8.79214e-18 1 

-0.817031 0.402438 0.911808 
-0.133627 0.0867385 -0.931409 
1.16803e-17 -1.20123e-17 1 

-1.12143 -0.36252 -3.77984 
0.0130489 0.519961 -0.68962 
-6.66608e-18 -1.85752e-18 1 

-0.38609 0.0862638 0.683911 
0.172983 0.198623 0.486749 
2.09709e-17 -4.50987e-19 1 

-0.620031 -0.403606 0.002128 
0.445701 0.492004 0.125632 
-4.15069e-19 -1.4705e-17 1 

-0.955525 -0.682998 0.293669 
0.134271 0.36563 0.4007 
3.75884e-18 2.1934e-18 1 

-0.41899 0.119127 -0.820647 
0.207301 0.0575048 -0.167832 
9.2709e-18 -2.02274e-17 1 

-0.323935 0.0192101 0.335903 
0.22313 0.0887463 -0.11782 
-3.39015e-18 -1.29885e-17 1 

-0.686608 -2.85714 10.1072 
0.209312 0.711892 -2.17638 
-7.37442e-18 6.45262e-19 1 

-0.633715 0.744049 -1.77651 
0.322665 -0.0707681 2.86227 
-1.80488e-17 -7.97192e-18 1 

-0.703395 -0.518138 -2.1435 
0.136824 0.302349 -0.942858 
-1.0448e-17 1.2993e-18 1 

-1.69687 -1.50508 71.04 
-0.534989 0.496421 -2.19316 
-1.38628e-18 1.86938e-18 1 

-0.348151 0.25352 7.74667 
-0.515506 0.257367 6.60335 
-4.07018e-18 -4.65164e-18 1 

-0.666284 -0.168932 0.583154 
0.219788 0.338386 -0.423938 
0 -5.49071e-18 1 

-0.401509 0.779686 -0.7071 
-0.413182 0.386371 -0.714252 
3.61561e-18 6.92992e-18 1 

-0.198975 -0.697169 1.13726 
0.70188 0.36069 0.0426504 
-9.0894e-18 1.89673e-17 1 

-1.09412 0.732635 -1.27228 
-0.532999 0.564654 -0.753286 
3.09603e-18 -2.9553e-17 1 

-0.193558 -0.0163479 2.56066 
0.0559026 0.048659 1.13766 
1.91082e-18 -3.12101e-18 1 

-0.232411 -0.0948927 0.199727 
0.226529 -0.0481556 0.037793 
5.09432e-18 1.76496e-18 1 

-0.540309 0.594739 0.309709 
-0.449955 0.384188 -0.504638 
-2.05075e-18 1.16986e-17 1 

0.0278357 -0.295132 -0.299575 
0.0921843 -0.229933 -0.259457 
1.18495e-17 3.36156e-18 1 

-0.143641 -0.182169 3.05511 
0.0254186 0.024346 4.13283 
-3.44061e-18 6.00742e-19 1 

-0.448635 0.288676 -0.556106 
-0.282193 0.06634 -1.10821 
1.89855e-18 -3.18135e-18 1 

-2.26782 -0.425596 -2.11334 
-0.91015 0.589763 -2.36482 
-1.09268e-17 -9.12403e-18 1 

-1.53663 -0.666742 0.397429 
-0.057951 0.558293 -0.564057 
0 -9.47632e-18 1 

-0.0144736 0.0584881 -6.24172 
-0.115891 -0.00872364 -6.03858 
2.30414e-18 -2.99692e-18 1 

-0.636565 0.12879 -1.32248 
-0.114789 0.515708 -1.03472 
1.21387e-19 4.49131e-18 1 

-0.356505 -0.523217 -0.0462638 
0.2639 0.197846 -0.232249 
9.33175e-18 -1.62729e-18 1 

-0.91504 0.10615 1.87847 
0.692463 0.336762 -1.09836 
9.93355e-18 -9.88181e-18 1 

0.548054 -1.17959 -0.0908489 
0.790958 0.718224 -0.122605 
-1.25363e-17 1.06252e-17 1 

-2.80324 -2.84688 0.45071 
0.904446 1.45546 -0.882522 
-4.84161e-18 3.40426e-18 1 

-0.769466 -0.244362 0.602861 
-0.437924 0.203812 -0.433671 
1.60689e-17 -1.4483e-17 1 

0.238376 0.426802 0.640804 
-0.659038 -0.0309636 0.0424291 
9.35838e-19 2.24601e-18 1 

-0.961653 -1.42568 -1.34045 
-0.213794 0.535983 -0.439032 
8.54192e-18 1.13892e-17 1 

-0.59662 0.0388461 -7.02626 
0.0786136 0.324791 -2.89704 
-5.8711e-18 -3.59988e-18 1 

-0.250531 -0.428768 0.381468 
0.10601 -0.216611 -0.0645425 
7.62292e-18 -2.8586e-18 1 

-0.456311 0.496814 1.63815 
-0.448771 0.52194 -0.47077 
-1.48079e-18 -3.34738e-18 1 

-0.150466 0.0706582 -0.0402777 
-0.0198111 -0.00119773 -0.0941096 
-6.39956e-18 -6.91844e-19 1 

0.159225 0.977224 -3.18118 
-1.05838 0.734718 -0.447423 
2.08309e-18 1.04154e-18 1 

-0.744432 0.111039 -0.678412 
-0.23757 0.212557 -0.168153 
7.81945e-20 1.35537e-17 1 

-1.04978 1.59536 4.02585 
0.577641 0.368902 1.57705 
-1.40505e-18 -1.14895e-17 1 

0.00702757 -0.0991625 0.0997074 
0.0789489 -0.0850254 0.0591098 
-4.25755e-18 -1.61339e-18 1 

-1.34666 0.247116 3.30764 
-0.113459 0.561752 11.3472 
2.82573e-18 2.73309e-18 1 

-0.335336 -1.89262 -0.346001 
0.267967 -0.0615914 0.349569 
5.78093e-18 1.4989e-17 1 

-1.02948 0.600416 1.05117 
0.332258 0.562003 -0.82711 
2.18406e-19 1.48516e-18 1 

-0.826417 0.184564 2.47141 
-0.381398 0.375068 -1.11612 
2.35638e-18 -9.1399e-18 1 

-0.617841 0.53545 -3.44512 
-0.378268 1.18965 3.36292 
7.14074e-18 1.43875e-17 1 

-0.462353 0.402823 3.21498 
-0.234444 0.0859069 0.070548 
3.19467e-18 5.09248e-18 1 

-0.589005 -0.557622 -0.104303 
0.161186 0.236531 1.02998 
-9.56849e-18 4.51846e-18 1 

-0.0427918 0.0675299 -0.0223958 
-0.129123 -0.0608714 -0.351229 
3.61793e-18 -7.22868e-18 1 

-0.31346 0.0754652 -1.98375 
-0.0130556 0.00723171 -0.170688 
-5.10006e-18 2.45068e-18 1 

0.0109182 0.502375 -2.08039 
-0.271391 0.402408 0.908065 
-9.64349e-18 3.01729e-18 1 

-0.682041 -0.0812181 -3.74158 
0.0690936 0.266133 -0.0942058 
1.9333e-18 7.78778e-18 1 

-0.534759 -1.28551 3.23539 
-0.0589806 0.836135 28.2103 
-1.52859e-18 -1.21559e-17 1 

-0.293199 -0.137652 0.950935 
0.263044 0.173348 -0.974668 
1.96568e-18 -6.95548e-18 1 

-0.184315 -0.163101 -0.275716 
0.0992103 0.0786339 0.237211 
-5.48668e-18 -1.35783e-17 1 

-0.987285 -0.160526 3.10719 
-0.647688 0.349468 -0.203656 
-9.97927e-18 -6.434e-18 1 

-0.507474 0.185276 -0.239351 
0.193039 0.256308 -0.0601619 
7.07917e-18 -1.01974e-17 1 

-1.69722 0.947343 -8.01284 
-0.290297 0.669162 -1.24589 
3.29804e-18 1.94349e-18 1 

-0.5983 0.195931 1.6827 
0.18755 0.319713 0.65284 
-2.53152e-18 2.23716e-18 1 

-1.41753 0.371537 -4.70349 
0.044716 0.434948 1.23504 
2.06114e-17 -3.81394e-18 1 

-0.428685 0.845871 0.540951 
-0.455272 0.503292 -1.28398 
4.04485e-19 -7.95487e-18 1 

-0.400785 0.457012 -0.759846 
-0.088408 0.0587586 1.65923 
1.4135e-17 -1.24879e-17 1 

-0.401033 -0.391546 -1.04578 
0.0918453 0.321666 3.02785 
2.64394e-18 -6.90941e-18 1 

-0.386761 -0.116636 -1.47961 
0.0500768 0.00170975 -1.32055 
1.82626e-17 -1.38578e-17 1 

-0.355139 -0.72345 -25.3634 
-0.171031 0.360846 -6.31484 
-2.03426e-18 -6.81779e-18 1 

-0.660962 -0.083273 3.59544 
0.0387828 0.163356 5.30632 
-5.75061e-18 -9.70703e-19 1 

-0.420731 0.173552 -2.9176 
0.00788282 0.222048 -3.64242 
2.50184e-18 1.37689e-18 1 

-0.458786 0.752619 -38.5088 
-0.846838 1.59514 25.7749 
6.72593e-18 9.42055e-18 1 

-1.39369 0.514225 -1.78557 
-0.252791 0.390565 -0.84391 
7.48742e-18 -2.78025e-17 1 

-0.456506 -0.13201 42.3127 
0.268942 0.265147 -4.23962 
-1.77236e-18 -2.82546e-18 1 

-0.760594 -0.477907 -0.232688 
-0.100902 0.234124 0.227103 
6.95794e-18 -3.00971e-18 1 

-1.47261 0.400489 -0.529177 
-1.02346 0.79412 -1.90558 
1.37791e-17 9.91537e-18 1 

-1.07607 -1.88533 -1.22538 
0.360048 0.95155 -8.58472 
-2.6447e-18 -3.47364e-18 1 

-0.216991 -0.687543 -0.873864 
0.30909 0.229976 -0.737536 
1.54001e-18 -1.15356e-17 1 

-2.6104 1.22784 -0.460269 
0.618186 0.555209 -0.464696 
-1.94468e-17 4.36794e-18 1 

-0.638436 -0.0385684 1.29016 
-0.130966 0.354331 -0.401491 
1.67634e-18 1.4668e-18 1 

0.626532 -0.942603 -0.281886 
1.27092 1.08527 -0.0789692 
2.87373e-18 1.78171e-17 1 

-0.612918 0.030724 -0.431245 
-0.027212 0.0762342 -0.58084 
1.11875e-18 -8.59901e-18 1 

-0.487199 -0.154711 -1.32923 
0.337238 0.106556 0.633904 
-1.33427e-17 -8.9995e-18 1 

-0.229468 0.0718065 -0.103224 
-0.108024 -0.0463461 -0.528166 
1.89982e-18 -1.86397e-18 1 

0.317023 0.355048 1.47316 
-1.05769 0.113732 -1.14924 
-9.80252e-18 -1.0439e-17 1 

-0.667255 -0.188891 0.959816 
-0.389299 0.386212 -0.673421 
-1.12425e-19 2.77996e-18 1 

-0.999558 0.0485854 3.8186 
-0.180251 0.322453 -2.37483 
-2.66712e-18 -1.10554e-19 1 

1.25872 -1.66326 0.976189 
0.834574 2.01193 -1.10383 
1.29888e-17 -3.63115e-18 1 

-0.300034 -0.549386 2.41747 
0.784847 0.446732 0.295239 
-9.86909e-18 -3.60927e-18 1 

-1.83922 1.66688 9.27951 
-0.320109 0.783192 1.44532 
-5.18624e-18 8.54138e-18 1 

-0.438492 0.46614 0.307415 
-0.808916 0.431031 0.254965 
1.20134e-17 -6.70134e-18 1 

0.298794 0.992275 -1.32824 
-1.03742 0.84755 -2.33993 
-5.62977e-18 -3.67774e-19 1 

-0.320294 0.00838865 0.192337 
0.0822453 -0.0577243 0.0136218 
7.90877e-18 1.51173e-17 1 

-0.299218 -0.408988 0.598811 
-0.238047 0.141955 0.644881 
-1.01026e-18 7.84436e-18 1 

-0.980714 0.172684 0.0296918 
-0.0297277 0.234133 0.0650417 
2.76738e-17 -4.39415e-18 1 

-1.0114 -0.853309 -0.369399 
0.425582 0.464015 -0.859147 
-1.22935e-18 1.69804e-17 1 

-1.21868 0.140946 3.36882 
-0.23755 0.424083 1.7503 
-9.43496e-18 9.17898e-18 1 

-1.45133 0.0108409 -3.09194 
-0.233408 0.414159 -0.600567 
3.605e-18 -8.15044e-18 1 

-0.473615 -0.0887463 -0.624178 
-0.0765221 -0.0242679 -1.15889 
9.31204e-18 -1.54502e-17 1 

-1.25007 -0.616212 0.177007 
-0.344232 0.582536 -0.989209 
2.77426e-18 2.80578e-18 1 

0.482066 -1.04659 -0.374434 
0.946764 0.995103 0.220904 
-2.75521e-19 -5.64817e-18 1 

-0.451677 0.0431054 0.505184 
-0.0324122 0.235163 1.38106 
-5.27298e-18 9.64844e-19 1 

-1.63304 0.530356 4.52136 
1.11147 1.15996 -0.82064 
-2.17297e-18 1.33818e-17 1 

0.406221 -0.898158 0.0386092 
0.9501 0.521201 -0.0920611 
-1.13068e-17 2.10156e-17 1 

-0.135497 0.693852 -2.02012 
-0.604876 0.475605 -0.307599 
4.44412e-18 7.37399e-18 1 

-0.563602 -0.39359 0.56988 
0.0785844 0.0705555 0.653638 
2.28721e-18 -1.82625e-18 1 

-1.68101 -1.12523 -6.51602 
0.483008 0.878076 7.80076 
-7.22633e-19 -5.58172e-18 1 

-0.801216 -0.311452 0.784435 
-0.993824 -0.220623 -0.584084 
1.10938e-17 2.26143e-17 1 

-5.16947 2.23393 20.1701 
-0.727087 1.0927 -0.941487 
-1.41145e-17 -1.29496e-18 1 

-0.873012 1.04647 -0.122046 
0.262836 0.312338 -0.120129 
-4.86731e-18 2.13011e-18 1 

-8.76404 -3.63754 -14.3729 
0.300555 0.97493 0.839524 
-1.2561e-17 9.7404e-18 1 

-0.52661 -0.434921 0.80724 
0.356334 0.214811 -1.63317 
-2.39322e-18 1.574e-17 1 

-0.0519539 -0.494292 -3.17365 
0.486866 0.142738 0.46796 
-8.69631e-19 -2.03514e-18 1 

-0.55929 0.334987 -3.52812 
0.518063 -0.0245903 -0.103581 
1.44157e-17 -6.64089e-18 1 

-0.0643529 -0.380821 -1.01599 
0.383316 0.118071 0.527228 
3.1562e-18 -4.38597e-18 1 

-0.11207 -0.137297 -0.225068 
0.219193 -0.00324734 0.218127 
2.30251e-18 -4.72679e-18 1 

-0.296072 -2.1105 6.93616 
0.458951 0.727537 1.55161 
1.33437e-17 -5.5101e-18 1 

-0.103433 -0.527821 0.497176 
0.427367 0.0691709 -0.574133 
-6.93138e-18 4.37053e-18 1 

-0.595655 0.630237 0.746688 
-0.0887316 0.207105 1.57455 
-3.75656e-18 -5.27052e-18 1 

-0.255448 -0.0102342 1.99889 
0.0673062 0.197477 0.0451608 
7.31109e-18 2.50871e-19 1 

-0.104924 0.299898 0.76381 
-0.0798524 0.0583999 0.298529 
2.68279e-18 1.16254e-17 1 

-2.71545 -0.759843 1.72908 
0.955081 0.6368 -1.28767 
4.77808e-18 4.08507e-18 1 

-0.412542 -0.162761 -1.17297 
0.146339 0.377084 -1.17305 
5.9108e-18 9.09314e-18 1 

-1.00785 -1.18277 -1.83744 
0.103219 0.450406 1.25996 
-1.94789e-18 -7.99135e-19 1 

-0.72875 -0.0683132 0.339296 
-0.0491859 0.250903 -0.828939 
-3.54853e-18 -2.92331e-17 1 

-0.0441875 -0.0637217 -0.334966 
0.0915772 -0.0429214 0.222102 
5.91416e-18 3.05905e-19 1 

-0.856187 0.0971324 1.42288 
0.0396127 0.500036 -9.5844 
1.41184e-18 -4.96169e-19 1 

-0.784839 0.0769338 -6.18265 
-0.289403 0.244244 -2.28183 
5.73713e-18 5.89587e-19 1 

-1.41574 -0.168843 26.346 
-0.430328 0.541411 1.18409 
-8.71623e-18 7.04961e-18 1 

-0.614414 3.35382 49.437 
0.023008 0.172112 -3.52932 
7.72757e-19 7.21714e-17 1 

-1.76301 0.71582 -43.695 
-1.00676 0.490171 -0.960367 
-1.55057e-18 -4.01009e-18 1 

-0.789398 -2.43092 155.942 
0.503512 0.881424 19.1082 
1.44678e-18 1.40806e-18 1 

-1.51707 -1.21608 6.22388 
-0.072245 0.71196 -1.95103 
1.97201e-18 1.07991e-18 1 

-2.40111 -0.378329 1.89573 
-0.165076 0.51807 0.311874 
-5.71762e-18 -2.3759e-18 1 

-0.0586435 -1.27587 3.49181 
0.248603 0.540695 -1.22115 
-2.1389e-17 4.93203e-18 1 

-0.216511 0.263218 0.716672 
0.419129 -0.0687508 0.296895 
1.77921e-17 -1.33881e-17 1 

-0.0682298 0.890838 15.3245 
-0.837795 0.791339 -4.16973 
3.4142e-18 2.95186e-18 1 

0.229026 0.905165 0.655769 
-0.979125 0.508708 -0.0424612 
-5.14062e-18 2.01212e-17 1 

-0.458447 -0.760653 -0.053641 
-0.0093575 0.139523 -0.120418 
2.98844e-19 -1.39767e-17 1 

-0.289964 -0.298053 1.29344 
0.0755756 0.0572939 -0.444916 
-5.99096e-19 2.48197e-17 1 

-1.42097 0.40196 -2.53981 
-1.14128 0.750111 -1.40411 
2.45641e-19 -1.22821e-19 1 

-0.131404 -0.333969 -1.44217 
0.25391 -0.0158884 -0.0879082 
7.96969e-18 4.84548e-18 1 

-7.3825 0.150843 5.07093 
-1.62317 0.476543 -0.435004 
5.13751e-17 2.60179e-18 1 

-0.254929 0.0889274 -0.525592 