# vtk DataFile Version 3.0
Output file generated by Yade's KinematicLocalisationAnalyser
ASCII
DATASET UNSTRUCTURED_GRID

POINTS 13483 float
621.396 33.9434 -0.413775
764.923 67.1052 -0.540653
122.666 6.06399 -0.474083
792.973 5.22128 0.282779
511.885 7.88066 0.29547
322.593 35.9634 -0.4529
159.93 6.82054 0.431533
581.815 10.6254 0.118973
508.619 24.9988 -0.145408
724.687 14.8489 -0.465159
215.502 8.79058 -0.113749
263.361 6.27395 -0.267542
662.902 36.8877 0.143255
642.543 19.9151 0.0878305
140.157 17.4765 -0.448416
226.768 34.8015 -0.392853
222.883 12.9509 -0.261652
296.443 9.57607 0.375313
349.995 33.1014 0.452118
537.368 8.53586 0.36224
421.564 37.717 0.106324
603.772 46.8342 -0.256965
791.06 49.1051 -0.447266
705.041 50.802 0.555744
470.858 16.8191 0.297331
246.877 44.5051 0.122529
503.62 28.8956 -0.454075
597.644 20.1096 0.264693
45.9469 15.9078 0.463189
721.879 38.1344 -0.382178
494.61 4.82481 0.350462
16.8871 23.5341 0.305923
779.505 65.9445 0.250506
507.917 2.48907 0.481747
80.172 44.5295 0.100174
535.094 30.3967 0.325058
544.722 17.2625 -0.436819
352.764 22.7475 0.174134
548.31 27.1373 -0.307862
360.512 34.0799 -0.39526
247.306 14.4679 -0.314776
445.703 38.3646 0.0858573
683.894 5.97164 0.315956
197.298 6.21492 0.372397
56.6274 7.06511 -0.106495
70.1789 9.01338 0.289558
697.851 8.28596 -0.586303
23.7501 11.8042 0.263534
621.878 52.3928 0.356737
685.309 28.8623 -0.32391
175.957 32.5885 0.289024
757.839 56.0715 -0.123114
35.9466 28.1011 -0.112514
547.655 2.93491 0.349051
145.194 7.17386 -0.481796
608.026 35.6397 0.428516
516.505 28.434 0.120956
178.969 0.968492 0.26719
33.4525 2.428 0.2893
358.055 18.0267 0.274208
634.86 55.4121 -0.133522
474.511 34.3385 -0.178606
410.708 1.02909 0.195927
706.779 9.41995 -0.542144
27.4475 43.0598 -0.23541
263.405 30.3192 0.291214
724.847 9.88008 0.186345
687.783 58.8645 0.366665
429.587 8.51799 -0.519804
582.383 3.78478 -0.320594
749.325 42.1416 0.392673
133.715 7.82104 0.260257
511.143 27.4252 -0.149347
490.876 15.9602 -0.092418
302.862 16.7778 -0.341439
20.8036 13.679 -0.271363
779.402 57.2036 -0.33355
341.831 39.4815 -0.301015
683.672 28.2775 0.337361
696.739 14.9203 0.24475
787.952 23.5138 -0.225247
477.943 35.3058 -0.172597
95.172 38.7141 -0.269364
695.154 44.5122 -0.226123
665.766 48.1399 -0.0959935
795.62 53.9084 0.105494
780.115 0.762457 -0.558821
299.159 28.5193 0.48242
637.205 6.26994 -0.105748
24.6886 5.26668 0.516056
136.87 38.9623 0.149677
527.327 14.0471 0.208944
771.099 41.3663 -0.493419
200.619 28.4379 -0.259077
45.9999 34.7453 -0.27686
506.831 1.15763 0.139564
242.279 8.75473 -0.408483
737.512 63.9526 -0.250144
765.33 34.8343 0.284992
372.269 20.4869 -0.275216
167.558 27.039 -0.446097
565.179 46.205 -0.494589
391.773 15.1567 -0.496329
426.927 30.1312 -0.101106
389.721 4.54752 0.406776
562.299 12.3618 0.125327
798.817 11.7448 0.178959
82.4315 39.5478 0.380129
345.608 4.9227 -0.182668
575.329 9.99054 -0.354681
371.46 44.5131 0.441375
26.1812 24.8702 -0.465665
31.1278 5.69142 0.308673
582.386 35.9535 0.408913
519.323 25.3331 -0.151633
27.2309 36.944 0.423466
95.961 30.9398 0.224768
335.211 15.9834 -0.283151
616.988 18.71 0.129397
489.978 39.8342 -0.109369
739.571 10.0047 0.375832
732.815 6.03415 0.207695
399.86 37.131 -0.10335
648.526 32.2877 0.0978292
245.51 17.224 -0.490955
340.744 3.70915 0.462395
106.526 32.0377 0.312199
120.177 24.9683 -0.262867
560.808 45.5131 0.088542
316.666 18.9572 0.501665
721.959 42.8289 -0.116326
692.598 60.1879 -0.10079
496.837 20.024 -0.394516
772.165 12.431 0.60069
443.73 24.4526 -0.224991
286.175 24.6985 -0.293531
689.802 44.7911 -0.289209
288.473 29.2488 0.371125
592.819 12.1023 0.168121
343.449 36.4765 -0.192837
521.231 11.1111 0.515694
379.488 31.5518 -0.0881417
445.945 17.2692 -0.098179
328.945 42.7079 0.431653
196.638 29.7545 -0.121133
770.083 65.3633 0.15916
795.883 13.3556 -0.320452
6.16782 12.438 -0.451226
449.666 22.9744 -0.401998
39.6685 22.5553 -0.0831079
389.771 31.1513 -0.479615
410.082 25.4772 -0.246496
77.0005 11.8778 -0.511073
53.2798 34.9449 -0.487308
233.587 13.4749 0.428789
636.235 48.9299 0.428832
594.46 21.5686 -0.417891
76.8781 21.4077 0.494493
709.924 52.5542 0.406979
760.13 2.19817 -0.568135
682.406 51.7097 0.478057
704.37 1.67096 -0.661277
568.829 31.5875 -0.384303
604.124 45.107 -0.710804
530.41 18.3141 -0.370023
791.514 3.84029 0.223099
231.428 25.3715 -0.129704
132.419 35.8739 -0.191882
255.948 6.63216 -0.381553
97.5065 4.42277 0.286643
66.4226 10.0091 0.225654
286.237 36.476 -0.308025
17.2771 25.2584 -0.350088
574.045 20.8232 0.41792
623.458 47.6036 0.26071
480.722 21.8424 -0.362647
792.686 68.8421 -0.361032
422.635 8.62529 -0.105922
452.039 38.5948 -0.414915
556.253 3.46164 -0.154492
23.5519 24.0763 -0.404612
594.822 4.48378 0.463339
565.322 6.01758 -0.28171
213.676 11.2414 0.477927
441.681 16.5869 0.182136
323.343 6.23642 0.371319
403.746 19.195 -0.342934
739.286 54.3892 0.101334
198.814 25.6491 -0.425858
779.287 9.78039 -0.449993
741.218 51.2053 -0.314668
398.52 10.3647 0.170778
722.292 2.32226 0.473521
622.964 28.5162 -0.433846
742.216 23.9243 0.362294
447.51 45.3674 -0.28395
515.745 12.832 0.400849
482.367 45.5739 -0.223111
463.243 8.92445 -0.16427
686.006 52.5816 0.313001
685.259 48.0257 0.299353
199.104 38.8862 -0.307709
785.734 23.6365 -0.107826
605.324 45.7194 0.304429
11.7388 17.5282 -0.171053
424.561 25.6559 0.336607
193.806 23.1305 0.417395
96.7997 39.7887 -0.209538
769.254 37.0999 0.436869
679.411 56.4989 -0.226127
331.846 26.1998 0.359332
552.705 10.1807 0.314762
85.439 44.7374 0.168323
257.217 25.8251 -0.469278
575.311 26.3858 0.400867
505.557 18.9866 0.397183
272.962 0.906181 -0.35091
573.928 46.8131 -0.377569
553.829 45.3133 0.467873
500.514 34.7353 0.384843
519.043 1.71342 -0.66047
712.711 20.8092 -0.364134
185.965 12.1137 -0.172239
520.151 37.962 0.441432
585.055 42.7271 0.15245
75.6288 0.920839 -0.262385
261.516 4.63792 0.185678
795.535 16.2255 -0.198001
788.596 25.4019 -0.384117
802.472 18.6919 -0.464098
315.785 8.47762 -0.24331
751.156 27.2045 -0.42394
423.418 42.7137 0.355947
467.65 0.85545 0.448496
670.298 44.771 -0.459649
27.9869 30.512 0.322757
343.996 41.1986 -0.482294
262.442 2.80712 0.326592
783.443 64.5017 -0.17488
717.733 54.6128 -0.292936
299.103 10.9027 0.224559
680.379 38.5091 -0.0941293
577.071 2.58719 0.240504
562.502 7.30547 0.471236
100.574 18.6033 -0.493427
315.639 1.02189 -0.224971
357.214 2.30031 -0.347262
14.2185 7.59607 -0.405193
4.62521 31.7823 -0.255702
167.69 19.0227 -0.359357
71.0542 41.9465 -0.21894
69.0831 29.2652 -0.315384
441.382 14.8316 -0.396174
382.546 35.2465 -0.29596
756.335 57.9356 0.11542
20.0395 4.04278 -0.261391
73.2681 6.97576 -0.13107
645.953 45.469 -0.140388
306.821 0.922255 0.364115
379.936 16.0022 -0.107881
244.948 4.67927 -0.372198
668.219 27.5236 0.161784
470.385 8.91558 0.431582
751.474 23.9815 -0.457808
647.907 35.7655 -0.289908
682.149 21.5196 0.0943722
438.533 27.0923 0.458881
106.417 45.4136 -0.306398
563.435 49.8931 0.065855
738.511 18.8073 0.257876
247.479 30.5955 -0.239845
33.0685 16.7383 -0.182868
350.285 13.9826 0.483165
112.056 40.8885 -0.484567
278.925 42.6704 -0.203016
443.74 1.65764 -0.314261
776.029 50.7288 0.412337
698.495 0.773611 -0.553304
346.189 3.33314 0.53267
312.738 27.0742 -0.159022
481.573 42.3131 0.219703
84.7542 7.98118 0.393132
205.561 44.9893 -0.378553
762.361 41.9512 -0.375221
515.538 40.8684 0.0743612
207.966 40.9991 -0.26542
167.016 42.9816 0.366592
799.419 47.5744 -0.432825
797.18 12.0358 -0.562056
627.965 3.06519 -0.564441
197.445 24.4456 -0.0932258
570.986 33.6716 -0.111296
570.906 30.353 0.271015
427.204 5.62637 -0.142896
501.737 0.920423 -0.304141
754.428 60.8967 -0.501888
88.4586 31.1497 0.216344
671.374 20.5806 0.560107
285.851 15.5007 -0.351305
9.76033 2.32137 0.354098
130.952 37.5889 -0.182602
69.1727 23.31 0.475754
710.939 39.147 0.358608
783.641 74.925 0.17601
192.802 28.3745 -0.183661
792.622 15.4611 -0.311001
47.3128 37.0837 0.254006
94.6641 29.3016 0.15846
652.545 18.8032 0.37988
431.701 18.4305 -0.48435
541.262 17.0993 0.0975809
248.054 28.6888 0.189898
644.1 4.857 -0.555221
800.757 11.18 0.459503
31.0471 31.6042 0.271706
281.563 7.65817 0.189181
231.208 15.3087 -0.239672
1.10522 36.7247 0.146919
234.708 14.5858 -0.381601
220.438 10.9291 0.12137
222.925 26.338 -0.278588
138.603 28.4704 0.138012
568.815 16.8668 0.345385
173.48 14.2728 -0.329554
777.089 63.6614 -0.225217
181.056 3.95139 -0.492969
49.1262 39.5693 -0.346962
732.281 74.6858 -0.426614
293.61 32.4837 0.388516
688.009 31.541 -0.459019
780.359 47.6255 -0.467403
313.818 9.1376 -0.10818
743.049 41.2034 0.342419
343.063 2.57753 -0.389469
435.077 24.4226 -0.388248
686.189 18.5646 0.468834
109.763 11.5385 0.507738
503.41 3.88655 -0.489251
754.503 21.5009 0.156391
91.9566 7.70019 -0.254956
293.939 14.7001 0.187101
442.39 12.0852 -0.227819
790.399 2.55802 0.601749
415.786 1.98831 -0.521587
183.622 39.0468 0.296883
741.063 15.7126 -0.352354
134.237 37.0136 -0.212892
274.714 31.5987 -0.375328
418.932 21.878 0.212829
595.667 13.7107 -0.326385
404.383 9.84026 -0.450647
476.494 28.3926 -0.434987
765.869 67.7533 0.386427
49.5101 11.064 0.138119
312.056 38.8656 -0.274699
396.715 26.1347 -0.412401
428.275 20.3515 0.238458
541.71 45.6832 0.358992
747.176 60.0239 0.197978
689.728 49.4341 -0.380874
235.014 34.673 0.397397
13.9895 32.1168 0.158874
683.262 47.7266 -0.122479
531.268 41.7185 -0.449736
239.433 39.343 0.0916
694.401 38.9107 -0.121569
157.124 9.19877 -0.198316
384.536 21.9819 0.266261
483.218 43.5429 -0.124543
432.517 19.9176 0.207043
761.988 69.3948 -0.290677
445.235 3.89869 0.504596
51.9582 25.4925 0.312412
490.623 33.152 0.333453
454.139 43.3048 -0.347295
780.402 58.787 0.216476
739.868 41.0964 -0.234482
562.81 20.2015 -0.152139
771.201 58.6378 0.41179
306.355 2.2153 -0.461161
396.665 29.1506 -0.463688
30.3873 38.754 0.298565
745.612 42.2911 0.139589
630.1 20.6993 0.510665
482.83 0.785414 -0.467546
131.044 4.58846 -0.307924
445.324 42.7766 -0.0979508
12.2718 0.905256 -0.314629
789.186 6.97538 -0.193111
387.01 39.2545 -0.411163
[...]
POINT_DATA 13483
TENSORS Strain_matrix float
-0.47207 0.226302 -4.52474 
0.285369 0.34691 1.98789 
-7.23819e-18 -4.21309e-18 1 

-0.70796 -0.982169 219.023 
0.00465635 0.117515 79.272 
-4.13145e-18 5.31625e-18 1 

-0.102373 -0.00526838 -0.648488 
0.0157846 -0.0371658 4.52371 
-2.07983e-18 -2.4171e-18 1 

-0.902968 -0.290653 -0.522522 
-0.319412 0.279514 -1.05661 
-5.69715e-18 -1.78874e-17 1 

-0.30821 -0.104462 0.104217 
-0.0032301 0.0111471 -0.296521 
-1.33429e-17 -1.49441e-17 1 

-0.0819898 -0.0117877 -0.910879 
-0.0141995 -0.0128969 -1.04825 
-3.36556e-19 -1.38742e-18 1 

-0.0816077 -0.027825 -0.17518 
-0.0268512 -0.0840834 0.137302 
1.30348e-17 7.58322e-18 1 

-0.0861141 -0.0981082 -0.283046 
0.0117307 -0.078583 -0.229454 
-2.24221e-18 -1.58767e-17 1 

-0.264379 0.179367 0.0539036 
0.0366682 0.208015 0.688965 
4.1665e-18 -8.01656e-18 1 

-0.569346 -0.0858359 1.53618 
0.113334 0.172445 0.132289 
-1.21728e-17 1.03e-17 1 

-0.047498 0.0154804 -0.0722572 
-0.0153315 -0.0797 -0.0156931 
-6.28198e-18 -1.19657e-18 1 

-0.0748702 -0.0687824 0.180424 
-0.0176245 -0.101809 0.116932 
-5.78063e-18 -1.48475e-18 1 

-0.353525 0.243759 0.540875 
0.00657096 0.185365 1.60415 
4.11169e-18 -6.54922e-18 1 

-0.3101 -0.2082 0.486327 
0.383244 0.193546 -1.05098 
9.47097e-19 1.79141e-18 1 

-0.0923446 -0.022644 -0.81301 
0.0072176 -0.0443239 -0.675591 
-1.08912e-17 -2.54855e-18 1 

-0.0737703 -0.0113582 -0.506313 
0.00313645 -0.00122374 -0.46888 
-1.10049e-17 4.13402e-18 1 

-0.0809207 -0.0250717 0.142699 
0.0166532 -0.0886686 0.00354026 
7.18485e-19 -7.90334e-18 1 

-0.140637 -0.00564398 0.0260641 
0.0219127 -0.0691393 0.00591087 
4.12018e-18 -4.52214e-18 1 

-0.0710752 0.0129092 -0.35551 
0.0503631 -0.020263 0.843613 
-7.00477e-18 0 1 

-0.0796844 0.120269 -0.0269065 
-0.16642 -0.0888979 -0.021499 
2.61443e-18 -1.92293e-18 1 

-0.261394 -0.107558 1.09796 
-0.0903609 0.00762185 0.132714 
1.49843e-18 1.54124e-18 1 

-0.924895 -0.317965 -0.350663 
-0.411546 0.419604 1.31554 
-7.50956e-18 1.10667e-17 1 

-0.626949 0.061394 -4.03612 
-0.249055 0.337918 3.29213 
-7.43869e-18 1.10034e-17 1 

-0.54118 1.48876 -6.00142 
-0.881681 1.16231 7.22745 
1.11651e-17 6.20493e-18 1 

-0.0589434 -0.0424558 0.0194396 
0.0133716 -0.0388178 0.130056 
-6.89621e-18 7.80449e-18 1 

-0.0567653 0.0636195 0.0166639 
-0.0889596 -0.017665 -0.0883037 
6.03475e-18 -1.19218e-17 1 

-0.225978 0.0088766 5.92986 
0.0102962 0.0858053 0.832944 
-1.95039e-20 4.68093e-19 1 

-0.105559 -0.31351 0.103435 
0.10571 0.0963366 -0.923736 
1.89675e-17 4.10285e-18 1 

-0.0869583 0.00281456 0.196127 
0.0442309 -0.063712 0.623462 
-7.07291e-19 3.97969e-18 1 

-0.739495 -0.593151 0.537944 
0.357412 0.436012 -0.187655 
-7.91007e-18 1.37839e-17 1 

-0.095776 -0.0369388 -0.515292 
-0.0927212 -0.18236 0.3858 
-1.60764e-18 1.00478e-18 1 

-0.118577 0.0613789 -0.136481 
-0.0574825 -0.0815235 0.0604444 
2.17475e-18 7.36671e-18 1 

0.00911123 -0.481381 -0.58075 
0.371096 0.09775 0.34502 
-9.19833e-18 -5.13873e-19 1 

-0.159307 0.162349 -3.012 
-0.00473794 0.0659308 -2.30918 
-1.17159e-18 4.66562e-18 1 

-0.0438972 -0.00219507 -0.0393374 
-0.0297804 -0.0498301 -0.0277432 
1.19984e-17 -4.65959e-19 1 

-0.0613718 0.0465526 -0.28266 
-0.0581569 -0.0179096 -0.237551 
7.88818e-18 7.63643e-18 1 

-0.200417 0.15829 0.893529 
-0.0106755 0.0407364 0.176619 
2.29101e-18 1.01272e-17 1 

-0.0317718 0.137344 0.17468 
-0.178056 0.0386962 0.00763774 
-8.74115e-18 2.80287e-18 1 

-0.145772 0.0953483 0.264319 
0.0333962 -0.0889358 0.836503 
4.808e-19 1.6828e-18 1 

-0.0764733 -0.0398884 0.205836 
0.116623 0.00401719 -0.296021 
-3.28218e-18 5.37084e-18 1 

-0.101196 0.0112915 0.163531 
-0.107105 -0.00512147 -0.00248979 
-7.3417e-18 6.93022e-18 1 

-0.147672 0.0804831 -0.0932362 
0.00308858 -0.00386563 0.19739 
7.00094e-18 -9.16906e-18 1 

-0.304692 0.0736068 -0.159035 
-0.306197 -0.1415 0.386855 
1.02861e-17 -8.94107e-18 1 

-0.0532363 -0.0288786 0.373306 
0.00501143 -0.0850348 0.126478 
-4.17593e-18 9.82683e-18 1 

-0.0932193 0.0646594 -0.0423549 
-0.078302 -0.0590086 0.11291 
2.43531e-18 7.49288e-18 1 

-0.0686111 0.00118042 -0.0905933 
0.0143974 -0.0618344 0.0380323 
9.48539e-18 -4.03382e-18 1 

-0.632888 -0.236025 1.09849 
0.106663 0.0860394 -1.62802 
1.6225e-18 -1.121e-17 1 

-0.0570293 -0.0500288 -0.0555834 
-0.0525756 -0.0961716 -0.0404615 
1.69732e-18 -2.45327e-18 1 

-0.00215919 -0.38711 0.0238388 
0.412874 0.0948773 -0.201781 
-6.05283e-18 5.92125e-18 1 

-0.873108 0.255463 0.455733 
-0.311682 0.608296 0.16993 
-1.57417e-18 -7.49303e-18 1 

-0.0299229 -0.101521 0.0920109 
0.0150983 0.0257175 0.695877 
2.0211e-18 -8.7581e-18 1 

-0.794766 -0.478487 -0.251635 
-0.0184561 0.521013 -2.23292 
-4.62459e-18 1.05554e-17 1 

-0.0961419 -0.00164338 0.00558919 
0.00351827 -0.000147003 0.0191438 
-1.12096e-17 3.45799e-19 1 

-0.130385 0.033092 0.0984943 
-0.0240846 -0.0504542 0.0376372 
3.86023e-20 1.06928e-17 1 

-0.133445 0.00886471 0.0358201 
-0.0477366 -0.15992 -0.0372904 
-3.6379e-18 8.61475e-18 1 

-0.186126 0.0138566 -2.82724 
0.250361 0.0342243 0.859744 
-6.31082e-19 3.00131e-18 1 

-0.432431 -0.0147704 0.422997 
0.215706 0.256073 -0.0831521 
1.37036e-17 2.53124e-17 1 

-0.0884294 0.0498794 -0.113946 
0.00818804 -0.0594301 0.0466501 
5.03973e-18 2.68089e-18 1 

-0.0446162 0.0139542 0.00309702 
0.0146306 -0.13598 0.172521 
9.85925e-18 -1.87738e-17 1 

-0.0780573 -0.0144349 -0.141612 
-0.101337 -0.0773309 0.256509 
3.05292e-18 -4.05552e-18 1 

-0.202118 -0.391434 -3.54408 
-0.0126058 0.854514 0.956572 
1.529e-18 -2.16379e-17 1 

-0.0504782 -0.158643 0.0968847 
0.116802 -0.0113903 0.210531 
-1.23334e-17 -2.31063e-19 1 

-0.0915551 -0.0843394 -0.315131 
-0.0128195 -0.0454385 -0.100681 
5.46563e-18 1.20688e-18 1 

-0.488632 -0.146228 -0.511779 
0.0715808 0.161549 -0.0494891 
-2.54424e-18 -3.08511e-19 1 

-0.132189 0.011059 0.0395615 
-0.0295396 0.0505061 -0.0719268 
-1.22061e-19 -1.35859e-17 1 

-0.0779528 0.0352068 0.131835 
-0.0412313 -0.0518301 0.266332 
-4.71848e-18 -2.95023e-18 1 

-0.564791 -0.0266578 0.461458 
0.136692 0.188564 -0.723632 
2.30497e-18 -2.57093e-18 1 

-0.0465054 -0.454672 0.124816 
0.440115 0.119743 0.13759 
1.17517e-17 -4.52204e-18 1 

-0.114843 0.0158857 0.386454 
-0.0396555 -0.0982314 0.74075 
-7.77634e-19 1.03219e-17 1 

-0.216674 0.145086 0.184103 
-0.169563 -0.0427055 -0.306551 
-1.1979e-17 1.69718e-17 1 

-0.811574 0.635072 6.74301 
-0.101009 0.561744 1.75171 
4.71948e-18 -2.5674e-18 1 

-0.0692342 -0.000278759 -0.00653117 
-0.0198934 -0.0498032 0.0114323 
1.94893e-18 6.15374e-18 1 

-0.168246 0.300648 0.6531 
-0.274063 0.149397 0.583711 
-1.36225e-18 2.36501e-19 1 

-0.196634 0.338686 -0.821589 
-0.266937 0.253073 1.04751 
-3.70695e-18 -7.82282e-19 1 

-0.0743827 0.00775792 -0.396615 
-0.0107007 -0.0458663 -0.0220882 
-1.02819e-17 -6.32969e-18 1 

-0.0584001 -0.0152852 0.0541251 
-0.0356187 -0.0808839 0.0702495 
6.85443e-18 -1.76157e-18 1 

0.653011 3.37421 -10.6517 
-0.223647 0.130311 3.60774 
7.35415e-18 -5.34525e-18 1 

-0.0773635 -0.0184404 -0.119067 
0.0524636 -0.0802561 0.666573 
2.19272e-18 -5.22167e-18 1 

-0.906613 0.270598 -0.826658 
-0.230101 0.562631 -0.842156 
1.05161e-17 -6.89733e-18 1 

-0.146088 -0.713416 0.68641 
0.369353 0.162001 -0.321048 
1.17992e-17 6.14205e-18 1 

-0.152567 0.0301372 -1.08248 
-0.0843122 -0.0535688 0.489447 
8.109e-18 7.03465e-18 1 

-0.0920757 -0.188219 1.43775 
0.154581 0.0463324 1.62457 
-3.64154e-18 1.13168e-17 1 

-0.0331299 -0.00127091 0.0513623 
0.00478628 -0.0286126 0.0839885 
8.22862e-18 6.85718e-18 1 

0.952721 1.90588 2.50731 
-0.421982 1.04051 1.3237 
8.88617e-19 -3.80836e-18 1 

-0.203152 -0.266577 0.599945 
0.283688 0.0787434 0.121233 
-3.29506e-18 -4.11435e-18 1 

-1.43828 -1.14049 1.98618 
-0.409916 0.406065 1.17474 
1.58081e-18 1.58081e-18 1 

-2.92889 -4.21677 4.37615 
-0.0212615 0.58498 0.201372 
-1.06882e-18 -7.34871e-18 1 

-0.140957 0.0585969 -0.369014 
-0.0564086 -0.0455891 1.71301 
-9.39228e-19 4.31716e-18 1 

-0.173247 -0.0673211 -0.119926 
0.065749 -0.0607771 -0.0309856 
1.72019e-18 -9.93556e-18 1 

-0.0960881 0.00832079 1.82006 
-0.000233268 -0.0458813 0.805686 
-7.98267e-19 1.81249e-18 1 

-0.11616 -0.127361 -0.111492 
-0.049377 -0.048222 -0.122158 
4.55306e-18 5.77381e-19 1 

-0.166591 0.0377325 0.255249 
0.177068 -0.00438593 -0.13921 
-1.46198e-17 1.84949e-18 1 

-0.717182 -0.333177 -14.7129 
0.109181 0.389972 5.0423 
-1.37564e-18 3.66837e-18 1 

-0.0820749 -0.0506139 0.117821 
-0.020367 -0.100198 -0.09438 
-6.05371e-18 1.62205e-18 1 

-0.147722 -0.00778524 0.451903 
0.129738 0.105502 -0.460735 
-7.59078e-19 -5.3218e-18 1 

-0.120686 0.377906 -0.684866 
0.014688 0.19079 -0.449965 
4.27751e-19 -2.5283e-18 1 

-0.125307 0.037046 -0.270284 
0.0183406 -0.0302223 0.0829108 
1.11243e-17 -3.27653e-18 1 

-1.02084 -1.87725 -12.3917 
-0.158319 1.42613 0.66471 
9.17273e-18 1.06545e-17 1 

-1.03207 -0.261706 -3.01903 
0.0333371 0.584526 -0.613152 
7.67708e-18 5.54618e-18 1 

-0.0531592 0.00725706 -0.416327 
-0.0573252 -0.0119327 -0.385783 
-3.15556e-17 3.47283e-18 1 

-0.0552008 0.0410975 -1.19857 
0.0252811 -0.0478282 -0.787153 
-5.07175e-18 7.47962e-18 1 

-0.224089 -0.0935566 11.7292 
0.0550191 -0.0589388 24.1522 
-4.17154e-18 -4.34588e-19 1 

-0.0820319 0.0352482 1.16656 
-0.0282262 -0.0514256 2.96235 
1.45876e-18 -1.61598e-17 1 

-0.0742642 -0.188181 0.406967 
0.169111 -0.0062394 -0.0906068 
9.87762e-18 -8.12453e-18 1 

-0.0926379 -0.00848194 0.0197213 
0.0165619 -0.073158 0.277973 
-7.03052e-18 9.31755e-19 1 

-0.290383 0.0329971 -0.0384477 
-0.125019 0.019423 -0.214745 
1.218e-18 -1.5776e-17 1 

-0.824549 -0.10561 0.73292 
-0.204637 0.17383 0.138033 
2.92958e-18 2.49876e-18 1 

-0.0815798 0.0184794 -0.0826813 
-0.0151298 -0.0205657 -0.0429404 
5.72378e-18 5.48577e-18 1 

-0.121336 0.0263952 0.132953 
0.057834 -0.103979 -0.0708527 
1.04738e-17 -1.07647e-17 1 

-0.28789 0.278415 -0.221604 
-0.100592 0.0572817 -0.830022 
-1.67302e-17 -5.22503e-18 1 

-0.104848 -0.0235499 -2.25244 
0.00806929 -0.0368712 -0.0766187 
4.80144e-18 -3.53927e-18 1 

-0.0973747 0.0206754 0.381157 
-0.0109208 -0.0496647 0.673581 
2.55746e-18 -6.12566e-19 1 

-0.0719808 0.00777723 0.0100788 
0.0325429 -0.0838738 0.041481 
5.0935e-18 1.85218e-18 1 

-0.214983 0.0976223 0.154851 
-0.0974711 0.143971 -2.44885 
2.74407e-18 -5.46767e-18 1 

-0.268848 0.00570393 0.128832 
-0.0747117 0.0998534 -0.0556466 
7.11375e-18 1.3279e-18 1 

-0.0857233 0.0295209 -0.756091 
-0.0139527 -0.00883613 1.48321 
-1.81473e-18 2.87106e-18 1 

-0.137698 0.00894079 0.0565441 
0.021603 0.0113535 0.626293 
8.77459e-18 8.33586e-18 1 

-0.118515 -0.0625849 0.0346694 
0.158981 0.0691233 0.0219622 
1.6546e-18 -5.732e-18 1 

-0.212989 -0.188055 0.0650993 
0.46747 0.146648 0.508085 
7.06998e-18 -1.93799e-17 1 

-0.11339 -0.0109546 0.333744 
0.105013 0.0137045 -0.0575642 
2.24715e-18 2.80894e-19 1 

-2.14308 -1.67189 -0.431571 
0.735679 0.948839 -0.752559 
1.31257e-17 1.18287e-17 1 

-0.435812 0.0687584 0.00357667 
-0.0961808 0.121995 -0.343678 
-6.75812e-18 -7.0397e-18 1 

-0.0978352 0.0089995 0.056893 
-0.0238171 0.0157387 -0.129086 
-2.64974e-18 2.97092e-18 1 

-0.0625165 0.0265772 0.233055 
-0.0140727 -0.0282125 -0.211973 
-7.1265e-18 7.09538e-18 1 

-0.0815327 -0.0341163 -0.217301 
-0.0261797 -0.0708419 -0.0841439 
-9.30572e-18 -9.08645e-18 1 

-0.0888718 0.0349875 -0.411093 
-0.0175838 -0.139559 0.276094 
-6.78622e-18 1.57455e-18 1 

-0.12698 -0.139499 0.248527 
0.0622373 0.020483 -0.26592 
-8.676e-18 1.37256e-17 1 

-0.190233 0.040711 0.170798 
0.0882356 0.123112 0.250606 
7.67562e-19 4.98915e-18 1 

-0.0936555 -0.359201 0.291489 
0.378194 0.0758092 -0.521184 
2.34603e-18 8.53101e-18 1 

-0.0717087 0.0680574 -0.384877 
-0.0257441 -0.0760067 1.28854 
-1.02401e-17 -5.98335e-18 1 

-0.689445 1.10156 10.4232 
0.621506 0.11999 0.698218 
-1.43131e-17 1.71039e-17 1 

0.052259 -0.426435 -0.0521727 
0.49413 0.106062 0.118481 
8.32797e-18 3.85427e-18 1 

-0.388638 0.0772866 -2.06716 
-0.00964002 0.232679 -0.0962803 
-4.20666e-18 -5.00504e-18 1 

-1.08477 -0.0429899 -2.95738 
-0.325959 0.32757 0.414129 
-1.76318e-17 -5.79447e-18 1 

-0.281185 0.12464 0.222827 
0.00772582 0.14109 -0.00610259 
1.01062e-17 7.57963e-18 1 

-0.221343 0.159305 0.727876 
0.147656 0.0400866 0.135364 
-4.67078e-18 3.36636e-18 1 

-2.04357 1.05102 3.84108 
0.108998 0.486271 -0.381297 
4.24354e-18 2.80608e-18 1 

-0.0974463 -0.0563936 0.934387 
0.128959 0.0105037 -1.50549 
-3.50244e-18 -4.75185e-18 1 

-0.0710416 0.0580631 -0.0454088 
-0.0999952 -0.0978392 -0.0510463 
1.76088e-17 8.74567e-18 1 

-0.0857878 0.0464557 -0.291186 
-0.187958 -0.0460131 -0.536476 
-1.16262e-18 -1.99306e-18 1 

-0.194455 0.0556433 0.596776 
0.0403973 0.00661931 2.4279 
-6.04105e-19 2.04912e-17 1 

-0.0766048 -0.0741972 -0.493355 
-0.238308 0.0673814 -0.229658 
-2.32919e-17 -4.82014e-18 1 

-0.0301546 -0.0234102 0.0497427 
0.157016 -0.0338252 0.154128 
3.13722e-18 -3.05007e-19 1 

-0.0563467 -0.012945 -0.801909 
0.0113905 -0.0411363 -0.496601 
-1.22717e-17 4.62736e-18 1 

-0.0509016 -0.00262703 0.0519466 
-0.0248963 -0.00548266 0.0621575 
6.96533e-18 3.60524e-19 1 

-0.159193 -0.167612 -0.462257 
0.155556 0.0503675 0.314442 
4.26023e-18 0 1 

-0.546612 0.543815 0.596885 
-0.524039 0.300373 -0.0952019 
1.339e-17 6.00898e-18 1 

-0.100259 0.0168394 0.0300578 
-0.000651613 -0.117229 -0.32248 
-6.21057e-18 -6.62994e-18 1 

-0.137373 -0.170658 2.30998 
0.168045 0.0877461 -0.326553 
2.55705e-18 3.87596e-18 1 

-0.0363321 0.0829776 -0.0984519 
0.109868 -0.0188541 -0.407581 
4.94547e-18 -6.77669e-18 1 

-0.0930448 -0.0423741 4.38821 
-0.00114756 0.000741343 2.21699 
4.98385e-18 3.5572e-18 1 

-0.124919 0.0107642 -0.0493355 
0.0949936 -0.0458437 0.0532631 
-1.59263e-17 -2.12862e-18 1 

-0.0958804 -0.0442574 -1.46019 
0.0129743 -0.0375557 -0.967293 
6.2372e-18 3.61612e-18 1 

-0.116654 0.0435613 -3.07064 
0.0118474 0.0370087 -6.03859 
-1.39295e-18 6.84866e-18 1 

-0.0917144 0.0201379 0.4396 
-0.00674501 -0.0422524 0.643137 
5.80762e-18 9.07441e-19 1 

-0.183533 -0.0206744 -0.489727 
-0.0668721 -0.00147406 -2.10388 
5.82078e-18 -1.42469e-17 1 

-0.23823 -0.0942696 -0.809326 
-0.0895047 0.0926533 1.94034 
1.11533e-17 1.62554e-17 1 

-0.0729127 -0.0205624 3.77511 
-0.0700701 -0.0409189 3.11406 
2.73169e-20 1.80291e-19 1 

-0.6072 2.2764 6.66018 
-0.379746 1.6591 0.360373 
7.76411e-18 1.0241e-17 1 

-0.760372 0.611274 -0.514611 
-0.000881509 0.289761 1.65927 
7.09684e-18 -4.04616e-18 1 

-0.530261 0.366584 -27.5926 
0.163533 0.188064 -12.41 
3.03979e-18 2.59269e-18 1 

-0.573022 -0.247516 2.82537 
-0.00256432 0.104607 0.957239 
-7.87156e-18 -7.64949e-18 1 

-0.480948 0.198713 -2.13825 
-0.22009 0.295584 -1.0617 
5.815e-18 4.71596e-18 1 

-0.225676 -1.01481 89.547 
0.0298146 0.309534 17.1459 
-3.11905e-19 -1.37176e-18 1 

-0.124068 -0.0832256 -0.355505 
0.0894981 -0.0147973 -0.33718 
-5.32451e-19 -4.80685e-19 1 

-0.853289 -0.45289 -0.884288 
0.0845631 0.265047 -0.748208 
-5.2283e-18 2.61415e-18 1 

-0.112085 -0.0189658 0.171174 
0.00264829 0.0135909 0.171803 
7.32122e-18 -1.05489e-17 1 

-0.0858824 -0.0462932 0.263599 
0.0355686 -0.0541161 0.0810725 
1.01737e-17 1.60638e-19 1 

-0.0654315 -0.0262255 -0.245221 
-0.00782847 -0.103097 0.193797 
-9.76195e-19 5.23421e-18 1 

-0.163229 -0.0120831 0.0553845 
0.0170962 -0.0131866 -0.256991 
-1.05706e-17 -1.36742e-18 1 

-0.0875105 -0.00886669 0.0613713 
0.0213095 -0.0556952 -0.0199967 
2.96332e-18 -3.96794e-18 1 

-0.101239 0.0390546 0.391293 
0.016817 -0.00530022 0.140832 
1.91325e-18 -5.11925e-18 1 

-0.131289 -0.0806858 -0.396313 
0.000978023 0.015779 0.0234392 
-7.92781e-19 -4.17862e-18 1 

-0.241314 0.022911 -2.94825 
-0.231868 0.132308 1.41769 
1.97338e-18 -8.50073e-19 1 

-0.183998 -0.338401 -0.235503 
0.41184 0.13734 0.278114 
6.45437e-18 5.70217e-18 1 

-0.0691856 0.0278849 0.272076 
-0.0319369 -0.0605241 1.06284 
3.53108e-18 -5.3907e-18 1 

-1.72451 1.1544 12.688 
-0.275485 0.728356 0.383749 
8.7936e-19 -5.9565e-18 1 

-0.101464 0.000611476 -0.0107588 
-0.0210437 -0.0602658 -0.145776 
1.7103e-18 -1.0907e-17 1 

-0.0602961 0.178903 0.107361 
-0.215328 -0.054555 -1.01168 
-3.86674e-18 2.99673e-18 1 

-0.185166 -0.0407536 -0.146516 
-0.008167 -0.04552 -0.0608505 
1.31319e-18 2.14398e-19 1 

-0.0819649 -0.081018 -0.122536 
-0.0171993 0.00279009 0.142715 
-2.68124e-17 -1.44459e-17 1 

-0.21636 -0.0215054 0.391756 
-0.160741 -0.0623247 0.0502316 
-1.67317e-17 2.44481e-18 1 

-0.286231 -0.113134 0.555736 
-0.00165797 0.0435644 -0.119117 
-2.53588e-18 7.85755e-18 1 

-0.0808573 -0.00158744 -0.563784 
0.0201988 -0.0610882 -0.0854073 
4.94978e-18 -1.63481e-18 1 

-0.151982 -0.0356709 0.00331916 
0.089403 -0.0469472 -0.389879 
6.86198e-18 1.32338e-17 1 

-0.133925 -0.0143383 0.105403 
-0.0598822 -0.0589437 0.243733 
-2.69116e-18 -4.15126e-18 1 

-0.0646888 -0.0688176 0.788705 
0.0640023 -0.0757026 0.638707 
-5.45583e-19 6.04338e-18 1 

0.540486 -0.977422 -0.272238 
0.896926 0.73804 -0.0903674 
-2.32413e-20 -1.30616e-17 1 

-0.0638682 0.0310435 -0.0724429 
-0.0532855 -0.0460785 -0.0378682 
2.79609e-18 -7.17555e-18 1 

-0.677931 -0.378146 0.541748 
1.25135 0.410362 0.421363 
-1.06811e-17 -1.30238e-17 1 

0.227439 -0.79663 0.140932 
0.893626 0.437608 -1.54081 
-4.62251e-18 -1.07263e-17 1 

-0.137003 0.000145722 0.152403 
0.0506925 -0.0138466 -0.0316783 
-9.55557e-19 -7.06751e-18 1 

-0.457355 -0.296696 -0.666899 
0.0593707 0.117384 0.180083 
6.73333e-18 -1.83163e-17 1 

-0.759278 -0.259425 -2.39778 
0.217416 0.459037 0.805861 
-4.09563e-19 9.28679e-19 1 

-0.507671 0.668433 2.37597 
-0.906116 0.605579 0.847795 
-5.33382e-18 7.10065e-18 1 

-0.101195 0.0158341 -0.11131 
-0.0174092 0.0144378 -0.348984 
-5.13969e-18 3.63483e-18 1 

-0.0896853 0.167283 -0.473022 
-0.100047 -0.0301785 -0.817071 
-1.22022e-17 -9.00177e-18 1 

-0.106181 -0.0628421 -0.373312 
-0.0687344 -0.0838984 0.307164 
6.79076e-18 -7.83079e-18 1 

-0.178313 -0.0147675 0.0569912 
-0.0618462 -0.0121804 0.154283 
1.23818e-17 9.21309e-18 1 

-0.19304 -0.00278095 -6.17437 
0.471601 0.119263 -0.283633 
-1.25981e-18 -5.72753e-18 1 

-0.887172 0.259057 -10.6238 
0.431294 0.13046 0.61893 
-5.81485e-18 -3.10893e-18 1 

-0.0742006 0.038981 0.166273 
-0.0126157 -0.0370052 -0.0304457 
-3.69364e-18 3.03587e-18 1 

-0.135214 0.0685398 -0.016576 
-0.0742386 -0.0220154 0.15752 
-3.24756e-18 3.54469e-18 1 

-0.615177 -0.280224 0.156873 
-0.0997521 0.402781 1.43924 
1.09288e-18 2.95077e-17 1 

-0.0827368 -0.14019 0.0984873 
0.119206 -0.0454741 0.0454944 
4.02126e-18 2.01063e-18 1 

-0.0973045 -0.0400235 0.536064 
0.0591619 0.0524149 0.0142291 
7.96641e-18 1.61637e-18 1 

-0.0941194 -0.0282206 0.625104 
-0.0263987 -0.0116218 0.180761 
-8.78527e-19 3.34677e-18 1 

-0.11056 -0.0503953 -0.0506275 
0.119611 0.0359927 0.294122 
0 5.81732e-18 1 

-1.46686 -0.726886 5.27053 
0.613345 0.617751 -3.1418 
-1.8461e-17 1.7727e-18 1 

-0.453155 -0.316203 0.0459328 
0.209888 0.369293 0.011414 
7.28795e-18 -1.82199e-17 1 

-0.107765 0.00826929 0.43865 
-0.0447534 0.012583 -0.262508 
-6.14896e-18 1.03727e-17 1 

-0.159888 -0.0854048 0.405714 
0.0371319 -0.0184471 -1.26903 
-8.82234e-18 1.01628e-17 1 

-0.0630698 0.0370637 -0.331304 
0.0131156 -0.0989384 -0.179714 
1.18139e-18 8.66353e-18 1 

-0.0712183 0.000437389 0.321073 
-0.0232445 -0.018243 -0.865061 
-4.10649e-18 4.92517e-18 1 

-0.327077 -0.0387821 -2.00482 
0.0149107 0.122814 -0.160515 
1.23007e-18 -7.39515e-18 1 

-0.160292 -0.0272787 -0.321586 
-0.0121822 0.0303979 -0.170424 
-1.07044e-17 9.18219e-18 1 

-0.104035 -0.105094 0.0664837 
-0.0127365 -0.114814 0.264542 
-2.85845e-18 -1.60509e-17 1 

-0.109516 0.103339 1.35438 
-0.106526 0.0309376 1.65579 
6.24701e-18 8.06265e-18 1 

-0.101352 -0.375009 0.201734 
0.309536 0.0195419 -0.218292 
8.76976e-20 7.62969e-18 1 

-0.0915442 -0.374141 -0.170251 
-0.101928 0.131405 0.803171 
1.27825e-17 3.58365e-18 1 

-0.154381 0.253346 22.7043 
-0.000529493 -0.0397808 0.661273 
1.07973e-18 9.44656e-19 1 

-0.295126 -0.216746 -1.1261 
-0.250464 0.14539 1.94413 
-4.28225e-18 -1.39276e-17 1 
