# vtk DataFile Version 3.0
Output file generated by Yade's KinematicLocalisationAnalyser
ASCII
DATASET UNSTRUCTURED_GRID

POINTS 13483 float
433.788 43.5411 -0.58788
519.142 90.6987 -0.541835
104.001 5.83238 -0.497301
556.41 9.79579 0.302664
367.426 14.2018 0.353323
248.793 60.2351 -0.521128
135.902 7.73324 0.48873
412.353 11.6481 -0.179681
370.02 42.6803 0.183657
508.924 18.7731 -0.429193
174.792 9.23113 -0.163193
213.665 6.20942 0.407661
451.931 56.3 -0.144325
448.806 35.2219 -0.099668
120.024 21.7235 -0.567188
183.258 42.0323 -0.404152
180.679 13.5703 -0.288808
238.187 12.2149 0.483183
271.818 52.5914 0.443373
381.056 10.7056 0.49513
325.971 69.8996 -0.102089
418.942 52.1254 0.302671
545.314 71.2731 -0.48316
472.21 64.8547 0.43952
346.798 25.9384 0.346691
198.465 52.4655 0.141052
364.1 54.594 -0.476978
421.723 24.7467 -0.264933
37.8913 17.4639 0.60459
492.928 49.1845 -0.385578
357.412 4.28151 0.495945
12.8096 28.1049 0.335719
533.591 89.2393 0.24244
366.493 3.96711 0.582052
67.0556 50.4221 -0.113394
381.205 48.2093 0.355693
387.454 27.1757 -0.475386
269.445 37.2762 0.168638
390.228 39.5771 -0.327239
281.513 60.2577 -0.393274
201.633 16.9552 -0.337375
331.522 64.5719 0.0747123
476.886 5.18364 0.257386
161.512 8.19907 0.453868
47.0433 7.12292 -0.109998
57.9718 9.56222 -0.253952
489.705 8.38141 -0.52756
20.8967 13.3035 -0.289051
413.431 65.8618 0.397304
476.59 36.8234 0.465522
143.962 41.297 0.297403
514.597 79.2354 0.13742
29.7042 31.4708 -0.119179
387.911 2.60672 0.582256
123.177 7.4085 -0.551647
429.381 45.4279 0.46742
371.772 49.255 0.133735
152.331 0.979087 -0.257574
28.2264 2.29478 0.401911
274.122 33.2274 0.324015
408.428 86.7674 0.132096
352.066 52.0843 0.19534
301.825 6.47361 -0.266027
498.333 9.21781 -0.590771
20.7257 45.8945 -0.275633
215.636 39.7275 0.293931
513.027 11.8588 -0.266775
460.421 85.8645 0.345923
317.789 9.31989 -0.689079
414.857 5.47762 -0.443575
512.696 58.5811 0.452428
114.062 8.62238 -0.321549
369.696 48.4624 -0.156545
360.289 26.6396 -0.132126
242.906 19.0711 -0.392459
17.6351 14.844 -0.308042
533.985 81.1318 -0.321154
264.01 57.9242 -0.317863
477.595 35.2181 0.337511
488.167 14.8911 0.271478
544.965 43.0425 -0.258473
351.749 57.5305 -0.169523
81.168 45.8389 0.135627
467.496 55.7769 0.276779
438.445 75.4299 0.112217
549.676 76.2769 0.116814
548.015 0.705803 -0.593446
240.979 32.3073 0.433795
454.75 10.8985 -0.287025
21.7349 5.88425 0.611472
114.712 49.0313 0.159112
379.171 22.4707 0.244232
527.739 64.8118 -0.477723
167.359 37.9418 -0.250161
37.2946 41.3066 -0.284511
366.396 2.5482 -0.212111
198.154 9.69029 -0.363699
493.927 84.0134 0.253259
521.927 49.5174 0.249842
282.879 46.9889 -0.265104
139.445 32.7019 -0.440751
397.517 74.9028 -0.425919
295.755 33.0752 -0.47812
319.778 39.5209 0.115173
291.307 23.0911 0.380068
398.077 14.0537 0.164314
556.427 25.0863 -0.282087
69.5109 45.7991 -0.442338
277.171 5.962 -0.182368
408.65 14.8134 0.359984
287.038 74.3417 0.0939992
20.5518 27.6883 -0.493652
26.6077 6.07456 -0.344772
406.666 48.132 0.470884
374.865 43.7269 -0.162944
19.6805 39.0731 -0.40592
80.5166 34.8676 0.224074
267.37 17.9499 0.408916
437.663 23.7106 0.126061
347.909 68.8183 -0.304721
522.75 13.7916 0.508112
520.28 7.39727 0.264728
308 54.2282 -0.1177
449.937 52.1581 0.0919755
199.833 20.1117 -0.491178
273.562 5.04864 0.48731
89.4325 36.0197 0.315218
101.628 26.3197 -0.273518
394.687 80.9118 0.0944755
254.364 19.7118 0.564595
491.129 57.0761 -0.101266
465.589 86.4873 -0.105001
361.996 40.1134 -0.489698
546.204 20.5006 0.345287
328.376 34.8754 0.221531
228.451 32.7697 0.307652
462.945 70.623 0.289997
232.341 35.2439 0.391141
422.163 14.9505 -0.251048
265.738 54.8554 0.188222
373.985 19.9957 0.628571
294.989 58.2489 0.0845573
327.753 18.2143 0.104155
252.759 65.19 0.443806
165.182 37.9959 -0.11475
524.159 89.011 0.160598
553.257 30.5975 -0.295164
5.94416 12.9564 -0.434089
330.281 29.7245 -0.475138
33.6523 26.0114 0.0811678
299.025 55.3017 -0.455728
308.12 37.1643 -0.286995
63.5538 13.6006 -0.514858
41.0533 41.9568 -0.463145
190.803 14.3237 0.513895
409.495 80.1889 0.415323
419.363 26.9664 -0.437092
64.0941 23.0428 0.498758
475.561 67.109 0.429067
538.016 8.6375 0.696497
454.734 78.6772 0.46711
496.076 1.6528 -0.53906
400.125 41.6805 -0.421643
418.358 50.6859 -0.481092
379.999 28.9319 -0.401846
555.258 5.4187 -0.443259
190.381 30.6897 -0.108366
115.879 42.824 -0.207839
208.013 7.59425 -0.423239
81.5439 4.68011 0.30162
54.6826 11.9438 0.255348
231.314 44.0195 -0.250388
13.7556 29.4832 -0.389937
402.854 28.5994 0.501145
417.561 68.1522 -0.200698
355.163 36.479 -0.42307
546.835 90.5051 -0.35208
311.759 10.5409 -0.198663
331.428 56.9573 -0.412075
395.292 3.40427 -0.325677
18.511 26.2526 -0.388399
423.904 6.42292 0.595402
403.261 8.79638 -0.265295
173.932 14.0656 0.549951
324.268 18.0467 -0.304604
259.383 6.75453 0.510779
303.186 34.2317 -0.373241
501.893 72.0644 0.107543
166.729 33.1827 -0.393178
550.161 12.9117 -0.463422
504.246 69.1558 -0.34053
299.714 23.6753 0.198598
512.187 2.2898 0.495611
437.105 42.0052 -0.439145
518.577 28.9958 0.50379
338.362 62.4592 -0.291209
367.692 20.9711 0.378414
341.439 63.6014 0.22732
341.778 17.4558 0.152778
458.476 79.3344 0.273164
458.149 75.1572 0.306441
165.517 48.0855 0.361475
542.639 42.6709 -0.108006
421.815 49.1467 0.353761
9.31485 19.7959 0.19735
316.373 34.0372 0.418506
161.523 31.155 0.408206
82.6877 46.9664 -0.248678
526.786 55.4745 0.435469
452.06 83.5777 0.223303
262.954 33.4148 0.339615
391.973 10.4271 0.312739
72.1787 51.2497 0.169734
208.332 31.4698 -0.498628
404.363 33.8234 0.444281
366.897 31.9865 0.429578
221.043 0.870391 -0.551648
403.405 66.5667 0.34614
385.517 77.5351 -0.449494
360.975 68.5644 0.372318
372.304 5.4092 -0.592006
500.713 21.6442 -0.420578
153.892 17.5775 0.180118
369.958 66.5906 0.456843
408.843 53.1091 -0.150453
63.1472 0.919465 -0.351668
212.369 4.73834 -0.218773
551.851 33.9392 0.16405
545.262 44.9572 -0.412515
556.49 38.6526 -0.528827
252.825 9.08544 -0.237139
522.181 35.0748 -0.420267
324.898 75.5178 0.309418
342.609 2.16749 0.622953
445.037 69.753 -0.422205
21.7501 33.5737 0.310576
266.134 59.3858 -0.571683
212.993 2.93607 0.554728
537.464 87.386 -0.17603
483.012 66.7366 -0.243512
240.378 13.588 0.294279
457.439 63.7893 0.0888332
411.538 2.59783 0.34221
400.658 8.19622 0.546795
84.5274 20.9386 -0.471651
253.711 1.02307 -0.381148
284.62 3.48349 -0.601024
12.7568 8.42434 -0.674311
2.73821 42.9104 -0.259346
139.983 23.9103 -0.340327
59.144 47.1192 -0.232833
59.3368 34.3858 -0.315369
325.463 15.1464 -0.455025
296.033 65.3573 0.506599
511.033 80.5439 0.115269
18.1479 4.64626 0.351186
61.3167 8.15145 -0.192022
418.67 75.941 -0.151573
245.593 0.903829 0.455912
285.505 37.3986 0.0848285
199.681 4.90593 0.619095
467.682 45.108 0.186589
345.282 16.505 0.463091
525.8 35.6846 -0.393411
442.163 60.2427 -0.343472
481.329 28.0196 0.0796377
326.221 39.3917 0.569076
92.8522 49.8329 0.0767658
399.996 78.1429 -0.0115367
516.137 25.4428 0.178523
203.434 35.6641 -0.253107
27.8914 20.363 0.181974
278.118 16.3258 0.532065
96.1934 43.1798 -0.521778
228.514 54.8133 0.180112
330.212 2.17498 -0.265067
530.105 74.7094 0.393397
490.889 0.718513 -0.520486
277.812 4.35459 0.450512
251.122 33.4228 -0.0404254
344.906 62.6548 0.122608
70.4108 8.90377 0.601708
168.614 57.2062 -0.37791
522.189 59.9236 -0.391156
369.69 71.9924 0.0646965
171.701 53.9908 -0.276012
136.909 53.2307 -0.467777
553.612 69.4306 -0.435288
555.106 27.5708 -0.618784
450 3.87443 -0.672919
165.451 31.7892 -0.0958459
400.591 46.6982 0.110541
400.548 40.0016 0.316027
315.301 6.5757 -0.124105
363.454 0.96664 0.401897
509.148 83.49 -0.529002
74.6518 36.5493 0.214845
471.883 32.8206 0.488249
228.26 21.1983 -0.333481
8.74444 2.34387 0.33854
113.778 43.0931 -0.199686
57.5368 28.1237 0.441331
479.564 52.8211 -0.376955
538.04 97.8378 0.173895
161.516 36.1654 -0.169305
550.099 34.9373 -0.295263
37.2665 45.1355 -0.278487
79.997 32.9388 0.164694
457.818 34.3392 0.405379
320.97 18.6705 -0.607376
385.719 27.7583 0.125016
202.454 33.1759 0.22931
459.782 11.3942 -0.54692
556.561 29.7587 0.653662
24.8736 35.0628 0.292668
227.571 8.80498 0.282654
188.315 16.1515 0.269824
1.06884 54.0854 0.16697
191.486 15.2938 -0.456915
178.429 11.41 -0.128452
182.54 30.8757 -0.287774
117.535 32.8077 0.135268
401.153 21.3761 0.355417
144.788 16.9124 -0.362042
531.123 87.035 -0.221344
152.406 5.20964 -0.610347
38.893 48.1234 0.443514
485.876 92.978 -0.426127
238.028 36.7056 0.411656
477.527 37.8015 -0.543458
534.244 70.4044 -0.459931
251.142 9.97016 0.245688
507.652 55.3288 0.35901
275.555 2.61717 -0.329249
323.069 30.2611 -0.391829
480.225 20.6712 0.459208
93.1521 12.8303 0.454639
363.627 4.13947 -0.499269
527.298 28.452 0.302091
76.2043 7.79354 -0.405049
234.877 17.2261 0.217651
326.821 12.7283 0.218716
553.159 2.27461 0.644425
305.863 4.75009 0.465843
150.866 45.3896 0.276132
518.62 22.1524 -0.33227
116.204 45.9495 -0.175647
221.552 43.9338 0.38716
311.673 29.2034 0.255943
422.816 16.7572 -0.425624
302.358 19.3318 -0.49872
351.631 42.3932 -0.466486
520.048 91.3987 0.389775
41.4369 12.025 0.134012
243.87 55.8312 -0.318404
302.753 45.3044 -0.440674
318.326 26.4528 0.29949
382.223 65.6168 -0.411323
502.972 81.0584 0.184059
463.202 76.572 0.342199
191.554 38.7799 0.420355
6.63288 41.3114 0.147957
456.162 75.0247 -0.137664
380.034 59.3831 0.525698
195.519 43.2094 0.10795
472.459 51.6939 -0.140193
133.427 10.2829 -0.30623
291.272 42.1267 0.248933
343.461 64.257 -0.123141
320.942 23.3285 0.247495
515.931 92.7454 -0.290811
330.53 3.79111 0.70424
43.3724 28.3112 0.318805
357.012 60.7795 -0.360318
335.566 56.9925 0.37804
535.342 82.4566 0.214057
504.469 55.0542 -0.245357
395.471 24.552 0.129989
525.256 82.1759 0.414051
245.481 2.11768 -0.531201
301.682 51.6749 -0.47386
22.8105 41.1224 -0.317209
508.679 57.0044 -0.153341
444.989 27.4217 0.562785
346.597 0.653474 0.518477
111.238 5.56965 -0.419748
335.595 64.2563 0.108378
11.0998 0.870459 -0.318047
554.583 10.8868 0.121835
301.299 66.3371 -0.249277
[...]
POINT_DATA 13483
TENSORS Strain_matrix float
-1.57234 -1.13462 57.4513 
0.794023 0.79503 11.1608 
9.49676e-18 -6.02355e-18 1 

-1.03412 2.27259 -365.961 
0.11438 0.359252 43.6509 
8.48511e-19 -8.59799e-18 1 

-0.139267 -0.145531 -0.17485 
0.113453 -0.0438338 0.247584 
1.75843e-17 1.34268e-17 1 

-2.73925 -1.91041 1.31536 
0.46335 1.41 -0.881781 
-3.60473e-17 -8.86506e-18 1 

-1.01854 -0.880333 -0.431014 
0.579426 0.524013 0.590123 
-5.71436e-18 -6.86504e-18 1 

-0.523062 -0.800523 -0.51765 
-0.0368797 0.505228 30.5964 
7.17439e-18 3.02012e-18 1 

-0.270457 0.0541889 -0.468433 
0.0287926 0.00922447 -0.665693 
2.42216e-17 6.24226e-18 1 

-0.38395 0.0480562 0.143657 
0.00989282 0.0416513 -0.917002 
2.0845e-17 -9.00337e-18 1 

-1.60611 0.34259 -1.83212 
-0.496022 0.63462 1.00579 
9.22662e-18 3.90357e-18 1 

-1.29245 -1.02711 -0.789313 
-0.330384 0.505197 -1.55853 
-3.62031e-18 -2.26269e-18 1 

-0.747671 -0.27846 0.294925 
0.0446807 0.280359 -0.495182 
7.18646e-18 3.80053e-18 1 

-0.397679 -0.179478 0.358421 
0.0735663 -0.0231058 0.067956 
-5.33117e-18 1.58269e-18 1 

-1.23037 -2.99721 -2.35365 
-0.0720662 0.317406 0.362477 
5.9007e-18 3.8742e-18 1 

-0.876784 -1.28649 -1.69215 
1.06591 1.14306 -0.599337 
3.12879e-18 -1.72083e-18 1 

-0.44189 -0.0939798 8.52137 
0.0692272 0.132807 9.14229 
-2.49005e-18 7.54383e-18 1 

-0.760996 -0.239036 -5.74905 
-0.517917 0.417634 -2.1571 
-4.52495e-18 1.73272e-17 1 

-0.184359 0.0173361 -0.384437 
-0.0421652 -0.0215061 -0.533303 
1.58621e-17 -9.2529e-18 1 

-0.34012 -0.0477 -0.38784 
0.136896 -0.092997 0.0822234 
1.12932e-18 1.06156e-17 1 

-0.295165 1.00791 2.55977 
0.224575 0.0895056 2.36037 
-1.06421e-17 6.23022e-18 1 

-0.573679 0.527021 4.08152 
-0.513735 0.226811 0.387245 
1.3947e-17 -9.16812e-20 1 

-0.154867 -0.486386 0.626117 
0.436636 0.192801 -0.460779 
1.5929e-18 1.34855e-17 1 

-1.51746 -1.893 4.18967 
0.082893 1.33812 3.54295 
6.37295e-18 7.45311e-18 1 

-0.745378 0.26117 -11.4552 
-0.271513 0.296642 4.29122 
8.15473e-18 -9.21596e-19 1 

-3.84374 1.15331 -27.2706 
-2.4218 1.86837 -6.84596 
2.46701e-18 -2.46096e-18 1 

-0.0528803 -0.233028 0.248263 
0.224465 -0.0319126 0.115189 
-1.64198e-18 -1.50933e-17 1 

-1.18923 0.00589151 5.23552 
0.200527 0.404371 0.771818 
1.01433e-17 -2.41506e-18 1 

-2.02787 -0.980607 -18.9067 
-0.335803 0.645401 -1.68183 
7.19564e-19 4.63978e-18 1 

-0.290965 -0.382919 0.309058 
0.180036 0.113287 1.29975 
6.37035e-18 1.35308e-17 1 

-0.278676 -0.0692799 8.64765 
0.0525594 0.110773 -2.07344 
-9.89509e-19 -5.49026e-18 1 

-0.747129 -2.5695 -0.366396 
0.219305 0.827422 1.97415 
7.42079e-18 6.44166e-18 1 

-0.260965 -0.156959 -0.82193 
-0.140637 -0.314081 0.604173 
-1.38038e-17 1.76154e-17 1 

-0.783989 0.223293 -0.848723 
-0.366008 0.464513 0.148932 
9.09992e-19 -8.55712e-18 1 

-0.0318254 -0.41235 -0.691285 
0.32205 0.0954051 0.606786 
6.65577e-20 -1.11817e-18 1 

-1.1594 0.102553 -13.6384 
0.217827 0.640253 -6.61513 
-7.1605e-18 2.31485e-17 1 

-0.0958365 -0.135944 -0.00482422 
0.200174 -0.0605352 -0.20635 
-1.31979e-18 -4.72518e-19 1 

-0.174092 0.189063 1.52919 
-0.417743 0.0122605 -2.21679 
7.88424e-18 -5.95761e-18 1 

-1.68997 -0.0846453 -3.34816 
-0.362334 0.617185 -2.35792 
-6.19519e-18 -5.36232e-18 1 

-1.785 -0.343453 1.52311 
0.635442 0.783796 -0.902774 
-6.55618e-18 9.55098e-18 1 

-1.05591 0.260843 2.39234 
-0.153019 0.188936 -0.686821 
-5.60615e-18 -5.61381e-18 1 

-0.375027 0.00548643 0.395205 
0.429824 0.230807 0.400334 
7.5174e-18 -8.41622e-18 1 

-0.473616 -0.312787 0.871203 
0.0465779 0.240108 0.217431 
-6.88219e-18 -2.31545e-17 1 

-0.193181 0.790365 5.76583 
-1.07262 1.0326 0.108719 
-1.51627e-17 1.36764e-17 1 

-0.171801 -0.0861956 0.147434 
-0.653306 -0.0792916 0.364105 
2.42694e-17 1.24294e-17 1 

-0.486525 0.497547 -0.198953 
-0.501137 0.136582 -0.379536 
1.6691e-17 -1.04319e-17 1 

-0.511658 0.0483475 -0.519679 
-0.0787657 0.235929 -0.336 
1.08492e-17 -2.10108e-19 1 

-0.167816 -0.11966 -0.240063 
-0.0757278 -0.012398 -0.262657 
1.9495e-18 -3.54455e-18 1 

-0.816266 -0.422998 0.411174 
0.113691 0.262754 -0.34321 
1.61844e-18 3.80808e-19 1 

-0.156872 0.12458 -0.179366 
-0.0700362 -0.0137402 0.0690447 
-9.68773e-18 -8.93087e-18 1 

0.689705 -3.22218 2.1181 
0.92343 1.69236 0.445039 
-2.36622e-18 6.28023e-18 1 

-2.85009 -1.48562 3.01667 
-0.804343 0.0554897 -0.439161 
1.7443e-17 -1.93088e-17 1 

-0.288166 -0.145212 0.424441 
-0.234232 0.151716 0.0251931 
5.57386e-18 -3.77584e-18 1 

-0.623791 0.00540713 -0.781203 
0.261855 0.245934 -0.763385 
-7.39906e-18 6.62833e-18 1 

-0.100997 -0.0850953 0.0555619 
0.078001 0.00908397 -0.126589 
1.92355e-18 4.31786e-18 1 

-0.416231 0.392133 0.116867 
-0.0777572 -0.126841 0.253648 
2.64762e-17 2.65908e-17 1 

-0.25759 0.0183504 -0.925181 
0.0657839 -0.149639 -0.43288 
1.08981e-17 -3.0964e-18 1 

-1.0432 -0.484461 -3.48173 
1.31134 0.703663 0.467343 
-6.11977e-18 -1.2382e-17 1 

-2.18393 -1.09244 1.84644 
-0.40563 0.455468 0.554225 
1.34685e-18 1.9881e-17 1 

-0.722559 2.13462 1.58279 
0.126351 0.598384 1.2024 
-2.03018e-18 -6.69958e-17 1 

-0.134767 0.0536619 0.324959 
-0.0724097 -0.122101 0.181643 
-3.83553e-18 -1.55728e-17 1 

-0.819499 -0.92851 0.829035 
0.53617 0.492815 0.29309 
1.59145e-18 -4.16808e-18 1 

-1.47728 4.53973 17.3598 
-0.00863366 0.994344 -1.0589 
3.83396e-19 -5.20948e-18 1 

-1.06102 0.218236 1.1739 
1.37629 0.247956 -0.650045 
6.50851e-18 -3.24925e-18 1 

-5.51238 -7.34182 -7.30188 
0.323556 1.04243 0.946505 
-1.83566e-18 1.18006e-18 1 

-0.707896 -0.177462 -4.16909 
0.120196 0.115827 2.69058 
-6.91546e-18 4.37874e-18 1 

-0.90635 0.0908356 1.24064 
-0.0635928 0.330005 -0.135277 
2.18054e-18 1.19698e-17 1 

-0.391722 1.19375 0.0462562 
-0.0493466 0.0571794 -0.199454 
-2.00013e-17 -5.06539e-18 1 

-1.33624 -0.706615 2.27351 
0.37085 0.592767 -0.799996 
-2.29091e-17 -1.31742e-17 1 

0.00138956 -0.372201 0.00552472 
0.442562 0.0828809 -0.31581 
8.67155e-18 -8.1543e-18 1 

-0.353098 -0.19454 -61.6801 
-0.29638 0.0429316 -7.08753 
6.4414e-18 -1.82626e-17 1 

-0.374713 -0.501893 0.933637 
-0.16427 -0.22993 -0.842342 
1.42194e-17 1.21553e-17 1 

-1.4667 0.0433404 4.01588 
0.197459 0.800013 1.99995 
-7.08788e-18 -1.56135e-19 1 

-0.238093 0.0858399 -0.19963 
-0.00790312 0.011978 -0.422433 
3.02412e-18 -1.86811e-17 1 

-2.31225 -0.662766 1.32748 
-0.213193 0.674088 1.15009 
1.50851e-17 1.05006e-17 1 

-1.37166 1.06981 -2.20546 
-0.530753 0.516761 0.907882 
3.074e-18 1.73802e-19 1 

-0.203744 -0.149056 -1.44194 
-0.0176129 0.0770281 -0.720011 
-1.10194e-18 2.32752e-17 1 

-0.0934841 -0.10359 -0.0500704 
0.0399598 -0.117559 0.464668 
-1.01156e-17 -4.27968e-18 1 

0.0538404 3.42426 -10.3493 
0.0347667 0.0523749 2.96414 
-1.02494e-17 7.51501e-18 1 

-0.087203 -0.00125609 -0.0917764 
-0.0563308 -0.107608 0.350463 
-2.25623e-18 -7.06597e-18 1 

-1.6935 -1.70991 0.958844 
-0.569219 0.0799236 -0.785939 
2.69606e-17 -2.94116e-18 1 

-0.420156 -0.84498 0.969044 
0.170247 0.132126 -0.793563 
-3.20294e-18 6.88039e-18 1 

-0.0997071 -0.23025 -1.46143 
0.232127 -0.0846738 0.702746 
-1.49732e-18 1.21707e-18 1 

0.539753 -0.969854 2.14116 
1.05505 1.02432 0.318891 
1.11449e-17 -1.08109e-17 1 

-0.260293 -0.0249982 -0.481517 
0.0589348 0.158005 0.433744 
-4.69298e-18 -1.17027e-17 1 

-4.25093 -3.07988 4.80956 
-1.20026 0.297295 -0.265306 
8.61002e-18 3.33838e-18 1 

-0.202849 -0.24827 0.206603 
0.176012 0.0328477 -0.309236 
-2.57172e-18 -1.6602e-17 1 

-1.54373 -1.25001 2.55182 
-0.412417 0.408208 1.26356 
-5.50756e-19 -4.3571e-18 1 

-5.04882 -7.79906 -21.3101 
0.0177207 0.597038 -0.0502132 
-2.34683e-18 1.09198e-17 1 

-0.544153 0.89754 0.0275787 
-0.331146 0.512606 -0.706275 
4.15308e-18 -7.96006e-19 1 

-0.858168 0.126012 -1.23733 
0.692606 0.218775 0.909405 
6.24858e-19 -3.11959e-18 1 

-0.371879 0.113369 3.97132 
-0.0340395 -0.0360749 1.69532 
3.11857e-18 9.65475e-18 1 

0.37322 -1.14155 -0.282566 
0.914959 0.561872 0.153792 
-5.115e-18 -3.4609e-18 1 

-0.8031 0.414952 0.900563 
-0.12046 0.0846216 -0.930221 
-2.25784e-18 -1.22874e-17 1 

-1.09526 -0.379426 -4.32731 
-0.00948874 0.5132 -1.00082 
-5.89629e-18 1.1446e-17 1 

-0.419407 0.0785399 0.388997 
0.298166 0.205509 0.314877 
-1.21083e-17 -3.4307e-18 1 

-0.613686 -0.300873 1.03586 
0.407155 0.46205 0.168897 
2.00321e-18 3.20629e-18 1 

-0.978776 -0.700592 0.576304 
0.106601 0.32957 0.672114 
3.43417e-18 2.02093e-18 1 

-0.360288 -0.089866 0.194133 
0.259696 0.0252476 -0.132159 
1.04873e-17 -5.2228e-18 1 

-0.319899 0.0380461 0.102986 
0.194327 0.0882178 -0.0481054 
-3.10301e-18 -1.16925e-17 1 

-1.25176 -2.70375 20.631 
0.195347 0.685781 -0.805461 
-1.96065e-17 3.12513e-18 1 

-0.69598 0.895337 -3.5688 
0.468062 -0.0525787 5.63765 
2.0656e-18 -2.95086e-18 1 

-0.358879 -0.320014 -4.80419 
0.117428 0.0848412 -0.263809 
2.68994e-18 5.15095e-19 1 

-1.71119 -1.77947 4.0574 
-0.473792 0.826453 19.7783 
-4.31603e-18 -9.44132e-19 1 

-0.167849 0.384315 11.2766 
-0.500742 0.27931 6.8339 
1.47774e-19 2.75844e-18 1 

-0.787056 -0.109258 -0.00953343 
0.134357 0.312298 -0.480059 
1.1836e-17 1.04061e-17 1 

-0.480197 0.623798 0.227978 
-0.520575 0.295725 -0.129833 
7.21635e-18 3.12709e-18 1 

-0.260282 -0.670082 0.853965 
0.523415 0.24315 -0.145058 
-2.17693e-18 -7.77475e-19 1 

-0.811482 0.456649 -1.97541 
-0.560319 0.563964 -0.57184 
3.01205e-17 -4.39258e-18 1 

-0.184337 -0.0125874 2.59666 
0.0407103 0.0837599 0.759525 
-2.27156e-18 -1.5388e-18 1 

-0.21835 -0.0965799 0.216283 
0.211011 -0.0414509 0.037456 
2.5462e-17 -4.06741e-18 1 

-0.527388 0.413486 0.50877 
-0.346728 0.328208 -0.448217 
-5.62725e-18 -3.00467e-18 1 

0.0424722 -0.336432 -0.310181 
0.15368 -0.213511 -0.299562 
-4.05795e-18 -2.08695e-18 1 

-0.145075 0.00781762 -0.632994 
0.08202 0.012674 0.727819 
8.05885e-19 1.33488e-17 1 

-0.234268 0.195906 -0.123829 
-0.236216 -0.0215257 -0.433777 
-4.26248e-18 -9.1606e-18 1 

-1.13587 0.0399271 1.64357 
-0.92385 0.579458 -0.970902 
-1.02841e-18 1.86983e-19 1 

-1.34455 -0.650416 2.07004 
-0.183478 0.519965 1.04207 
7.12198e-18 -4.89922e-18 1 

-0.0380199 0.126108 -4.88729 
-0.0281265 -0.0133435 -5.05282 
1.85046e-18 3.59924e-18 1 

-0.339925 0.420136 0.510869 
-0.40731 0.208213 -0.25379 
2.74542e-18 -5.89836e-18 1 

-0.392658 -0.47425 -0.538781 
0.258536 0.203561 -0.731789 
8.72944e-18 7.03379e-18 1 

-0.790812 0.500822 0.676937 
0.492757 0.208315 -1.04871 
-8.68021e-18 9.24631e-18 1 

0.520211 -1.16 -0.239499 
0.824475 0.684481 -0.172833 
-1.64983e-17 8.81588e-18 1 

-2.48095 -2.77395 6.55938 
0.661316 1.17016 -3.30189 
6.57275e-18 -4.53491e-18 1 

-0.822205 -0.174165 0.266502 
-0.444529 0.216235 -0.453741 
-9.69378e-18 1.32532e-17 1 

0.226576 0.403416 0.655197 
-0.657922 -0.0300465 -0.00301625 
-2.00461e-18 9.27132e-18 1 

-0.88469 -1.33075 -0.446823 
-0.185179 0.432563 -0.339299 
-4.81787e-18 -1.70739e-17 1 

-0.373985 -0.0527261 -2.04646 
0.221127 0.125297 -0.130922 
-1.8774e-17 -1.92465e-17 1 

-0.228056 -0.428537 0.381383 
0.115877 -0.209396 -0.0530152 
-8.47019e-18 -6.35264e-18 1 

-0.310097 0.12125 1.18728 
-0.18509 0.200479 -0.448546 
-1.38164e-17 6.76056e-18 1 

-0.122233 8.69102e-05 -0.0129541 
-0.00293801 -0.00821889 -0.162758 
9.01463e-18 -9.68929e-18 1 

0.282494 0.562556 1.85806 
-0.816505 0.134353 -1.45809 
1.12091e-18 5.79783e-19 1 

-0.478281 0.00640363 1.78206 
0.144717 0.232011 4.06973 
-7.55046e-18 -7.7538e-18 1 

-1.06606 1.55071 3.68062 
0.608671 0.386483 1.84083 
-2.66266e-18 -7.0546e-18 1 

-0.0194095 -0.142882 -0.257315 
0.230544 -0.0446481 -0.0383443 
-4.20381e-18 -2.64305e-18 1 

-1.42894 0.231062 -8.94791 
-0.279102 0.51545 2.94336 
1.0951e-17 -8.05247e-18 1 

-0.82062 -1.3758 -0.1324 
0.0613145 0.0825906 0.236057 
-2.07824e-17 -6.09754e-18 1 

-0.569198 0.733551 0.632242 
0.382975 0.437726 -0.405124 
-4.15428e-18 -7.82922e-18 1 

-0.658334 0.24152 2.02093 
-0.0993118 0.231116 -1.4676 
-3.39019e-18 3.66205e-18 1 

-0.363322 0.551004 -6.61713 
-0.463136 0.655587 4.03307 
8.55733e-18 2.61753e-18 1 

-0.33147 0.356631 -1.43579 
-0.238271 0.0831814 -1.19545 
-9.09068e-19 -1.78783e-17 1 

-0.367057 -0.639706 -0.430291 
0.221774 0.142276 0.637457 
1.08719e-18 -1.07498e-18 1 

-0.0702034 -0.0607528 -0.279968 
-0.256068 -0.0768991 -0.410422 
1.42058e-17 -1.35293e-18 1 

-0.3763 0.180674 -2.3169 
-0.0489967 0.0159707 -1.60235 
-1.23701e-17 2.56985e-18 1 

-0.0209089 0.440753 -2.465 
-0.0757205 0.260625 0.558629 
-9.55412e-19 1.52866e-17 1 

-0.970645 0.240105 -2.08845 
0.483592 0.0194942 -0.830941 
3.24511e-18 3.64982e-18 1 

-0.298166 -0.107528 -5.54489 
-0.291092 0.575657 15.5041 
-2.74487e-18 -1.19342e-18 1 

-0.326597 -0.00771008 0.548229 
0.184629 0.182991 0.03148 
-1.41979e-18 -2.63675e-18 1 

-0.169666 -0.166229 -0.349307 
0.119823 0.0661734 0.25316 
1.04777e-18 -4.66038e-18 1 

-1.06643 -0.287534 2.87334 
-0.628055 0.291454 -0.242484 
-2.45393e-18 -5.34606e-18 1 

-0.227556 -0.047515 0.667807 
0.101181 -0.00490373 0.202001 
-1.59414e-18 -8.93461e-18 1 

-1.23663 0.512248 -4.77198 
-0.292175 0.529728 -3.31274 
8.35891e-18 3.83436e-18 1 

-0.310213 0.09402 0.0369613 
0.158663 0.0120918 0.426662 
3.44166e-17 7.5941e-18 1 

-1.41839 0.36855 -2.61409 
0.0378282 0.435118 -0.0513859 
-3.12251e-18 1.16842e-17 1 

-0.414472 0.987994 1.49006 
-0.408968 0.545331 -1.3082 
1.16195e-17 -3.02914e-18 1 

-0.344759 -0.0170594 1.00897 
0.141284 -0.0125065 -1.00867 
-6.22006e-18 3.68634e-18 1 

-0.404011 -0.280025 -2.24213 
0.0742714 0.284897 3.4517 
2.49997e-18 6.81259e-18 1 

-0.223946 -0.0753762 -0.746174 
-0.00317067 -0.0269228 2.37621 
-3.52365e-18 6.59425e-18 1 

-0.289439 0.130932 1.15024 
-0.123232 0.0477212 -2.29829 
2.6794e-18 5.17402e-18 1 

-0.49478 -0.25261 2.05974 
-0.0251331 0.134914 1.82389 
-1.19661e-17 -1.16183e-17 1 

-0.264635 0.0979688 -1.16597 
-0.142939 0.138185 -4.87908 
8.82809e-18 1.24843e-18 1 

-0.479149 1.14482 -34.8109 
-0.900323 1.67175 17.1729 
-4.92327e-18 1.44199e-17 1 

-1.92122 -0.0764962 -24.2855 
-0.0937849 0.558688 -11.9378 
3.57511e-18 4.05961e-18 1 

-0.385319 -0.0129438 -6.88918 
0.264589 0.225406 0.755374 
-7.56941e-19 -5.78593e-19 1 

-0.76331 -0.398063 -0.125334 
-0.0991746 0.26029 0.113399 
1.24696e-17 -2.7834e-18 1 

-1.51373 0.443876 -1.04091 
-1.01137 0.836071 -2.39701 
7.33432e-19 -6.06978e-18 1 

-1.09509 -2.05256 0.672155 
0.384513 0.992947 -13.3117 
-4.66754e-18 6.85536e-18 1 

-0.243441 -0.702965 -0.850486 
0.33481 0.233726 0.697523 
-1.12095e-17 -2.77741e-18 1 

-2.29332 1.31991 -0.815853 
0.532145 0.546747 -0.326295 
2.10935e-17 -4.58554e-18 1 

-0.473552 -0.151642 0.179765 
-0.225012 0.284044 -0.233812 
-6.83569e-18 1.05099e-17 1 

0.40262 -0.706199 -1.32963 
0.645957 0.399746 1.15433 
-2.34802e-18 7.44409e-18 1 

-0.414113 0.0504956 -1.58755 
0.026339 0.027453 0.433495 
1.34922e-17 2.71656e-18 1 

-0.260871 -0.0996458 0.127607 
0.0518735 0.0102248 -0.215835 
4.71787e-18 -2.06238e-18 1 

-0.299298 0.0075746 0.684157 
-0.00766078 -0.0189441 -0.358905 
1.45502e-18 -9.15452e-18 1 

0.0886208 0.436986 -0.0581088 
-0.60329 0.0583602 -0.784054 
1.1964e-17 -4.53547e-18 1 

-0.554673 -0.17336 1.25015 
-0.41442 0.385529 0.056105 
-2.43449e-18 -6.39789e-18 1 

-1.14653 0.0196576 8.97447 
-0.256911 0.346964 0.900698 
-1.23509e-18 6.58714e-19 1 

1.28289 -2.15327 -3.85115 
0.703476 2.19316 0.453707 
-4.50646e-19 -1.80258e-17 1 

-0.328768 -0.443792 2.77716 
0.755468 0.334364 -1.51497 
-5.01283e-18 -3.12011e-18 1 

-1.95242 1.50834 6.02519 
-0.324633 0.784636 1.36866 
2.18842e-18 -1.22551e-18 1 

-0.204441 0.54965 0.0400092 
-0.556948 0.20585 0.228366 
4.16471e-18 -7.60861e-18 1 

0.316578 0.953251 -2.35763 
-1.04681 0.842432 -0.949336 
-1.04565e-18 -1.50749e-18 1 

-0.306346 -0.028601 0.17722 
0.0972656 -0.06647 -0.018408 
-4.07388e-18 -7.02536e-18 1 

-0.311105 -0.067655 0.137482 
-0.0247877 0.255658 0.386061 
-9.33534e-18 2.13379e-17 1 

-0.983828 0.180928 -0.100662 
-0.0356269 0.244949 0.0763306 
-1.54713e-17 1.33532e-18 1 

-0.437207 -0.55612 0.866747 
0.274905 0.367645 0.506561 
5.66029e-18 2.17112e-17 1 

-0.61648 0.24578 1.03841 
-0.100365 0.304813 -1.64807 
-7.12781e-18 -2.38944e-18 1 

-1.34019 0.366101 -2.72371 
-0.16232 0.303404 -0.890632 
7.45831e-18 -9.26772e-18 1 

-0.419713 -0.0312013 -1.12039 
-0.0367581 -0.0501433 -1.06074 
1.7441e-17 1.2896e-17 1 

-0.938075 -0.861065 -0.0197043 
-0.304305 0.432169 -0.739297 
-8.9809e-18 4.43361e-18 1 

0.472569 -1.034 -0.338318 
0.939003 0.987243 0.210802 
-6.07646e-18 1.56515e-18 1 

-0.178647 0.137373 0.298001 
-0.0784963 0.106601 -0.34026 
-1.00703e-17 -9.46468e-18 1 

-1.85839 0.313549 4.47753 
1.16182 1.1795 -1.01529 
1.27859e-18 -2.00062e-17 1 

0.413627 -0.899294 0.0564714 
0.936238 0.519141 -0.121892 
-6.19214e-18 -2.86538e-18 1 

-0.126147 0.676001 -2.05843 
-0.622756 0.486358 -0.259566 
3.11938e-18 1.50464e-17 1 

-0.559703 -0.356048 0.5144 
0.0505007 0.0710028 0.719943 
-8.99335e-19 2.04277e-17 1 

-2.10122 -0.643954 -0.101609 
0.512169 0.751905 1.22455 
-1.0576e-17 9.04651e-18 1 

-0.872858 -0.267473 0.956986 
-0.92532 -0.124773 -0.595161 
2.54693e-17 1.94258e-17 1 

-3.12465 2.51556 14.6653 
-0.807783 1.03609 -1.36669 
2.86581e-18 5.16653e-18 1 

-0.373029 0.911268 0.960197 
0.275951 0.257222 0.0989571 
7.76363e-18 -8.27272e-18 1 

-7.88583 -4.5717 -15.6473 
0.314232 1.01664 1.11703 
1.27329e-17 -1.56855e-18 1 

-0.330897 -0.385924 0.675664 
0.299907 0.209061 -1.80203 
6.35166e-18 -3.11102e-18 1 

0.00179362 -0.501745 -0.918834 
0.467125 0.118211 0.439759 
-2.03063e-18 2.03771e-18 1 

-0.500722 0.283357 -4.17883 
0.458288 0.0399972 0.439771 
-2.35986e-19 5.34418e-18 1 

-0.0842841 -0.250058 -0.84003 
0.288814 0.0492266 0.237751 
-7.79107e-18 4.08292e-18 1 

-0.103988 -0.105887 -0.421056 
0.23087 -0.00570222 0.195982 
7.77188e-18 8.34564e-18 1 

-0.351972 -2.1765 8.7582 
0.430138 0.739623 2.07248 
7.2094e-18 1.24233e-17 1 

-0.303856 -0.545478 0.39916 
0.131021 0.140877 -0.619237 
-1.33259e-17 9.95654e-18 1 

-0.605179 0.663284 1.13979 
-0.0918323 0.243313 1.52293 
7.54831e-19 1.86012e-18 1 

-0.209781 0.0482846 -0.387633 
0.0294951 0.142933 -0.347703 
4.41596e-18 2.80379e-18 1 

-0.171848 0.0887657 0.602365 
8.48244e-05 0.0632095 0.418734 
-3.27563e-19 -6.94536e-18 1 

-2.58388 -0.97087 0.497019 
0.966302 0.726931 -1.06562 
4.12464e-18 4.7592e-18 1 

-0.460853 -0.121696 0.0283555 
0.126846 0.379222 0.380706 
-6.4771e-18 -4.11276e-18 1 

-1.14234 -0.36251 -0.999958 
-0.164334 0.445933 1.30592 
-3.9424e-18 5.67706e-18 1 

-0.720044 -0.0844012 0.516596 
-0.0436411 0.231737 -0.242596 
-7.03397e-18 8.17461e-18 1 

-0.104714 -0.0567902 -0.376187 
0.106993 -0.0239471 0.252144 
-1.28776e-17 6.21286e-18 1 

-0.489128 0.0355487 -6.39807 
0.23036 0.302439 1.0561 
3.83421e-18 -7.03435e-18 1 

-1.01936 -0.104387 -4.53579 
-0.274609 0.327818 -1.31614 
6.21213e-19 -1.06494e-18 1 

-1.41067 0.0778045 1.93191 
-0.544187 0.613749 -1.98259 
-6.51025e-18 -6.20024e-18 1 

-0.368026 0.554513 0.164625 
0.0166872 0.0536458 0.255463 
3.77454e-18 -9.03323e-17 1 

-0.0679734 0.745746 16.5919 
-0.840317 0.505882 -3.87745 
-6.5384e-19 7.63591e-18 1 

0.120085 -1.12006 18.4941 
0.690775 0.671236 15.9099 
7.52573e-19 -1.20762e-17 1 

-1.05575 -0.73626 10.402 
-0.248021 0.475527 -4.2095 
4.57891e-18 4.3118e-18 1 

-2.20744 -0.221617 -2.6337 
-0.219354 0.51117 1.18118 
9.39538e-18 1.83769e-18 1 

-0.285475 -0.97519 1.23533 
0.171591 0.430938 -1.06715 
-1.20683e-18 2.53434e-17 1 

-0.0588729 0.422764 0.601406 
0.151387 -0.170042 -0.0997839 
-2.53552e-18 7.74435e-18 1 

-0.741063 0.271221 10.2537 
-0.571746 0.525086 -12.2012 
-9.85026e-19 5.71638e-18 1 

0.245435 0.926231 0.739223 
-0.979293 0.515917 -0.0664892 
-1.95509e-17 8.83949e-18 1 

-0.359354 0.229952 0.0931435 
-0.0256164 0.164202 -0.831567 
-3.58011e-18 -6.05865e-18 1 

-0.294793 -0.121424 0.471362 
0.0568394 -0.0659762 -0.291032 
-1.95579e-17 5.56808e-18 1 

-1.44275 0.303102 -2.33344 
-1.13136 0.693747 -1.30991 
3.25137e-18 -1.11189e-17 1 

-0.141739 -0.348442 -1.05364 
0.289249 -0.00254634 -0.14114 
-2.89894e-18 3.76625e-18 1 

-7.26516 0.132186 3.54938 