# vtk DataFile Version 3.0
Output file generated by Yade's KinematicLocalisationAnalyser
ASCII
DATASET UNSTRUCTURED_GRID

POINTS 13483 float
687.61 26.6306 -0.411823
902.137 43.2343 -0.456672
135.133 5.98012 -0.447851
954.725 4.21591 0.290631
559.457 7.43299 -0.294532
351.926 33.8894 -0.471811
175.609 6.73011 0.351779
641.301 10.0838 0.124929
556.036 21.8575 0.134423
834.188 12.0553 -0.376643
235.867 8.62108 -0.117032
287.407 6.21145 -0.278702
743.99 27.3576 0.141662
719.029 13.6915 0.0820459
153.928 16.7228 -0.429404
248.17 33.2963 -0.348294
243.616 12.719 -0.241933
322.461 9.27994 0.398987
380.461 31.5309 0.46879
588.633 8.50947 0.341288
459.551 35.2947 -0.0955699
667.867 42.2533 0.2547
950.22 29.6653 -0.480371
803.49 40.6363 0.424201
513.679 15.6649 0.297569
269.097 42.88 0.123024
550.638 26.3111 -0.475423
661.641 18.242 0.22814
50.8957 15.3226 0.476323
828.955 29.6387 -0.318109
540.179 4.7694 0.321731
18.7904 22.1286 0.298584
918.104 40.2087 -0.249654
554.817 2.50466 0.454539
87.5546 41.3421 -0.100595
585.245 29.1508 0.332337
595.797 16.3087 -0.405552
383.94 21.8214 -0.173864
599.047 24.8245 -0.318883
392.238 31.9649 -0.384892
270.085 14.1411 -0.31259
485.919 34.1963 0.0628476
775.928 6.56825 0.132161
216.518 6.09825 0.368258
61.8905 6.70283 -0.121469
76.5159 8.8021 0.262304
795.553 8.38281 -0.49294
26.2993 11.6403 0.273468
691.541 42.3998 0.334652
777.825 22.0101 -0.33718
193.747 31.2064 0.290611
896.213 32.0289 -0.126069
39.7493 26.8506 -0.110748
599.985 2.93519 0.311463
159.779 7.24518 -0.440124
670.539 32.3807 0.356586
565.763 24.9492 -0.121643
196.077 0.921593 0.262608
36.7141 2.44641 0.268677
389.467 17.2554 0.2436
704.631 43.1613 -0.131773
517.907 32.5672 -0.170601
446.656 1.03662 0.185933
808.666 7.42461 -0.324425
29.9717 41.0368 -0.235292
287.056 29.5445 0.29472
834.234 7.24048 0.19693
768.552 41.8451 0.356559
467.393 8.5069 -0.449869
642.222 3.51888 -0.324002
870.605 27.921 0.37658
147.198 7.44582 0.27142
559.23 24.2771 -0.126072
535.317 14.8294 -0.102057
329.537 16.2278 -0.350844
23.0784 13.2604 -0.246173
925.237 30.7245 -0.314797
372.164 37.6131 -0.28463
775.152 19.1509 0.315666
795.127 12.1164 -0.226372
936.653 10.5127 -0.198244
521.633 33.2143 0.168229
103.68 36.2783 -0.256652
789.145 32.5444 -0.214232
740.149 36.3778 -0.0929422
958.509 34.6467 -0.0971739
928.09 1.24713 -0.490536
326.007 28.0344 0.413957
706.758 6.22556 -0.0856226
27.4123 5.26341 0.449767
149.314 36.5536 0.140171
576.577 13.8463 0.182843
915.133 22.8031 -0.488649
219.832 27.5606 -0.225851
49.9735 33.5244 -0.262549
553.596 1.16578 0.092652
264.77 8.63735 -0.349372
874.104 36.9595 -0.261701
900.693 24.3357 0.243021
405.062 19.7808 -0.245311
184.679 25.9957 -0.443274
620.628 36.5678 -0.396355
426.433 14.5572 -0.529032
464.47 28.3032 -0.101081
424.498 4.41857 0.406583
617.987 10.6228 -0.0937148
960.088 11.1059 0.151511
90.266 36.6519 0.383631
376.343 4.65253 -0.180495
634.062 9.18283 -0.315169
404.074 42.1601 0.440672
29.1657 23.6732 -0.482518
34.3154 5.62635 0.319846
643.782 30.0449 0.401648
569.467 22.8079 -0.157205
29.7914 35.3333 0.408175
105.17 29.1781 0.218452
364.683 15.356 -0.321261
681.905 17.9463 -0.117639
535.11 36.3397 0.296804
855.014 7.53222 -0.34058
845.19 6.14219 0.19871
434.925 35.5216 -0.097708
726.372 24.0307 -0.103176
268.489 16.3958 -0.477987
370.969 3.5802 0.463391
116.774 30.1785 0.320939
131.114 23.0755 -0.264807
615.315 37.0475 0.0703935
344.097 18.408 0.465085
822.998 32.5565 0.105007
773.386 41.1591 -0.120555
542.156 19.7111 -0.384613
905.415 8.58007 0.288436
483.1 22.3842 -0.226132
311.962 23.5552 -0.318601
776.078 29.0145 -0.28239
313.875 27.6791 0.388042
654.472 11.1493 0.166707
373.711 34.5272 -0.186254
570.197 11.0577 0.427511
413.164 29.9203 0.0849479
485.85 16.0586 -0.109236
358.555 40.4893 0.438453
215.488 28.5285 -0.120434
907.733 41.3677 0.183609
954.993 11.5477 -0.271083
6.43805 11.9416 -0.413988
489.973 21.6602 -0.406507
43.6009 21.2982 -0.073845
423.847 30.1049 -0.457653
446.129 23.6634 -0.253509
84.3608 11.4521 -0.476704
58.7958 32.4116 -0.438319
255.564 12.9549 0.428148
705.98 37.0486 0.374518
657.357 19.2832 -0.431915
83.8736 20.3101 0.464598
806.962 43.8975 -0.404992
889.833 2.40802 -0.418936
760.456 38.0297 0.459532
803.401 2.34285 -0.368271
624.984 25.4737 -0.390122
669.531 42.4073 -0.438413
581.179 17.6739 -0.380457
951.534 2.94758 0.251283
253.139 23.8168 -0.109874
144.477 33.5581 -0.192456
279.579 6.46689 -0.352475
107.155 3.90332 0.215438
72.4379 9.46206 0.206037
311.561 34.5766 -0.300994
19.1053 23.8626 -0.347778
631.292 18.5441 0.382641
691.46 37.4357 0.192648
523.789 20.3248 -0.34731
939.271 35.8169 -0.361982
459.934 8.26231 0.106387
493.587 34.6036 -0.373777
609.442 3.38639 -0.178048
25.9875 22.8559 -0.379797
657.505 4.18171 -0.388386
620.259 4.32306 -0.279469
233.884 10.996 0.473913
481.33 15.8181 0.191193
351.915 6.18962 0.298423
438.51 18.2579 -0.357566
859.897 40.2325 -0.104282
217.855 24.6902 -0.390559
919.092 6.73819 0.305715
858.881 36.4753 -0.323223
433.826 9.82498 -0.197714
830.811 2.38034 0.371807
692.045 23.8843 -0.412269
864.115 17.6276 -0.363852
487.944 40.9444 -0.265747
563.77 11.8898 0.34838
527.783 42.5478 0.218436
504.882 8.51583 0.144035
764.035 36.9545 0.285918
761.473 33.328 -0.291452
217.923 37.3706 -0.331849
934.384 10.4991 -0.1283
672.197 43.2357 0.24145
12.8603 16.5284 0.163898
461.769 24.2544 0.326329
212.408 22.2504 0.394376
105.318 37.2343 0.196807
912.674 20.3111 0.400699
756.81 41.6127 0.0650558
361.26 24.6679 0.361529
605.801 9.94025 0.315353
93.128 41.7024 -0.161605
280.733 25.2038 -0.457341
634.371 22.596 0.386023
552.323 17.7486 0.3955
297.751 0.892957 -0.340925
630.692 38.3237 -0.336549
608.04 39.566 0.389232
547.549 31.5937 0.381862
567.027 0.754991 -0.466508
815.608 17.151 -0.381045
204.118 11.3788 -0.171691
568.895 34.2274 0.418836
644.503 37.279 0.108679
82.1862 0.932848 -0.275382
285.399 4.5996 0.169975
954.268 13.4388 0.173576
937.142 12.4701 -0.359247
962.32 15.4226 -0.489062
343.713 8.37601 -0.22456
871.733 21.3078 -0.410128
461.859 39.6437 -0.197382
509.365 0.806286 -0.403667
747.685 33.7409 0.419714
31.0678 29.0594 0.307346
374.433 39.5316 -0.130869
286.357 2.76484 0.299533
921.109 37.2962 -0.223701
827.696 44.577 -0.224292
325.632 10.5148 0.164786
768.964 27.0334 0.0874326
635.817 2.65881 0.221275
617.896 6.32386 0.414542
110.399 17.272 -0.47606
343.47 1.03179 -0.21625
389.504 2.26856 -0.358995
15.9127 7.55019 -0.232758
4.82481 29.1859 -0.233254
184.631 18.308 -0.354136
77.7118 39.6963 -0.213237
75.5563 27.5507 -0.313338
481.012 14.0996 -0.405497
416.605 33.4527 -0.465367
893.899 33.8959 0.119785
22.3794 3.8513 -0.289231
79.8122 6.7066 -0.147135
718.114 36.3303 -0.130888
334.321 0.931416 0.315724
413.96 15.8107 -0.0943099
267.864 4.49346 -0.397146
752.545 20.5873 0.165792
512.791 8.1835 0.385617
874.856 19.2667 -0.348134
725.491 27.5013 -0.297425
774.381 17.256 -0.0964616
477.066 25.4195 0.473152
115.963 42.7324 -0.302563
619.399 40.3659 -0.0693951
861.046 13.0687 0.175095
269.972 29.1758 -0.231306
36.513 16.196 -0.160412
381.39 13.4739 0.475897
122.773 38.88 0.459779
303.698 40.8772 -0.186869
483.228 1.0479 0.18797
922.16 27.2518 0.389044
795.313 0.798777 -0.460251
376.981 2.92722 0.425296
340.652 25.6044 0.151229
526.469 39.354 0.199287
92.4271 7.65837 -0.452956
225.494 43.0646 -0.377915
903.675 26.5575 -0.359784
563.575 37.0158 -0.0675454
227.627 39.8757 -0.247992
183.017 40.6085 0.390561
962.283 30.981 -0.378519
958.252 11.0289 -0.446501
695.439 3.29277 -0.282781
216.412 23.4569 -0.0983119
627.193 26.6466 0.108195
629.245 26.2086 0.263305
464.892 5.52381 -0.132646
547.954 0.936447 -0.280958
891.65 36.09 -0.427044
97.6105 28.9373 0.218474
758.491 17.6071 0.401451
311.695 15.2065 -0.315681
11.4345 2.28503 0.323107
143.073 35.2098 -0.187819
75.8643 22.0699 0.448559
815.236 34.6572 0.310145
927.847 41.8804 0.16126
211.614 27.0971 -0.167989
949.293 11.282 -0.307455
51.1301 35.4067 -0.243065
103.967 27.2382 0.1506
729.909 12.6106 0.353409
470.073 17.451 -0.48746
592.331 16.1582 0.10242
270.578 27.2904 0.191851
714.579 4.46645 -0.415976
963.281 10.5039 0.32519
34.4071 30.0789 0.264442
306.9 7.64233 0.188123
253.065 14.6232 -0.245608
1.50288 33.9472 -0.150559
256.621 14.118 -0.353398
240.951 10.7527 0.126489
244.01 25.0416 0.269957
151.534 26.9185 0.125812
625.141 14.512 0.308074
191.114 13.9636 -0.362078
915.062 38.7358 -0.219289
198.549 3.84245 -0.439885
53.9278 36.5029 -0.0892211
867.398 45.7819 0.426334
319.191 30.5189 0.384665
784.848 22.864 -0.420108
933.097 26.5208 -0.47983
341.681 8.99517 -0.113346
856.734 28.2603 0.325859
373.515 2.67726 -0.329007
473.049 23.0448 -0.359402
781.142 15.247 0.417982
120.92 11.2941 0.445897
549.734 3.96977 -0.450427
878.879 17.1168 -0.197252
100.672 7.44093 0.176257
319.9 14.3527 0.201338
481.788 11.3412 -0.197964
949.745 2.53627 0.358479
452.226 1.75454 -0.411736
201.864 37.3023 0.264804
863.934 10.1843 -0.291056
146.535 34.6958 -0.176689
298.997 30.5919 -0.38602
455.668 20.8708 0.204027
657.245 12.8742 -0.319084
440.469 9.92208 -0.377697
519.611 26.6512 -0.403493
903.424 43.4123 0.362291
54.0708 10.7728 -0.0800474
340.161 36.698 -0.167217
431.704 25.6966 -0.355086
466.051 20.4962 0.269617
595.696 43.0862 0.356853
884.295 34.7006 0.205937
767.797 32.7175 -0.364598
256.741 32.9131 0.367092
16.0169 29.8332 0.15171
759.701 34.2868 0.114346
581.002 40.3413 0.4281
261.245 37.664 0.0898444
792.802 29.2623 0.105927
172.617 9.05914 -0.179992
417.204 20.3843 0.260303
528.254 40.4358 -0.0985397
471.147 18.816 0.197205
898.874 45.5813 0.290959
484.671 3.30355 0.412382
56.9331 24.45 -0.286274
535.601 30.1158 0.345634
494.797 39.6725 -0.361013
918.325 32.9398 -0.220524
853.641 27.4045 -0.236304
618.085 17.8321 -0.158527
908.464 33.9783 0.422477
333.351 2.04545 -0.436228
430.831 27.1983 -0.442859
33.1896 36.8921 0.289743
859.972 28.9747 -0.129
701.215 19.2106 0.50178
527.503 0.806956 -0.449708
144.53 4.37932 0.287725
486.053 38.4373 -0.105066
14.1498 0.917406 -0.306695
948.467 5.28466 0.126845
[...]
POINT_DATA 13483
TENSORS Strain_matrix float
0.00173657 -0.100114 0.41533 
-0.0708386 -0.0717758 0.0721825 
1.86175e-19 4.4682e-18 1 

-0.105544 0.00548804 -0.786718 
0.0290724 0.0155464 0.32729 
3.25183e-18 -4.59082e-18 1 

-0.00605686 0.0017006 1.59586 
0.00266349 -0.100859 1.16993 
2.14786e-18 2.2619e-18 1 

-0.169379 0.00993101 -0.178082 
-0.0293142 0.0118023 -0.0747995 
4.32078e-18 1.5359e-18 1 

-0.0207093 0.000867603 -0.0368698 
0.0496964 -0.0823967 -0.00906859 
4.24092e-18 1.51461e-19 1 

-0.0156149 0.00282703 -2.9077 
-0.00227374 -0.0488049 -2.0871 
1.08559e-18 1.40922e-18 1 

0.00992983 -0.0456205 -0.0314769 
-0.00882455 -0.0971677 0.0102841 
1.55628e-17 -1.90565e-18 1 

-0.033713 -0.107442 -0.329369 
0.0264955 -0.102873 -0.204689 
-4.34727e-18 6.26871e-19 1 

0.00582565 0.0499842 -0.108945 
0.0286555 -0.0639736 -0.132645 
8.60706e-18 -2.93423e-18 1 

-0.114484 -0.0190437 0.0468622 
0.0237745 -0.0463309 0.108104 
-1.02712e-17 3.89209e-18 1 

-0.0108491 0.0130091 0.0710582 
-0.00088948 -0.0893835 -0.206799 
1.1842e-18 -4.15631e-18 1 

-0.0166141 -0.0368223 0.0847432 
-0.045174 -0.121887 0.0893755 
7.32563e-19 2.45624e-18 1 

-0.0495466 0.0270509 0.0156869 
0.0207513 2.45298e-05 0.236563 
6.99371e-18 3.8411e-18 1 

-0.0649923 0.00979599 -0.227041 
-0.00186704 -0.0418364 0.141231 
4.90866e-18 9.26162e-20 1 

-0.0514142 -0.043098 -0.0014436 
0.0150035 -0.0617211 -0.229242 
-7.9117e-18 -4.15255e-19 1 

-0.0045123 -0.0475934 0.106167 
0.0124128 -0.0455572 -0.142043 
-1.06221e-17 1.52101e-18 1 

-0.0179505 -0.0775643 0.335816 
0.0132236 -0.0799908 -0.160054 
-5.86829e-18 3.25639e-18 1 

-0.0339864 0.0109109 -1.09113 
0.00337319 -0.115648 0.110745 
-9.28185e-18 2.77514e-19 1 

0.013984 -0.0031568 0.00685584 
-0.0281851 -0.0748457 1.96166 
4.95321e-18 2.13765e-18 1 

-0.0271536 0.029357 0.21005 
-0.061639 -0.0956642 -0.155254 
-8.05651e-18 -1.89565e-18 1 

-0.0259169 -0.0169046 -0.0331211 
0.0487894 -0.0279967 -0.0588821 
-4.01214e-18 2.62843e-18 1 

-0.0338622 -0.0212959 0.134024 
-0.0159134 -0.0262694 0.391596 
2.65725e-18 -7.25703e-18 1 

-0.159113 -0.0383993 0.330989 
-0.0982109 0.0469382 3.35723 
2.67777e-18 3.01399e-18 1 

-0.0457416 0.0168431 0.140854 
-0.0134854 -0.00500635 0.180774 
4.48567e-18 -1.08215e-18 1 

-0.0318512 0.0055036 -0.100118 
0.0763197 -0.0706621 0.157987 
-2.27911e-18 -5.41434e-18 1 

0.0200947 0.0314534 0.177367 
-0.0565784 -0.0654061 -0.0875123 
-1.22332e-17 6.41785e-19 1 

-0.0279555 0.000584618 -0.868254 
-0.0117189 -0.0786819 0.141415 
-1.33603e-18 -6.6054e-18 1 

-0.0342815 -0.0193811 -0.0449002 
0.00153721 -0.0575782 0.117729 
3.13043e-18 7.77978e-19 1 

-0.022253 0.0604754 -0.590868 
0.0261065 -0.130216 0.789755 
4.28823e-18 -4.02615e-18 1 

-0.0610139 -0.0194419 -0.0599819 
0.0391819 -0.0214949 0.18475 
2.79441e-18 -2.41184e-18 1 

-0.0355337 -0.0330205 -0.0427475 
-0.0037672 -0.168588 0.422226 
-7.17281e-18 -3.38081e-18 1 

0.00696521 0.105704 -0.126582 
0.100067 -0.17074 0.360814 
3.47245e-19 2.04261e-18 1 

-0.0710122 -0.0284022 0.291633 
0.0884802 0.0111202 0.279689 
-4.00206e-18 -2.0455e-17 1 

-0.00244925 -0.00432988 -0.649781 
-0.0138446 -0.0407911 0.458928 
-1.08951e-19 -1.08106e-19 1 

-0.0580596 0.00311462 -0.0462753 
0.0235158 -0.0196082 0.0393879 
-4.70863e-18 1.4875e-17 1 

-0.0531457 -0.0304146 -0.249548 
0.000725809 -0.0492875 -0.286055 
8.53565e-19 -1.31574e-17 1 

-0.0255123 0.00196604 0.345925 
0.00190112 -0.066748 0.130341 
1.20058e-17 2.19625e-18 1 

0.0655051 -0.102697 -0.0952876 
0.0425696 -0.15948 0.336252 
1.50518e-17 -1.62297e-17 1 

-0.0128277 -0.0354917 -0.0472346 
0.0936773 -0.082453 0.0836483 
-3.84064e-18 1.44529e-17 1 

0.00560536 -0.0637778 -0.0749859 
0.073452 -0.0870791 0.319528 
5.64965e-18 6.53026e-18 1 

-0.0495146 0.0686324 -0.129622 
-0.072481 -0.0820061 0.052018 
1.21002e-17 1.09214e-17 1 

0.0391482 -0.0129046 0.16596 
-0.0644548 -0.0684436 0.143802 
9.53842e-18 -5.41859e-18 1 

-0.0708714 -0.0186257 0.0362487 
-0.00177562 -0.0688723 0.168613 
4.70539e-18 2.29849e-18 1 

-0.0081623 -0.0274567 0.260793 
0.00704704 -0.0936221 -0.067832 
-7.67803e-18 2.6058e-18 1 

0.0130416 0.0155256 0.0414026 
-0.0159781 -0.120522 0.115121 
-6.21677e-18 -1.06302e-17 1 

0.0115257 -0.0218414 0.0788463 
0.0509948 -0.116005 -0.0102882 
-5.69671e-18 1.58076e-17 1 

-0.0611956 0.00644684 -0.0290321 
-0.0123306 -0.0636165 -0.268913 
8.69142e-18 -9.20604e-19 1 

0.06574 0.00290404 0.12356 
-0.0392513 -0.177081 -0.0489919 
-6.34373e-18 2.88351e-18 1 

-0.0552754 -0.00735724 -0.047588 
-0.0351863 -0.0297062 0.0668013 
9.59348e-19 1.82733e-19 1 

-0.0379845 0.0192279 -0.296515 
0.071296 -0.0559947 -0.247142 
2.44689e-18 -7.44707e-19 1 

-0.00960572 -0.00819155 0.209333 
-0.0671027 -0.0501834 0.266391 
9.35001e-18 2.47832e-18 1 

-0.0466205 -0.0497969 0.149391 
0.0306407 -0.0313516 -0.126031 
-1.12962e-18 -4.27642e-18 1 

-0.0568798 -0.0384277 -0.0590856 
0.0217314 -0.0205664 -0.00682863 
-5.28477e-18 -7.98977e-18 1 

-0.0434512 0.0131314 0.0211586 
0.00882409 -0.0670481 -0.160721 
-2.4731e-19 -2.84406e-18 1 

-0.0148349 -0.0201995 0.0138654 
0.000159779 -0.150261 -0.227077 
1.44125e-17 -6.88138e-18 1 

-0.0104475 -0.0372575 -0.378942 
0.00128339 -0.0481268 -0.449997 
3.64066e-18 -8.2043e-18 1 

-0.0262248 -0.0416391 0.0635465 
0.0671707 -0.0522125 0.200551 
-1.78152e-17 -5.09004e-18 1 

-0.00946587 0.0756414 -0.0984478 
-0.013366 -0.182021 0.0859959 
-6.69193e-18 2.60596e-17 1 

0.00297852 0.0306178 -0.114851 
0.0127026 -0.159065 0.123491 
-3.15989e-18 -1.25781e-17 1 

0.0145018 0.13767 0.232517 
-0.159149 -0.105772 -0.136572 
9.87451e-19 -7.93209e-18 1 

-0.0229855 0.077498 -0.137114 
0.0045034 0.0402626 -0.0835222 
5.15439e-18 -2.23251e-17 1 

-0.0139988 -0.0216561 0.050461 
-0.0134056 -0.0335746 0.0230646 
-4.56547e-18 -4.25181e-18 1 

-0.0263506 -0.0121554 -0.0621193 
-0.000696673 0.0287934 0.0593933 
-1.68369e-17 2.38278e-17 1 

-0.0581794 -0.0495541 0.256317 
0.0105017 -0.0600282 -0.210955 
-3.72549e-19 -3.64109e-18 1 

-0.00604014 0.000873989 0.312746 
-0.0124777 -0.0234661 0.0350295 
5.34594e-18 8.47096e-18 1 

0.0238733 -0.058346 -0.017918 
0.0417607 -0.205852 0.130866 
9.18954e-19 -2.29738e-18 1 

-0.0900875 0.0261672 -0.0195399 
0.0307291 -0.0885401 -0.046625 
3.92347e-18 -1.30031e-17 1 

-0.0866194 -0.0209926 0.0261329 
0.0392082 0.00135573 -0.127834 
7.04617e-18 -7.45113e-18 1 

-0.035062 0.00902645 0.0900182 
-0.0326746 -0.113437 1.03856 
-2.00023e-17 -4.06059e-18 1 

-0.0800903 -0.0151002 0.0861367 
-0.0122806 -0.0881874 0.0808743 
4.38725e-18 3.41333e-18 1 

-0.099824 0.0751844 -0.0203815 
-0.0755141 0.00845755 -0.127699 
3.42354e-18 -7.23807e-18 1 

-0.00161229 0.00396895 0.011712 
-0.00977926 -0.0922661 0.0119643 
-3.28612e-18 -2.51709e-18 1 

-0.0238356 0.00944553 0.0676668 
-0.0295685 -0.0808062 0.159351 
7.08668e-18 2.94212e-18 1 

-0.00939879 0.0384314 -0.166581 
-0.0307286 -0.0757371 0.315582 
-3.6244e-18 -1.37486e-19 1 

-0.0271679 -0.0345645 0.000923763 
0.0160224 -0.0756436 -0.361977 
-1.18947e-18 -7.13683e-20 1 

-0.0286094 -0.0489692 0.117323 
0.000495843 -0.0993891 -0.0197041 
-4.47536e-18 -1.8449e-18 1 

-0.115877 -0.125905 0.0601215 
0.258248 -0.0202731 -0.127782 
-8.83749e-18 -7.36458e-19 1 

-0.00835021 -0.0468435 0.0513422 
0.0306794 -0.0983686 0.945341 
3.28411e-18 -5.16074e-19 1 

-0.0403761 -0.14139 0.462908 
0.137818 -0.118878 0.129856 
-1.23017e-17 -5.40423e-18 1 

-0.0419269 0.010536 0.170592 
-0.0216902 -0.029351 -0.363244 
1.28619e-17 2.51498e-18 1 

-0.140408 0.0771799 -0.14632 
-0.044726 -0.0644877 0.147002 
8.95171e-19 -3.57342e-18 1 

0.00394302 -0.0154242 -0.00453586 
0.0182266 -0.0327524 -0.00402269 
1.04917e-17 1.57392e-17 1 

-0.0156914 0.000263307 0.175843 
0.000552143 -0.0349197 -0.0775083 
-2.87219e-18 -1.00658e-17 1 

-0.0631992 0.0112893 0.0366534 
0.0142965 -0.0477746 0.138674 
9.6659e-19 -5.37044e-18 1 

-0.0317278 -0.0298524 0.126296 
0.0244992 -0.0318224 0.150089 
-5.30647e-18 -1.44033e-18 1 

-0.0370788 -0.0429008 0.0856515 
-0.0110409 0.0341814 -0.383413 
7.71495e-19 -6.61282e-18 1 

-0.128291 0.0378987 0.201841 
0.00559934 -0.0451879 0.452902 
-1.89013e-18 -9.56933e-18 1 

-0.00683544 0.0635305 0.383845 
0.0217601 -0.0813845 -0.757232 
-2.64332e-18 6.6083e-18 1 

-0.0515289 -0.0315463 0.00252947 
-0.00163499 -0.076329 -0.0991134 
4.51091e-18 -1.4201e-18 1 

-0.0232413 0.00511227 0.431358 
-0.00283371 -0.0929963 0.00240098 
-9.17516e-18 -6.00215e-18 1 

-0.0478609 -0.0253487 0.0168961 
-0.0015243 -0.0536937 -0.0363856 
-4.71089e-19 -3.59205e-18 1 

-0.00720142 0.0357338 -0.0959288 
0.0273368 -0.0912122 0.100095 
3.0442e-18 -1.25515e-17 1 

-0.107505 -0.00363635 -0.0864827 
-0.0163966 -0.0153814 -1.11709 
-2.99369e-19 4.39749e-18 1 

-0.00339428 0.0115685 0.104754 
0.00775212 -0.0821779 -0.0157736 
8.5022e-18 -5.45931e-18 1 

-0.031671 -0.00605104 -0.727168 
0.0639204 -0.017128 -0.10265 
-8.15192e-18 -5.7045e-18 1 

-0.0180955 -0.0236013 0.112583 
-0.0169661 0.165744 -0.391661 
1.45933e-17 1.89871e-17 1 

-0.0229508 0.0192171 -0.282264 
0.00577231 -0.0626442 0.419514 
-9.16043e-18 -5.99047e-19 1 

-0.0973421 -0.0212264 -0.0274639 
0.0245606 -0.0702152 0.0876467 
3.70575e-18 2.0447e-17 1 

-0.0787289 -0.0123222 -0.15472 
-0.0186289 -0.00173349 -0.047748 
-8.83963e-18 2.07991e-18 1 

0.0500298 0.0470592 0.309359 
-0.0515372 -0.115324 0.0292261 
4.62862e-19 -5.23235e-18 1 

-0.0421174 -0.0360211 0.386346 
-0.00492136 -0.0254158 1.51603 
2.77355e-18 6.43122e-18 1 

-0.0331331 -0.00408518 0.402582 
0.00781588 -0.0457201 -0.626215 
-2.22538e-18 1.95583e-18 1 

-0.0146225 -0.00778413 11.0269 
0.00166786 -0.0851653 -1.5537 
-7.90771e-20 2.18337e-19 1 

-0.0270358 -0.0534566 -0.0469134 
0.0122336 -0.0577693 -0.0695354 
-1.58862e-17 2.1048e-18 1 

-0.0150823 -0.015445 0.0968954 
0.016376 -0.108505 -0.266446 
1.81662e-18 5.48479e-18 1 

-0.0361494 0.00610439 0.236959 
0.0267291 -0.0820152 0.0508849 
-5.12893e-18 -3.25404e-18 1 

-0.111983 0.0612231 0.106169 
-0.0438571 -0.0627907 -0.245053 
-3.8213e-18 -5.90015e-18 1 

-0.0115851 -0.0324884 -0.0648093 
0.0645203 -0.0453843 -0.108622 
9.4345e-19 7.71774e-18 1 

-0.0151 -0.027368 -0.0719106 
0.00379972 -0.0978777 0.104917 
1.58862e-18 1.26073e-17 1 

-0.0395333 0.00908256 0.175755 
0.0231765 -0.105397 -0.0645507 
1.7194e-17 -8.50929e-18 1 

-0.0116242 -0.00696432 2.16589 
0.0184407 -0.0656902 2.30042 
6.91013e-18 -2.45482e-18 1 

0.0265447 0.103544 1.69382 
0.0294307 -0.116086 -1.66284 
-4.80433e-18 -1.1909e-18 1 

-0.00707444 0.00971559 0.0306139 
0.0157696 -0.110739 0.133873 
7.52494e-19 4.96382e-18 1 

-0.0434541 -0.0281637 -0.131456 
-0.00284785 -0.0203254 -1.02858 
-7.93038e-19 3.58669e-18 1 

-0.0282351 -0.078193 0.0974559 
-0.0957777 -0.0653628 -0.229288 
-1.30337e-17 5.88801e-18 1 

-0.0227978 0.0187052 0.0905427 
-0.0368525 -0.0443993 0.353 
-3.12221e-19 8.41697e-18 1 

-0.0254086 -0.0596278 0.344087 
0.0523021 -0.0591324 0.102554 
5.81016e-18 2.06167e-18 1 

-0.0265614 0.0200516 -0.10771 
0.000921927 -0.0903306 0.0152687 
1.59806e-18 1.99102e-18 1 

-0.0724055 -0.00720601 0.0636472 
0.00551161 -0.0342509 0.103838 
2.48436e-17 -7.82114e-18 1 

-0.0336206 0.024223 -0.0607187 
-0.0290507 -0.0254423 -0.183509 
1.31409e-17 -7.8485e-18 1 

-0.0901347 0.0377372 -0.0556281 
-0.000418211 -0.0973132 -0.00133246 
-1.06858e-18 -6.57588e-19 1 

-0.0907581 0.0557839 -0.0392818 
-0.0461514 -0.046252 -0.141813 
1.34311e-18 -8.45941e-18 1 

-0.0106091 0.0143521 -0.0408723 
-0.00215114 -0.0463643 -0.103332 
2.08766e-18 5.21023e-18 1 

-0.0493922 -0.0116933 -0.0591577 
0.00563641 -0.0482952 -0.0972034 
-1.12358e-17 3.21022e-18 1 

0.0278771 -0.0581277 1.72954 
0.010218 -0.13415 0.55814 
3.93211e-19 -1.51291e-18 1 

-0.00786722 -0.0135333 -0.254136 
-0.00890655 -0.137792 -0.467232 
2.11673e-18 9.55044e-18 1 

-0.0952963 -0.0104544 0.142879 
0.00785671 -0.00574854 -0.131159 
1.7601e-18 1.42361e-18 1 

-0.02462 0.0744637 -0.0283836 
-0.01589 -0.101503 0.158622 
6.22085e-18 2.14512e-19 1 

0.010464 0.0313837 0.00316695 
-0.030429 -0.0702202 -0.198828 
-6.11341e-18 5.99584e-18 1 

-0.00826027 0.0504683 -0.0885662 
-0.0131823 -0.0753534 0.370246 
-5.41384e-18 1.20351e-17 1 

-0.0548904 0.0112329 -0.199196 
0.0294487 -0.00317723 0.0513875 
-2.63972e-18 3.10079e-18 1 

-0.098761 0.0145317 -0.132625 
0.0294569 0.0278159 0.13495 
-5.43957e-18 -6.85301e-18 1 

-0.0295998 0.0235878 -0.0990776 
-0.0160424 -0.056366 -0.113618 
1.12133e-17 -1.28067e-18 1 

-0.116663 0.0128444 0.0562683 
0.0073449 -0.058865 -0.0265635 
-1.43761e-18 1.46598e-18 1 

-0.0478192 -0.0102018 0.178112 
-0.0101897 -0.0227844 0.429473 
3.48042e-18 1.39827e-17 1 

0.0226407 0.0176599 0.0480143 
-0.133958 -0.0809731 0.10908 
-9.27915e-18 -4.53872e-18 1 

-0.0990068 -0.0119049 0.249387 
0.150252 -0.0131461 -0.246868 
3.31132e-18 2.23634e-18 1 

-0.0201256 -0.0219181 -0.461245 
0.0572197 -0.0461683 -0.428258 
7.99042e-18 1.12516e-17 1 

-0.0395379 -0.00353236 -0.001765 
0.0368981 -0.0774053 0.0964166 
6.88382e-18 2.65454e-18 1 

-0.0235282 0.0740505 -0.241366 
-0.197494 -0.0949745 -0.452997 
-1.79801e-18 1.19867e-18 1 

-0.0497399 -0.0103573 -0.168148 
0.0113866 -0.0509924 -0.449685 
-3.67633e-18 -6.66944e-19 1 

0.00603098 -0.00161482 -0.0278067 
0.0189762 -0.0529635 0.13673 
-7.51666e-18 5.04408e-18 1 

-0.0112381 -0.0247446 -0.0533365 
0.0522883 -0.0755532 -0.0742321 
-3.46551e-18 -4.97594e-18 1 

-0.00331793 0.0101462 -0.872403 
-0.014363 -0.0760002 -0.982696 
2.48374e-18 4.69207e-18 1 

-0.0127224 0.0316432 0.0404995 
-0.0390235 -0.0612156 -0.0728761 
-6.52745e-18 7.94872e-18 1 

-0.089731 -0.0250891 -0.0121665 
-0.0242454 0.0438861 -0.0997807 
-8.49894e-19 -3.83341e-18 1 

-0.0991209 0.00254415 0.0578177 
-0.00683588 -0.0577976 -0.0460877 
-2.76254e-18 8.49927e-18 1 

-0.0547598 -0.0992636 -0.387721 
0.0479753 -0.0738441 0.070848 
-2.14795e-18 6.22907e-18 1 

-0.0371773 -0.0523331 0.201013 
0.076902 -0.0657286 0.0893326 
-1.05432e-17 -2.49845e-18 1 

0.0958228 0.130605 0.154267 
0.0505021 -0.181856 -0.345835 
-1.4205e-17 -1.11647e-17 1 

-0.00815945 0.00625246 -0.188372 
0.0678016 -0.0838055 1.32143 
4.88205e-18 7.32017e-18 1 

-0.0892279 0.0977205 -0.0586773 
0.0979391 -0.0623523 -0.146847 
1.64285e-18 6.49978e-18 1 

0.0125157 -0.0356024 -1.02549 
0.021038 -0.112255 -0.0421484 
4.83131e-18 -6.92652e-18 1 

-0.0106038 0.00456147 -2.41981 
0.00976432 -0.0687497 2.4704 
5.86468e-18 3.60137e-18 1 

-0.0275912 -0.0114373 0.259107 
0.0109899 -0.0909271 0.230154 
7.77258e-19 2.05896e-20 1 

-0.0528457 0.0155138 -0.346854 
-0.0130967 -0.0205536 -0.00305599 
1.52737e-17 1.13414e-17 1 

-0.0425312 -0.00482595 0.00427799 
0.0220904 -0.0711981 0.272381 
1.62203e-18 4.55958e-18 1 

0.0185551 -0.023163 -0.262192 
-0.112808 -0.123263 -1.82962 
-1.30786e-18 -6.04376e-18 1 

-0.0532537 -0.00806318 0.540986 
-0.00379585 0.00410129 -0.136854 
-1.31296e-18 -1.30198e-17 1 

-0.128925 0.0407616 -0.11949 
0.0414181 -0.087344 0.216767 
-1.11512e-18 -8.5772e-18 1 

-0.0609081 0.00810812 -2.73766 
-0.0398792 -0.0210684 0.568709 
5.49702e-18 -3.20913e-18 1 

-0.050605 -0.0167528 0.0153155 
-0.026577 -0.0929504 0.00524503 
-7.38838e-18 8.09145e-18 1 

-0.0458012 0.0262434 -0.186347 
0.0481404 -0.0725224 0.45651 
-2.0872e-18 1.68322e-17 1 

-0.0411745 -0.0374088 0.381843 
0.0108482 -0.0325402 -0.680506 
-3.30422e-18 -1.4739e-17 1 

-0.0251429 -0.006194 -0.00845279 
0.0736568 -0.106533 0.0105085 
-7.04862e-18 -5.66407e-18 1 

-0.171134 0.0633545 -0.040446 
0.0176171 -0.0907466 0.169873 
-1.407e-17 2.78613e-18 1 

-0.0127339 0.0156906 0.0453687 
-0.00896007 -0.0459218 -0.188866 
-1.53385e-17 5.9904e-18 1 

-0.0560679 0.00578609 0.0615051 
0.0182699 -0.0492861 -0.0749429 
-2.91201e-18 4.56787e-18 1 

-0.00583873 -0.0463682 -0.0567588 
0.00655254 -0.11469 0.549958 
5.24421e-18 1.39163e-17 1 

0.019566 -0.025542 0.258866 
-0.00947525 -0.129458 -0.599881 
1.4053e-18 -3.45469e-18 1 

0.00423281 -0.0279049 0.161116 
0.021542 -0.0987878 0.369188 
1.58738e-18 7.70634e-18 1 

-0.00841802 0.0155957 0.0574523 
0.0099569 -0.0588946 -0.140297 
7.99107e-18 -1.8143e-17 1 

0.00675239 0.04592 -0.0469765 
0.0409761 -0.0942382 -0.254894 
-1.36703e-19 -3.86186e-18 1 

-0.0498667 0.016698 -0.0388975 
-0.0456434 -0.0457005 -0.399408 
-1.2912e-18 -6.82144e-19 1 

-0.0397118 0.0050053 0.05364 
0.00481511 -0.0262968 0.0710672 
1.31144e-19 -9.59224e-19 1 

-0.0588705 0.00899216 0.152271 
-0.0181043 -0.0739202 0.0531636 
-3.62775e-18 -8.20623e-18 1 

-0.147485 0.0477088 -0.667319 
0.00972602 0.0447097 -0.480907 
-9.0001e-19 6.15007e-18 1 

-0.023643 0.0221722 -0.0203331 
0.0196899 -0.0880854 -0.106163 
4.02433e-18 1.02972e-17 1 

-0.00755148 0.00492102 0.133713 
-0.00736708 -0.0715694 -0.280169 
1.81134e-18 -1.72226e-18 1 

-0.0263958 0.0366267 0.0332422 
-0.0290691 -0.105808 -0.027012 
-1.96978e-18 4.06094e-18 1 

-0.0497802 0.124883 -0.269836 
-0.118177 -0.0324151 0.123009 
3.60599e-18 0 1 

-0.0440387 -0.0445119 -0.0532005 
0.0443352 -0.133669 0.0128804 
2.96003e-18 7.04648e-18 1 

-0.0219084 -0.00323843 -0.0685202 
-0.0353879 -0.0758915 0.0372232 
1.05067e-17 -5.25337e-18 1 

-0.0264227 -0.0172152 -1.62588 
0.00871685 -0.0967729 -2.0392 
5.62635e-18 -7.82871e-18 1 

-0.0879988 -0.0293211 -0.0170168 
0.0808121 -0.0913255 -0.335888 
-1.73363e-17 8.01016e-19 1 

-0.0327281 0.00834977 -0.0021282 
-0.0779247 -0.0763968 0.136514 
-6.42519e-18 1.0145e-18 1 

-0.0586389 0.0263069 0.598927 
-0.0636046 -0.0895794 0.507755 
-2.00709e-18 -3.38374e-18 1 

-0.0942618 -0.0749819 0.235657 
0.0465691 -0.0252766 0.030109 
3.28282e-18 1.26664e-17 1 

-0.00463609 0.0373448 -0.0441727 
-0.0259752 -0.0935931 -0.0257167 
5.87219e-18 8.31893e-18 1 

-0.105601 0.0192642 0.042232 
-0.0782985 -0.0077752 0.499417 
3.08219e-18 -6.35703e-18 1 

-0.079074 -0.0439709 0.0326511 
0.0529704 -0.0236111 0.0132585 
8.84807e-18 -1.165e-18 1 

-0.0228923 -0.0524475 -0.140076 
-0.0103674 -0.0887472 -0.0345764 
2.20591e-19 -4.16366e-18 1 

-0.0794699 -0.0040442 -0.162618 
-0.002904 -0.0602615 -0.0727289 
5.47511e-18 1.5732e-17 1 

-0.101867 0.00728366 0.276521 
-0.0761589 -0.0255538 0.756047 
-9.51896e-18 6.13257e-18 1 

-0.123642 0.053838 0.113786 
-0.0548852 -0.0579375 -0.0482159 
1.24118e-17 8.40053e-18 1 

-0.0284489 0.0175266 -0.0833048 
-0.0275775 -0.0417801 0.313473 
-9.21872e-19 -1.78066e-18 1 

-0.00433224 -0.0283857 -0.45583 
0.0711467 -0.137167 0.0314114 
-1.0175e-17 -1.14104e-17 1 

-0.00339993 0.100621 0.270694 
-0.0241386 0.00509216 0.230731 
-8.66806e-19 -1.67383e-18 1 

-0.0222076 -0.0113843 0.0231378 
-0.0399174 -0.0935798 0.202526 
-8.30396e-18 -2.24998e-18 1 

-0.0833152 0.0197254 0.013047 
0.0237147 -0.0117571 0.413476 
-5.25449e-18 -5.44848e-18 1 

-0.0059801 0.0166409 0.010113 
-0.0593395 -0.0967788 -0.0461887 
1.41235e-18 -4.45228e-18 1 

-0.0153121 -0.0192776 0.135632 
0.0102329 -0.0607481 -0.0785859 
-3.67185e-18 -1.15743e-18 1 

-0.135873 0.0464416 -0.0383139 
-0.0374923 -0.0271388 0.148798 
-4.54687e-19 -3.52945e-18 1 

-0.0319781 -0.0818118 0.0192788 
0.0191587 -0.0424383 0.218765 
-2.96541e-18 -5.09295e-18 1 

-0.0311951 -0.0526067 0.121865 
0.0632732 -0.0696476 0.0846658 
1.32466e-18 8.12459e-18 1 

-0.0152363 0.00881188 -0.218049 
-0.0457828 -0.0463202 -0.160844 
-1.89059e-18 2.08285e-18 1 

-0.027154 -0.0118055 0.474499 
-0.00553879 -0.0648127 0.46239 
4.52105e-18 1.09324e-17 1 

-0.0109827 -0.0084341 0.00716908 
0.0155061 -0.0231666 0.0207895 
-3.63142e-18 -2.16876e-18 1 

-0.0984604 0.0352965 -0.155987 
-0.0295281 -0.0324318 0.460887 
6.66504e-18 1.25647e-17 1 

-0.0303212 -0.00339617 0.053446 
-0.0442327 -0.0327239 0.0568677 
-6.94489e-18 1.49946e-18 1 

-0.0136124 0.0230833 -0.129185 
-0.0574278 -0.0638919 -0.029645 
-8.66264e-18 -6.24727e-18 1 

-0.0644081 -0.00758463 -0.172111 
-0.000388153 -0.0645993 -0.356975 
7.10834e-18 -6.77409e-19 1 

-0.000403704 -0.0186487 -0.193956 
0.0952755 -0.093025 -0.0595278 
-3.19699e-18 -1.43742e-17 1 

0.0226182 -0.0328067 0.706741 
-0.0310668 -0.080795 -0.860504 
8.69291e-18 1.8776e-18 1 

-0.0406569 0.120085 -0.223914 