# vtk DataFile Version 3.0
Output file generated by Yade's KinematicLocalisationAnalyser
ASCII
DATASET UNSTRUCTURED_GRID

POINTS 13483 float
596.776 36.1503 -0.477173
724.557 72.0444 -0.54307
120.788 6.08723 -0.470157
754.284 5.3621 0.267452
502.15 8.30678 0.313913
317.922 36.3932 -0.452342
157.488 6.84671 0.438884
565.043 10.5308 0.130563
498.476 26.6134 -0.141124
689.031 15.2047 -0.471785
212.233 8.77475 -0.0959768
259.649 6.3077 -0.263679
633.766 46.2691 0.139451
616.707 27.2483 -0.0865552
138.009 17.894 -0.454318
223.367 35.0989 -0.389652
219.588 13.0019 -0.26203
292.21 9.75742 0.375595
345.306 33.3388 0.446746
524.426 8.5512 0.400113
414.91 38.1482 0.0985121
582.293 50.6402 0.256697
750.434 53.0194 -0.489507
670.956 52.5341 0.458204
463.055 17.0577 0.30476
243.306 44.6942 0.122045
493.746 31.5777 -0.457083
578.981 21.2384 0.234344
45.1156 15.9634 0.461829
687.024 38.7319 -0.385085
485.585 4.92853 0.366034
16.0855 24.214 0.334813
738.781 70.6748 0.257751
498.417 2.66045 0.478006
78.8277 44.9324 0.10417
524.743 31.4133 0.323352
532.765 18.0357 -0.440961
347.968 22.9557 0.178812
537.453 28.9923 -0.322061
355.902 34.9394 -0.432287
243.817 14.4849 -0.320535
437.518 39.714 0.0871183
649.242 5.57377 0.225087
194.346 6.25162 0.370276
55.6495 7.08889 -0.107261
69.0727 9.00986 0.293366
662.486 8.56425 -0.514958
23.2182 11.8065 0.267115
596.218 62.6539 0.338191
651.755 31.5849 -0.353513
173.078 32.8716 0.29053
719.403 60.5215 0.115875
35.1753 28.1694 -0.113746
533.752 2.95516 0.36573
142.938 7.11228 -0.494523
590.964 39.0361 0.425401
505.566 29.9433 0.120004
176.308 0.96634 0.273643
32.8498 2.42457 0.293282
353.035 18.194 0.270305
609.865 66.7155 0.132823
466.797 35.3652 -0.183586
404.552 1.02643 0.198354
671.388 9.45107 -0.504659
27.1113 43.1236 -0.237363
259.761 30.6139 0.288594
689.558 10.2057 -0.230672
661 68.8458 0.354889
423.155 8.56172 -0.524871
565.928 3.78551 -0.339569
712.447 43.5117 0.423484
131.708 7.87718 0.251402
500.661 28.9656 -0.14032
482.363 16.2042 -0.118428
298.523 16.8373 -0.344305
20.3116 13.6344 -0.293178
738.41 61.697 -0.317926
337.056 39.5356 -0.308911
650.452 30.4823 0.355594
661.203 15.3534 -0.231259
748.659 26.3007 -0.23393
470.015 36.8786 -0.176064
93.5894 39.0978 -0.272669
662.454 46.4664 -0.211464
638.845 58.0564 0.0965355
754.849 57.8425 0.114265
741.773 0.683765 -0.493123
294.914 28.7676 0.470984
617.15 6.31726 -0.112562
24.1994 5.26468 0.548616
134.834 39.3727 0.150626
515.956 14.7918 0.184498
732.701 45.0678 -0.501111
197.532 28.6257 -0.261448
45.2817 34.9364 -0.273222
497.245 1.44111 0.145454
238.81 8.74606 -0.419916
698.592 67.8486 0.238864
725.894 36.6505 0.253528
366.467 21.1263 -0.268431
164.695 27.4199 -0.451406
551.515 54.0504 -0.448533
385.816 15.1909 -0.510638
420.464 30.5583 -0.0989545
383.808 4.56127 0.403733
547.111 13.1672 0.150756
759.204 12.7172 0.244734
81.0914 39.8339 -0.411105
340.518 5.03328 -0.203154
559.172 10.8818 0.360907
365.658 46.0907 0.195143
25.2288 24.735 -0.489097
30.5526 5.70007 0.307459
565.966 41.4701 0.402997
508.251 26.7396 -0.150551
26.6715 36.8732 0.427143
94.4875 31.2069 0.219186
330.317 16.1456 -0.283706
597.329 20.1243 0.152021
481.222 43.077 -0.0374708
703.283 10.1665 0.376552
696.494 6.27742 0.393605
393.387 37.3027 -0.105654
620.404 41.1129 0.112366
241.957 17.2982 -0.496193
335.888 3.87083 0.461034
104.706 32.3196 0.310281
118.178 25.2847 -0.278577
547.262 53.4923 0.10337
312.512 19.1136 0.462556
687.66 43.5983 -0.117437
666.12 69.9111 0.103191
487.244 22.033 -0.453156
734.601 12.7145 0.528158
436.417 25.69 -0.221762
282.231 25.3491 -0.302727
659.491 52.4241 -0.286951
284.778 29.6135 0.372285
575.614 13.0497 -0.190711
338.7 36.5387 -0.193612
510.138 12.0065 0.496301
373.789 32.2921 -0.0926275
438.437 17.5089 -0.103043
324.346 43.002 0.433377
193.619 30.0206 -0.123854
729.402 70.3762 0.158852
756.541 15.0382 -0.339687
6.10224 12.689 -0.447751
442.575 23.7462 -0.402405
38.8878 22.6113 -0.0845024
384.106 31.4772 -0.486601
403.757 25.5572 -0.264332
75.7567 11.9372 -0.514681
52.4203 35.4537 -0.493176
230.213 13.5005 0.421135
609.816 60.0368 0.46844
576.337 23.3566 -0.523357
75.4459 21.5465 0.490985
675.046 54.6151 0.410855
722.852 2.06013 -0.539415
655.579 61.8362 0.47586
669.008 1.93932 -0.555835
554.281 33.9246 -0.396649
583.287 48.0947 -0.492131
519.37 19.617 -0.397137
752.465 4.64213 0.420806
228.071 25.6594 -0.13596
130.401 36.3108 -0.193495
252.351 6.70419 -0.387978
95.8694 4.44742 0.285038
65.3444 9.98723 0.233033
282.293 36.9889 -0.309955
16.5199 25.8874 -0.358851
557.612 22.9549 0.45814
599.006 58.6506 0.253315
472.808 22.9152 -0.358574
751.842 72.2061 -0.351364
416.272 8.67284 -0.108216
443.765 39.3243 -0.437351
541.968 3.4817 -0.174885
22.6485 23.9962 -0.409018
577.751 5.4852 0.472392
550.371 7.12486 -0.465329
210.619 11.3783 0.525214
435.231 17.0184 0.186111
318.735 6.25464 0.379046
397.55 19.3566 -0.354852
703.187 56.6729 0.110183
195.702 25.8294 -0.413004
742.228 10.4107 -0.35996
705.363 53.7177 -0.316573
392.483 10.3927 0.179029
687.061 2.33391 0.463923
600.755 33.656 -0.448767
706.376 24.9072 0.414342
439.802 46.5874 -0.280181
504.797 14.4815 0.447645
472.956 47.7272 -0.216018
455.554 9.0273 -0.210089
659.244 62.409 0.308317
658.336 57.8845 0.283681
196.096 39.1243 -0.301911
746.463 26.1246 -0.131778
584.378 46.8514 0.285643
11.8047 18.263 -0.187232
418.059 26.027 0.348462
190.916 23.347 0.415612
95.2025 40.1976 -0.211649
729.666 39.5046 0.367254
652.39 66.6182 -0.221011
326.981 26.4382 0.356593
538.649 10.325 0.316968
83.9897 45.0895 0.173978
253.608 25.9524 -0.464145
559.734 28.8758 0.343235
495.809 20.0324 0.410277
269.172 0.906958 -0.355425
560.464 54.1749 -0.377687
540.91 50.5933 0.462383
490.634 37.6619 0.381458
508.804 2.16766 -0.66666
677.057 21.0552 -0.374162
183.207 12.3603 -0.170585
509.642 39.3682 0.447296
569.604 46.5743 0.143501
74.4791 0.935655 -0.259831
257.822 4.67065 0.184588
755.439 18.3454 0.181958
749.079 28.241 -0.392452
761.422 21.2678 -0.676009
311.27 8.50552 -0.244988
715.045 27.1523 -0.448285
416.083 45.3801 0.318797
460.187 0.93677 0.500506
643.715 54.6543 -0.417884
27.1697 30.5152 0.331934
339.215 41.2217 -0.494092
258.745 2.83422 0.333358
742.583 68.8221 -0.198679
682.636 54.7095 -0.257666
294.851 11.0375 0.239617
649.91 47.774 -0.0949013
560.796 2.54613 0.259867
547.913 7.47241 0.546115
98.9669 18.6519 -0.498707
311.122 1.02462 -0.227079
351.799 2.27064 -0.360061
13.9178 7.58482 -0.448545
4.41096 32.4822 -0.246739
165.139 19.0735 -0.370451
69.9868 42.483 -0.219963
67.8225 29.7214 -0.311065
434.782 14.8453 -0.451383
376.058 36.1784 0.463431
716 62.2831 0.134301
19.6336 4.01756 -0.265204
72.1327 6.98954 -0.139038
618.638 54.4012 0.138521
302.376 0.926717 0.370149
374.018 16.1984 -0.100319
241.413 4.69888 -0.36697
639.182 35.5435 -0.168045
462.61 9.1991 0.43241
715.213 23.9463 -0.486177
619.521 44.4139 -0.294593
649.322 24.4531 -0.101656
431.435 27.8706 0.454236
104.741 45.825 -0.306731
549.856 57.8417 -0.00118106
702.791 19.2044 0.20121
243.956 30.8086 -0.242527
32.2612 16.5941 -0.179241
345.265 14.0813 0.488983
110.281 41.2538 -0.484731
275.008 43.1776 -0.203761
437.132 2.04717 -0.341675
735.538 54.9509 0.438672
663.967 0.743278 -0.534197
341.032 3.48269 0.563061
308.22 27.2155 -0.145055
472.63 44.3706 0.221292
83.4417 8.17992 0.468374
202.43 45.3104 -0.382933
725.497 44.8862 -0.364555
505.338 42.6012 0.0768287
204.816 41.2313 -0.26879
164.221 43.4827 0.378372
758.388 51.1542 -0.419068
757.808 13.6989 -0.535278
608.226 2.92476 -0.604408
194.346 24.5634 -0.09915
556.305 36.1082 -0.101726
555.602 32.808 0.284481
420.811 5.66151 -0.14071
492.336 0.910591 -0.328893
714.007 64.9783 -0.483108
87.0101 31.4221 0.216818
640.774 27.7363 0.410407
281.541 15.6887 -0.350099
9.44853 2.36134 0.344158
128.96 38.0961 -0.183972
67.6965 23.5404 0.455428
676.123 40.28 0.376147
743.149 79.2275 0.175468
189.766 28.74 -0.181044
753.642 17.3824 -0.298667
46.514 37.3963 0.264009
93.2621 29.5784 0.151846
625.715 26.7068 0.423942
425.332 18.4967 -0.486204
529.057 17.6034 0.107492
244.505 28.8962 0.186765
622.709 6.97707 -0.526977
760.604 14.2501 0.463904
30.2596 31.4393 0.254022
277.673 7.68573 0.190553
227.856 15.3809 -0.234817
1.08153 38.4236 0.150128
231.299 14.5186 -0.393919
217.143 10.9865 0.116558
219.63 26.682 -0.277156
136.246 28.9195 0.142998
553.585 17.6481 0.365986
170.825 14.339 -0.328646
736.328 68.4551 -0.226596
178.36 3.93843 -0.501677
48.2202 39.9671 -0.343189
691.789 77.8495 -0.426721
289.788 33.132 0.402222
654.345 33.8391 -0.511542
739.824 51.7829 -0.452107
309.318 9.16281 -0.107069
707.318 42.1282 0.364525
337.967 2.52001 -0.41827
428.206 24.7239 -0.395467
652.099 20.237 0.509415
108.028 11.5829 0.513574
494.024 3.85506 -0.534432
717.978 21.2871 0.177035
90.3885 7.72945 -0.26704
289.692 14.9599 0.186192
435.61 12.2749 -0.219972
752.701 2.73035 0.450483
409.572 1.98763 -0.529251
180.702 39.412 0.299971
704.696 15.5759 -0.350408
132.213 37.442 -0.215137
270.836 32.0121 -0.376092
412.637 22.2033 0.223252
578.203 14.7177 -0.387428
398.365 9.92404 -0.457747
468.416 29.7726 -0.417521
725.427 72.782 0.390886
48.6728 11.0528 0.14971
307.495 39.3637 -0.274331
390.581 26.1615 -0.407013
421.681 20.4969 0.245734
529.986 46.5631 -0.382051
707.454 64.2653 0.210142
663.087 59.2061 -0.145756
231.573 34.9275 0.399691
13.5061 32.8024 0.14857
656.313 58.1527 -0.116625
520.821 42.5343 -0.454308
235.992 39.5539 0.0929876
659.937 41.5289 0.119432
154.716 9.25862 -0.200808
378.628 22.0502 0.272959
474.068 45.835 -0.129203
425.955 20.0837 0.198339
721.569 74.0105 -0.294385
438.24 3.93981 0.503096
51.1126 25.5638 0.32183
482.531 35.1517 0.34465
446.224 43.7281 0.36486
739.462 63.3032 0.210605
703.803 41.901 -0.215312
548.586 21.2717 -0.157203
730.521 63.5157 0.41823
301.938 2.22134 -0.462162
390.884 29.2599 -0.453937
29.764 38.7342 0.304688
708.835 43.3036 -0.148244
607.252 21.1839 0.481703
474.136 0.746101 -0.485693
129.011 4.67276 -0.337715
437.43 44.154 -0.0931354
11.8934 0.904315 -0.315968
750.96 8.49217 -0.22102
[...]
POINT_DATA 13483
TENSORS Strain_matrix float
-0.873145 -0.258853 -0.192008 
0.551926 0.449957 4.65182 
-5.03255e-18 2.44566e-18 1 

-0.448506 0.093361 -65.0611 
0.0703133 0.295229 28.9048 
5.61518e-18 7.98803e-18 1 

-0.112813 -0.00653531 0.327635 
0.0308377 -0.0274822 4.50481 
1.00705e-17 8.19074e-18 1 

-1.52417 -0.312636 0.00101311 
-0.073902 0.377863 -0.628222 
-5.76498e-18 2.3942e-18 1 

-0.442838 -0.446386 -0.501241 
0.174117 0.185087 -0.673283 
3.36933e-18 -2.42227e-17 1 

-0.0917966 0.00574319 -0.714982 
-0.0336868 0.00223181 -0.658024 
-5.04646e-18 5.43849e-18 1 

-0.0972058 -0.0256248 -0.0984773 
-0.027734 -0.0815255 -0.00469692 
8.86575e-19 8.4108e-18 1 

-0.12426 -0.100897 -0.376783 
0.000102773 -0.0918242 -0.338918 
-3.34725e-18 9.979e-18 1 

-0.269241 0.209423 0.537965 
-0.0301013 0.172597 0.73824 
-1.14503e-19 -1.94655e-18 1 

-0.556213 -0.103069 1.06915 
0.173886 0.191583 -0.170687 
-2.45648e-17 2.16294e-18 1 

-0.0885011 0.00956929 0.0368862 
0.0174162 -0.0662827 0.0607013 
-1.63103e-17 -9.04826e-18 1 

-0.0839615 -0.0697857 0.197897 
-0.0193305 -0.095265 0.126363 
-9.5779e-18 -4.14045e-18 1 

0.0825631 1.09843 4.3 
-0.0145838 0.000181466 1.10362 
-9.29922e-19 9.7844e-18 1 

-0.855858 -0.357225 -1.0231 
0.94407 0.543096 -0.266818 
-2.24715e-18 -1.97749e-18 1 

-0.110658 -0.0676535 -0.916585 
0.0374166 -0.0691167 -0.377472 
-1.71796e-17 8.39769e-18 1 

-0.0849753 -0.00257565 -0.623038 
-0.00164568 0.00184215 -0.42621 
3.17872e-18 5.82447e-18 1 

-0.0768982 -0.0204043 0.164297 
0.0135343 -0.0891091 -0.0291846 
-2.71552e-17 -6.09773e-18 1 

-0.14503 -0.00468267 0.00989957 
0.0125744 -0.0679594 -0.0852715 
1.623e-19 8.34685e-18 1 

-0.0677681 0.007693 -0.949643 
0.0903299 -0.0290123 0.83392 
3.17868e-18 -7.39485e-18 1 

-0.169098 0.31644 0.755629 
-0.379269 2.96468e-05 0.16334 
-1.41379e-20 2.52858e-18 1 

-0.276785 -0.0987729 0.982198 
-0.123319 0.0299634 0.280306 
-8.60241e-18 -1.06878e-17 1 

-1.00331 0.105897 0.813068 
-0.193899 0.81545 3.61238 
-2.04786e-18 3.48529e-18 1 

-0.721403 0.0716984 -14.2532 
-0.236108 0.333574 1.93757 
4.40612e-18 -1.06781e-17 1 

-1.0989 1.18425 -11.166 
-1.17848 1.55788 8.56946 
5.14039e-18 5.84277e-18 1 

-0.058079 -0.00519018 -0.0650868 
0.031819 -0.0256471 0.176753 
-2.63063e-18 6.9968e-18 1 

-0.0789555 0.0486797 -0.0424152 
-0.0835067 -0.00606844 -0.0408086 
-8.26366e-19 -5.21465e-18 1 

-0.24181 0.0136753 0.687166 
-0.124194 0.126293 1.25957 
-2.80322e-18 -7.32797e-18 1 

-0.294341 -0.181911 -0.389014 
0.221047 0.282725 -0.232242 
2.64979e-18 -7.07051e-18 1 

-0.0914417 -0.00135596 -0.307843 
0.0379779 -0.0633561 0.120504 
4.92927e-18 4.23721e-18 1 

-0.796352 -0.387821 -0.00686747 
0.349977 0.327709 0.185774 
-1.10869e-17 3.55966e-18 1 

-0.120289 0.00608565 -0.338436 
-0.0909226 -0.186017 0.0807235 
2.92106e-18 6.59673e-18 1 

-0.135657 0.0786639 -0.45384 
-0.132282 -0.0737319 -0.177245 
2.42463e-18 1.50494e-18 1 

-0.0515345 -0.405876 -0.822927 
0.32702 0.0936226 0.495579 
7.34273e-19 1.66435e-18 1 

-0.193919 0.0420462 -0.289196 
-0.0526304 0.0832229 -0.70466 
-1.31492e-18 -1.53168e-17 1 

-0.0678338 -0.016426 -0.00952141 
-0.0224912 -0.0859868 -0.149005 
3.27481e-18 4.85157e-18 1 

0.0310189 0.0813777 -1.1672 
0.0154802 -0.0195103 0.665819 
-5.53087e-18 -2.2555e-18 1 

-0.309285 0.31615 3.025 
0.145568 0.0571753 0.371067 
9.55947e-18 7.98892e-19 1 

-0.0696511 0.125811 0.091691 
-0.112314 0.074769 -0.00354109 
-9.14349e-18 8.03824e-18 1 

-0.0218465 0.291727 0.22225 
0.064157 -0.0753206 -0.382636 
-9.28976e-18 7.69791e-18 1 

-0.121974 -0.0553509 2.16133 
0.0923399 0.0708876 0.241984 
-5.03036e-18 1.16866e-17 1 

-0.12097 0.00507559 0.139045 
-0.100771 0.00816907 0.0712014 
1.70738e-17 4.51252e-18 1 

-0.15345 0.17309 -0.00251523 
-0.0745639 -0.00300964 0.1301 
4.44996e-18 8.05141e-18 1 

-0.281097 0.21584 0.0449334 
-0.619759 -0.104012 0.454618 
2.9989e-18 1.28021e-17 1 

-0.0640276 -0.0256035 0.341399 
0.00406113 -0.0791813 0.0994531 
8.93759e-18 -3.76161e-20 1 

-0.106448 0.0507659 -0.0164153 
-0.0843619 -0.0584603 0.101788 
5.18499e-18 -4.71635e-18 1 

-0.0798982 -0.00594813 -0.113721 
0.0201027 -0.0593609 0.0602074 
3.10935e-18 4.74762e-18 1 

-0.791946 -0.464804 0.0924004 
0.151255 0.304733 -0.582764 
-1.08432e-17 1.65409e-17 1 

-0.0593944 -0.0713871 -0.060255 
-0.0256017 -0.104572 -0.0304587 
8.4335e-18 -3.8618e-18 1 

0.155678 -0.646414 -0.878982 
0.696502 0.141268 -0.268382 
1.0041e-17 -1.01484e-17 1 

-1.56856 0.790848 -0.764611 
-0.467684 0.689758 -0.904591 
6.43357e-18 -3.99504e-18 1 

-0.0693919 -0.0728557 0.126449 
0.0143945 0.0534531 0.849655 
3.28097e-18 -1.64049e-18 1 

-0.681898 -0.0838188 -0.210471 
0.209629 0.236206 -0.462625 
-8.70187e-18 -8.28451e-18 1 

-0.109167 0.00743209 -0.178371 
-0.00348786 0.0193524 0.243943 
5.5765e-18 -3.6982e-19 1 

-0.170021 0.0592816 0.109051 
-0.0194723 -0.029005 0.119631 
-2.24384e-18 -1.27392e-17 1 

-0.110066 0.0518761 0.141395 
-0.0227831 -0.14439 0.0891025 
-1.28169e-17 1.84154e-17 1 

-0.742956 0.157608 -4.75045 
1.08699 0.285718 -0.435872 
4.9472e-18 -1.26539e-17 1 

-0.353577 -0.133212 0.589297 
0.0219127 0.26377 0.472847 
-5.42036e-18 9.22615e-18 1 

-0.0978478 0.0315021 -0.0756128 
0.00766026 -0.0554625 0.0636459 
-7.44549e-18 -2.28745e-17 1 

-0.0540502 0.0113759 0.0219041 
0.0151957 -0.134593 0.19204 
-7.46016e-18 -6.91255e-18 1 

-0.0812065 -0.0271429 -0.175831 
-0.0931134 -0.0632164 0.265796 
-2.57842e-18 -2.18068e-18 1 

-0.373278 -0.284837 -0.441405 
-0.106893 0.921067 -1.52843 
-1.68208e-18 -1.92823e-18 1 

0.00691753 -0.221424 0.431776 
0.287881 -0.00156723 0.131835 
-1.89066e-17 4.5343e-18 1 

-0.102721 -0.0834672 -0.28129 
-0.0129119 -0.0558669 -0.136376 
2.92542e-18 -2.21884e-17 1 

-0.455016 -0.181921 -0.512457 
0.0840881 0.165143 0.539706 
1.42858e-17 -3.02968e-19 1 

-0.223473 0.0103785 -0.0628107 
-0.0362209 0.080166 -0.145314 
8.20713e-18 1.72048e-18 1 

-0.0672416 0.00990645 0.182628 
-0.0615374 -0.0309931 0.103909 
3.02261e-18 -1.22073e-17 1 

-0.765301 -0.128339 0.196581 
0.199133 0.276462 -0.574621 
-1.42592e-17 -4.69716e-18 1 

-0.0255486 -0.424438 0.0579208 
0.436006 0.102817 -0.11701 
2.13304e-18 2.95343e-18 1 

-0.117459 0.0195423 0.816995 
-0.0593037 -0.0824423 -0.476914 
-9.66532e-18 6.77142e-18 1 

-0.235215 0.0861952 -0.0142099 
-0.15903 -0.0513914 -0.472795 
9.68891e-18 -1.10454e-17 1 

-0.758471 0.748796 12.3786 
-0.0451322 0.705125 3.36412 
3.71839e-18 1.11195e-17 1 

-0.0948067 0.0134926 -0.0108694 
-0.0409922 -0.030426 -0.0660288 
-4.31054e-18 -5.48902e-19 1 

-0.347014 0.190547 0.0495414 
-0.361231 0.293992 0.146845 
1.06982e-17 -6.91563e-18 1 

-0.142346 0.583674 -1.13239 
-0.353212 0.376159 0.897609 
8.27633e-18 -6.73256e-18 1 

-0.0829969 0.0176179 -0.435115 
-0.0226947 -0.0405274 -0.452033 
8.702e-18 -7.00008e-18 1 

-0.0847068 -0.00837204 -0.188704 
-0.0137977 -0.0865119 -0.0882548 
1.10643e-17 5.43527e-19 1 

0.26044 2.85003 -10.6429 
-0.187769 0.109351 3.82497 
4.89335e-18 -7.35648e-18 1 

-0.0875279 -0.0185966 -0.126828 
0.0454554 -0.0794166 0.665179 
3.09209e-19 -4.09735e-18 1 

-1.67557 0.826909 0.590619 
-0.574602 0.674881 -0.398408 
-6.07957e-18 -2.56184e-20 1 

-0.123777 -0.750201 1.30787 
0.325457 0.261649 0.83808 
-1.23176e-17 -5.3093e-19 1 

-0.159481 -0.0619323 -1.31788 
0.078218 -0.0883774 0.617253 
1.85913e-18 7.82391e-18 1 

0.000931005 -0.322482 -0.0755971 
0.336359 0.0585021 0.131573 
1.51519e-18 9.94917e-18 1 

-0.0448188 -0.0108727 0.0678433 
0.0216643 -0.0209256 0.100915 
4.38993e-18 1.55161e-18 1 

-0.639549 1.98339 -1.32024 
-0.345277 1.04759 0.1339 
-2.29873e-18 -1.00155e-17 1 

-0.189976 -0.511271 0.127793 
0.436666 0.152239 0.203586 
9.84805e-18 -1.18661e-17 1 

-1.47756 -1.24853 1.75892 
-0.408912 0.387723 1.08308 
1.37908e-18 -2.75816e-18 1 

-2.07306 44.3154 -5.865 
0.0227532 0.248198 -0.376753 
-2.32391e-19 5.21736e-17 1 

-0.156027 0.0528791 0.59878 
-0.0521367 -0.0295899 1.03878 
-2.82598e-18 6.09817e-18 1 

-0.309709 -0.311777 0.18837 
0.259093 0.0246155 -0.212742 
-5.93124e-19 5.66338e-18 1 

-0.103395 0.0356766 -6.01187 
-0.00452584 -0.0580854 8.58665 
-1.46868e-18 1.84022e-17 1 

-0.123836 -0.123104 -0.10781 
-0.0475241 -0.0389394 -0.103944 
2.05645e-18 -7.13026e-19 1 

-0.199621 0.454776 -0.618993 
0.153553 -0.0521792 0.0157393 
-1.17606e-17 7.88893e-18 1 

-0.795983 -0.292162 -12.1114 
0.132709 0.456969 3.22952 
-7.98733e-18 5.20365e-18 1 

-0.0856918 -0.0475986 0.109018 
-0.0178964 -0.0963575 -0.110831 
1.11423e-17 -1.2701e-18 1 

-0.166759 -0.0151694 0.582947 
0.152342 0.143825 -0.825469 
4.14619e-19 5.11999e-18 1 

-0.170729 0.0561628 -0.054113 
0.00487415 0.00692912 0.0939678 
-2.10525e-17 5.28378e-18 1 

-0.142421 0.0388212 -0.44463 
0.0224159 -0.0258081 0.197427 
-1.38545e-17 5.024e-18 1 

-0.230826 0.254025 0.370052 
-0.0192247 0.0827969 -0.215768 
-1.08664e-17 4.57533e-18 1 

-1.62811 -0.501513 2.77235 
-0.0840062 0.567761 0.277573 
-6.06028e-18 -3.19507e-18 1 

-0.0735558 0.0127589 -0.6319 
-0.106363 0.0523203 0.525304 
1.65103e-17 -1.24291e-17 1 

-0.0723531 0.0351393 -1.89296 
0.0193594 -0.0357348 -0.594938 
-7.15031e-19 3.96915e-19 1 

-0.309839 0.0580698 -7.84589 
0.0255323 0.087539 41.227 
-3.10276e-18 1.92357e-18 1 

-0.0965181 0.0591417 1.57572 
-0.0351626 -0.0495682 2.66863 
-2.67372e-18 6.31491e-18 1 

-0.113344 -0.156105 0.472767 
0.149108 0.0297079 -0.0746055 
6.17702e-18 -7.98351e-18 1 

-0.107557 -0.00641745 0.122496 
0.00129237 -0.0785834 0.328848 
-1.00118e-17 -6.71164e-18 1 

-0.297746 -0.167257 0.150941 
0.036997 0.0312118 -0.369571 
2.44368e-18 2.15858e-17 1 

-1.02332 -0.0791586 -0.326141 
0.0714576 0.157574 0.43811 
-7.98206e-18 1.45879e-17 1 

-0.0957096 0.0519801 0.674301 
-0.0402079 -0.00119194 0.255264 
-1.48777e-18 1.46917e-17 1 

-0.139505 0.0538504 0.104029 
0.0723423 -0.111599 -0.100967 
1.76001e-17 -8.6453e-18 1 

-0.546216 0.488068 -0.0527187 
-0.122514 0.241091 0.0498048 
-1.09684e-17 4.49238e-18 1 

-0.112454 -0.0219206 0.099656 
-0.0773884 -0.075708 -0.179268 
3.31879e-18 -9.21558e-18 1 

-0.0857798 0.060503 0.781483 
-0.0600417 -0.06218 -0.135275 
2.71114e-18 7.56095e-20 1 

-0.0835845 0.00757083 0.0102662 
0.030505 -0.0785585 0.0532851 
-6.5261e-18 -9.47151e-18 1 

-0.389813 0.314844 -1.09463 
-0.315442 0.418585 -1.79224 
-8.39845e-18 7.78235e-18 1 

-0.366975 -0.0684778 -0.817637 
-0.012258 0.0782063 0.5217 
-9.89817e-20 1.07395e-17 1 

-0.106744 0.0490498 -0.838493 
-0.0206062 -0.00292594 2.51508 
7.21446e-18 1.96513e-18 1 

-0.129401 -0.0368321 0.0348381 
-0.0127118 0.0769532 0.441178 
1.1083e-17 -1.42034e-17 1 

-0.140153 -0.0607194 0.0158976 
0.169858 0.0900999 0.038703 
1.34552e-17 -7.21984e-18 1 

-0.935531 0.182091 -0.0221567 
0.55 0.376547 0.398489 
1.27242e-17 1.84866e-18 1 

-0.131724 -0.156566 0.383729 
0.255811 0.0468572 -0.0794347 
1.16806e-17 -7.29611e-18 1 

-2.64963 -1.512 -1.56664 
0.866512 0.751983 -0.163441 
4.28517e-19 -2.74251e-17 1 

-0.544918 0.254214 1.14213 
-0.3041 0.136744 -0.392154 
3.26156e-18 -2.51661e-17 1 

-0.0839118 -0.0235147 0.0503615 
0.00754473 0.00189931 -0.175996 
1.40699e-17 7.81959e-18 1 

-0.119344 -0.050907 0.199565 
0.03189 0.0185159 -0.189002 
7.29375e-19 2.03009e-17 1 

-0.0866386 -0.0485278 0.134648 
-0.0220809 -0.0630106 -0.397399 
2.8712e-19 7.75223e-18 1 

-0.104951 -0.0258482 -0.0551001 
-0.0378291 -0.124061 -0.00901744 
-1.08047e-18 -9.64111e-18 1 

-0.14827 -0.150098 0.288746 
0.073092 0.0353435 -0.240624 
5.22499e-18 -1.07537e-17 1 

-0.193218 0.063204 0.124533 
0.0675865 0.11597 0.116299 
4.88155e-18 -5.59344e-18 1 

-0.0930066 -0.472547 0.0817357 
0.371545 0.133911 -0.457176 
-4.56905e-18 4.00876e-18 1 

-0.102625 0.198114 -1.19362 
-0.185484 -0.0903386 0.99418 
-2.90434e-18 -5.30042e-18 1 

-0.544296 1.24547 8.68572 
0.567578 0.125183 0.996827 
-3.10937e-18 -1.34906e-17 1 

0.0215746 -0.258135 0.114983 
0.503792 -0.0383684 0.0229782 
5.1914e-18 1.15984e-17 1 

-0.475408 -0.131579 -0.23529 
0.0412619 0.237973 1.37467 
-7.14524e-19 -5.20542e-19 1 

-0.721192 0.327234 -2.9983 
-0.717776 0.32475 0.761619 
4.53356e-18 -2.7957e-18 1 

-0.354594 0.026789 0.0208499 
0.0797701 0.177329 0.346369 
7.9547e-18 1.6864e-18 1 

-0.266791 0.253377 0.310606 
0.00179818 0.118786 0.438921 
6.20997e-18 -6.23913e-18 1 

-2.02024 2.0498 0.860615 
-0.235026 0.581468 1.85761 
-2.81993e-19 -3.47069e-18 1 

-0.114621 -0.0204064 0.364527 
0.0947611 0.0537516 -1.20497 
-3.34149e-18 1.05628e-18 1 

-0.115257 0.00973866 0.067253 
0.0384691 0.00876945 0.247105 
-1.62987e-17 1.63924e-18 1 

-0.089912 0.0371218 -0.318936 
-0.196063 -0.0503705 -0.567608 
-1.01162e-17 7.96026e-18 1 

-0.240173 0.10882 -1.3267 
0.00998841 0.0428394 1.55499 
1.19903e-17 1.75346e-18 1 

-0.141524 -0.361391 -0.866815 
-0.0881336 0.0360337 -0.48493 
9.15395e-18 -5.49237e-18 1 

-0.238872 -0.166633 -0.0735883 
0.214904 0.113606 0.714525 
-3.12851e-18 -4.19103e-18 1 

-0.0629712 0.00220866 -0.388115 
-0.0146227 -0.032692 -0.82445 
-4.3981e-18 -8.00031e-18 1 

-0.0566231 -0.00500021 -0.0398441 
-0.0520241 -0.0122323 -0.488428 
-8.72242e-20 -6.90888e-18 1 

-0.1776 -0.141996 -0.249087 
0.1146 0.0748004 0.234892 
-1.28914e-17 -1.23956e-18 1 

-0.743307 0.341749 0.57617 
-0.551911 0.311806 -0.156224 
9.95026e-18 5.98743e-18 1 

-0.112624 0.0241671 0.121212 
-0.013655 -0.104143 -0.264539 
-2.39487e-18 -5.16118e-18 1 

-0.302335 -0.133552 2.19484 
-0.0198999 0.0975952 -0.758828 
-1.20257e-17 5.2823e-18 1 

-0.0477557 0.098437 -0.0887381 
0.139431 -0.0192493 -0.42629 
-1.50362e-17 -3.1676e-18 1 

-0.169814 -0.0711202 0.818005 
0.050516 0.0423765 -0.737108 
-4.8261e-18 1.27003e-19 1 

-0.158025 -0.057626 -0.071448 
0.11958 -0.0204722 0.159674 
-1.7046e-17 2.40649e-19 1 

-0.111138 -0.0569979 -3.47796 
0.0235865 -0.0294032 -2.05585 
-3.23947e-19 -1.6515e-19 1 

-0.134135 0.0474298 -1.1215 
0.0199814 0.0543385 -7.75283 
-2.64242e-18 1.52572e-18 1 

-0.104203 0.0149216 -0.0152752 
-0.0269774 -0.0666481 -0.390136 
-1.10265e-17 1.04045e-17 1 

-0.199017 0.401477 1.44951 
-0.369434 0.128647 -3.01495 
6.57742e-18 -2.00182e-18 1 

-0.379426 -0.162842 -0.0898179 
-0.0557837 0.163147 3.87387 
2.64834e-18 4.83323e-19 1 

-0.089823 -0.0245914 3.12927 
-0.0879728 -0.0367948 0.657916 
-3.59429e-18 5.74018e-18 1 

0.122562 1.84685 -26.8075 
-0.376786 1.96927 14.9936 
1.01994e-17 -1.99013e-18 1 

-0.766184 0.250921 -1.69848 
-0.151738 0.402912 0.665746 
-9.14299e-18 2.13248e-18 1 

-0.460164 0.650916 -34.0387 
0.188887 0.252819 -13.4132 
-3.40644e-18 -2.4247e-18 1 

-0.706267 -0.422174 -1.59733 
-0.0718039 0.274495 -0.291209 
1.20717e-17 7.62422e-19 1 

-0.758483 0.455818 0.233231 
-0.535998 0.525122 -0.66469 
-4.74611e-18 -3.28577e-19 1 

-0.768894 -0.650643 -21.6662 
0.127566 0.645092 -5.72604 
-2.731e-18 3.67384e-18 1 

-0.136294 -0.141777 -0.478371 
0.110203 0.0101645 -0.595831 
1.31071e-18 -1.11722e-17 1 

-1.45628 -0.405639 0.0789344 
0.0435074 0.454279 -1.33551 
2.51006e-17 1.32716e-18 1 

-0.143532 -0.0197589 0.100933 
-0.00225802 0.031056 0.125185 
-6.44765e-18 -9.30421e-18 1 

-0.10733 -0.0366469 0.170071 
0.00829578 -0.0543065 0.00331326 
-8.46918e-18 -3.80027e-18 1 

-0.0778053 -0.0233169 -0.156691 
-0.00555862 -0.0925931 0.435112 
-1.45225e-18 -5.43557e-18 1 

-0.172943 -0.0276982 0.0455409 
0.0116085 -0.00514911 -0.224345 
8.85826e-18 2.23537e-18 1 

-0.0973221 -0.0118746 0.0492941 
0.0270413 -0.0560092 0.00458549 
4.56186e-18 6.78624e-18 1 

-0.102043 0.0226251 0.257265 
0.028877 -0.00397871 0.131641 
8.14729e-19 -3.41919e-18 1 

-0.120349 -0.0498515 -0.743683 
-0.0490378 0.0202753 -0.402139 
8.04461e-18 3.37756e-18 1 

-0.476135 -0.00363659 -5.17876 
-0.129034 0.189103 1.30669 
4.61395e-18 -5.98808e-18 1 

0.0293822 -0.649213 -0.503862 
0.598975 0.227836 0.212737 
-2.64911e-18 -1.53927e-18 1 

-0.113287 0.0444147 -0.208517 
-0.0425807 -0.051839 1.44563 
1.70533e-18 -7.3356e-18 1 

-1.82298 1.4412 5.55615 
-0.378059 0.794718 1.12698 
-5.30441e-18 -3.43377e-18 1 

-0.10826 -0.000448302 -0.0159173 
-0.0123018 -0.057223 -0.141071 
-9.66719e-18 5.8589e-18 1 

-0.00611811 0.23998 0.522482 
-0.32699 -0.0174927 -1.14445 
5.34742e-18 -1.26128e-17 1 

-0.228425 -0.063927 -0.187177 
0.0175757 -0.0319597 -0.0636734 
4.6401e-18 3.63929e-18 1 

-0.11144 -0.0539726 -0.167688 
-0.0988934 0.0330074 0.296035 
6.91798e-19 -6.51443e-18 1 

-0.297149 0.00913737 -0.440816 
-0.101864 -0.0194578 -0.139031 
-5.47841e-18 -6.89219e-18 1 

-0.417727 -0.0330566 -0.300795 
-0.011177 0.169094 -0.586497 
2.51734e-19 -1.95094e-18 1 

-0.100397 -0.000159426 -0.338821 
0.0220891 -0.0512729 -1.09099 
4.60688e-18 5.64631e-18 1 

-0.284909 0.0367787 0.0502627 
0.164773 0.13968 0.211181 
3.58336e-18 -1.30048e-17 1 

-0.150007 -0.0188876 -0.0663529 
-0.0431827 -0.0638675 0.428703 
6.90299e-18 6.37568e-18 1 

-0.0632194 -0.095413 1.25371 
0.116579 -0.0700867 0.525124 
-1.37514e-18 -4.39106e-18 1 

0.513798 -1.11588 -0.282882 
0.911146 0.968232 0.100838 
-4.27183e-18 4.13834e-18 1 

-0.0785406 0.0398139 0.0676414 
-0.096935 -0.0188019 -0.0445414 
7.81281e-18 -9.61891e-19 1 

-0.588102 -0.410334 0.76332 
1.31168 0.530777 0.158141 
-1.9235e-17 -1.34296e-17 1 

0.360615 -0.870688 0.556846 
0.920457 0.599175 -1.26819 
-8.90262e-18 3.18962e-18 1 

-0.161964 0.0135244 0.249974 
0.0564105 -0.00623224 -0.0976473 
-1.19095e-17 -8.80546e-18 1 

-0.443843 -0.290986 -0.605003 
0.05442 0.126354 0.198566 
1.38845e-18 -2.65392e-17 1 

-1.45076 -0.527426 -0.31412 
0.534707 0.691168 0.434925 
-7.18895e-18 -8.81663e-18 1 

-0.325493 0.755312 0.0324576 
-0.917984 0.561508 -0.189307 
-1.17594e-17 -5.24629e-18 1 

-0.0824162 0.0790338 0.0484658 
-0.10526 0.0151282 -0.196865 
8.41129e-18 -1.42296e-17 1 

-0.0885973 0.199538 0.00768248 
-0.0526597 -0.0525856 -1.72219 
-7.12318e-19 -4.60267e-18 1 

-0.0976294 -0.225512 -0.339201 
0.0939466 -0.0842914 0.266014 
1.91947e-17 1.35607e-17 1 

-0.244658 -0.174933 0.0924934 
-0.032515 -0.0225982 0.148556 
1.20745e-17 -1.16433e-17 1 

-0.198675 -0.169503 -4.06042 
0.442273 0.121883 -0.0549317 
5.21392e-18 2.65828e-18 1 

-0.602229 0.457484 -11.0952 
0.295794 0.173192 0.162005 
-6.64063e-18 -2.34689e-18 1 

-0.0852228 0.0386217 0.159405 
-0.0129807 -0.0302653 -0.0171991 
7.13024e-18 -2.24679e-17 1 

-0.156178 -0.0545408 -0.0685538 
0.0518362 -0.0282217 0.192442 
6.67545e-18 -7.95079e-18 1 

-1.06382 -1.39092 3.65685 
-0.176753 0.417915 1.43152 
-1.07558e-18 4.50718e-18 1 

-0.222867 -0.257939 0.419375 
0.153377 0.134241 -0.600222 
-6.99541e-18 -8.20616e-18 1 

-0.155212 -0.0538639 -0.0802754 
0.0394714 0.0873779 0.467963 
6.09397e-19 5.76025e-18 1 

-0.125736 -0.0393542 0.876628 
-0.0336954 0.0249936 0.128843 
2.30738e-17 -6.92648e-19 1 

-0.127099 -0.0600797 -0.0425553 
0.13891 0.0448283 0.310375 
-5.72357e-18 8.98283e-18 1 

-1.42782 -0.36203 5.54091 
0.869304 0.732768 -2.09192 
-2.2098e-17 -3.828e-18 1 

-0.314053 -0.275139 0.0512584 
0.181988 0.337487 -0.0190574 
7.21221e-18 -1.33148e-17 1 

-0.100376 0.00465307 0.505872 
-0.0511515 0.00454443 -0.24657 
-2.79401e-18 6.6062e-18 1 

-0.216792 -0.101585 0.735324 
0.0571934 -0.00195286 -0.85718 
5.18965e-18 1.50157e-18 1 

-0.10622 0.0357188 -0.493698 
0.0484396 -0.0601573 -0.434901 
-1.40753e-17 -1.04353e-17 1 

-0.0744645 -0.00528204 -0.124603 
-0.0146399 -0.00975563 -1.20276 
-8.5736e-18 -8.56815e-18 1 

-0.297594 -0.0348553 -4.54921 
-0.0225587 0.123896 -0.860221 
4.5459e-18 -7.48162e-18 1 

-0.198346 0.0884277 0.275389 
-0.188203 0.137764 -0.302951 
-7.22228e-18 8.33355e-18 1 

-0.115274 -0.0969033 0.0828161 
-0.010852 -0.101012 0.220961 
5.24806e-18 4.14085e-17 1 

-0.0970881 0.269317 0.710903 
-0.260531 0.0912696 2.62351 
-6.99397e-18 3.44948e-18 1 

0.103584 -0.738278 1.74742 
0.657665 0.256411 -1.05523 
-4.02064e-18 6.74187e-18 1 

-0.0909877 -0.442502 -0.969844 
-0.130078 0.107894 -0.208435 
-1.31796e-17 1.94226e-17 1 

-0.251394 1.47161 25.0038 
0.00875246 -0.0228954 -2.09152 
2.52017e-18 -7.34636e-17 1 

-0.247678 -0.231891 -1.76983 
-0.344124 0.167948 1.63763 
-1.91739e-17 -2.72498e-18 1 

-0.0563508 0.0543101 0.36859 