# vtk DataFile Version 3.0
Output file generated by Yade's KinematicLocalisationAnalyser
ASCII
DATASET UNSTRUCTURED_GRID

POINTS 13483 float
506.159 42.497 -0.463507
601.509 85.0803 -0.544817
113.521 5.8586 -0.486172
637.263 9.36299 0.641685
435.688 14.3887 0.382114
299.142 43.9208 -0.51018
148.391 7.02908 0.481002
481.807 11.6374 -0.164459
434.925 39.3874 0.140615
586.698 18.5455 -0.413689
199.243 8.96612 -0.137535
243.94 6.26405 -0.247704
525.972 55.5321 0.151011
521.883 34.5594 -0.0900642
129.362 19.2897 -0.460663
208.283 38.5917 0.398747
206.289 13.132 -0.288766
274.004 10.621 0.453807
324.531 39.1198 0.418773
449.754 10.8762 0.449161
383.803 58.1366 -0.0989952
490.68 50.6363 0.296919
627.34 66.248 -0.481631
553.472 60.7264 0.450935
410.17 22.0209 0.34078
228.379 46.4707 -0.140738
429.57 50.1642 -0.462951
493.25 23.6394 -0.222441
41.7246 17.7038 0.4836
572.978 44.2699 -0.364178
425.975 4.35009 0.475951
14.0744 25.5177 0.315983
615.748 83.684 0.247797
435.178 4.08759 0.551597
74.8569 47.0319 0.0998454
449.113 45.3885 0.330724
456.78 27.6965 -0.453617
322.108 26.6252 0.187081
459.757 38.8107 -0.388871
332.65 47.8625 -0.414284
229.242 14.8409 -0.290302
393.2 57.2222 0.0416873
550.575 5.38431 0.235674
182.762 6.28169 0.392874
51.1061 7.11344 0.0810439
64.0896 9.1735 0.308936
563.737 8.42209 -0.514376
22.3035 12.0945 -0.304526
485.732 64.6621 0.415284
551.285 36.8204 -0.406669
161.844 34.6999 0.30467
596.603 73.4949 0.143532
31.952 29.7528 -0.112205
456.797 2.61057 0.573947
134.377 7.20912 -0.501517
501.318 43.3947 0.39303
436.942 45.4806 -0.126913
166.507 0.973289 0.283734
31.1874 2.36791 0.328997
326.659 21.9358 0.28259
490.116 82.405 -0.131836
414.157 46.0021 -0.176298
360.527 1.04873 0.183821
572.549 9.40575 -0.58336
25.599 44.7832 -0.236897
244.399 32.7117 0.286562
587.519 11.9263 -0.256859
542.892 80.1521 0.34551
377.629 9.22486 -0.665944
484.36 5.50791 -0.433793
594.244 53.4654 0.445662
124.013 8.08375 0.250618
434.809 44.7026 0.123876
424.061 24.4518 -0.116577
280.334 17.0853 -0.400681
19.4505 14.0663 -0.237882
616.059 75.4436 -0.320571
316.017 43.5871 -0.347501
551.266 35.1391 0.354684
561.902 14.8999 0.242812
626.995 38.8909 -0.221271
413.418 50.3666 -0.203338
88.9762 43.186 0.118751
548.379 53.0895 0.245251
520.3 70.5657 -0.0913447
631.823 71.1845 0.116091
627.666 0.768274 -0.730899
278.499 29.8566 0.470902
526.182 10.0822 -0.278428
23.2702 5.43272 0.627438
127.646 43.0773 0.139891
447.863 23.0042 0.216713
609.837 58.9972 -0.46811
186.322 30.5496 -0.219885
42.8238 36.4919 -0.28896
435.104 2.60472 -0.204886
224.611 8.72129 -0.443441
576.346 78.6722 0.253372
603.674 44.368 0.25752
336.076 34.8466 -0.251526
154.719 28.2323 -0.468857
470.105 71.7735 -0.403249
350.15 23.4759 -0.616383
377.027 34.7725 0.112523
345.93 13.8445 0.566309
467.219 13.9973 0.159037
637.535 21.1176 0.364654
77.4388 42.2629 -0.388096
318.459 5.79789 -0.180858
477.836 14.537 0.402895
338.132 61.7939 0.0378399
22.6157 26.3958 -0.476316
29.051 5.74638 0.288635
477.317 46.7812 0.454177
440.795 41.0756 -0.15201
24.423 38.0595 0.415174
89.133 32.0429 0.218166
308.277 17.4861 0.314144
509.528 23.0986 0.149794
409.511 61.3541 -0.317774
599.266 13.1785 0.589035
594.956 7.47933 0.324883
363.432 45.5109 0.100157
523.984 50.5038 0.0984093
227.384 18.1993 -0.506695
314.47 4.21347 0.452933
98.1353 34.2168 0.310212
111.064 25.8051 -0.273115
467.331 77.509 0.0759074
292.927 19.1694 0.55695
571.404 51.9363 -0.115239
547.466 80.9667 0.106564
427.553 35.0461 -0.428212
626.445 16.9281 0.424309
386.215 31.2749 -0.228013
263.913 26.8215 -0.311537
544.154 64.7996 -0.289868
268.453 30.5081 0.379113
492.071 14.8685 -0.217353
317.882 40.6792 -0.185907
442.206 20.1966 0.644474
346.49 46.5354 -0.0865706
390.902 17.3803 -0.112077
304.115 48.6592 0.463897
182.605 30.8294 -0.122161
606.332 83.3555 0.158675
635.196 26.0365 -0.27642
6.01899 12.8167 -0.448397
389.729 27.0211 -0.394075
36.0321 24.1797 -0.0895851
352.887 43.9398 -0.477836
365.869 30.5665 -0.267153
70.6077 12.2276 -0.518044
49.5165 36.7736 -0.496615
216.689 14.0047 0.463448
490.183 76.4489 0.40265
490.178 25.8373 -0.50015
71.4944 21.2271 0.514163
556.773 62.8912 0.428177
615.744 4.87739 0.700083
536.815 73.4033 0.476128
570.371 1.78477 -0.54592
470.37 41.1005 -0.403194
490.068 49.1642 -0.465125
448.998 29.5178 -0.382147
637.032 6.05009 0.245624
215.029 27.871 -0.146163
124.533 38.7016 -0.0867955
237.122 7.05603 -0.428267
89.929 4.45993 0.29164
60.3939 10.0277 0.237088
266 38.6396 -0.326708
15.0941 26.9256 -0.364559
472.719 28.1879 0.464343
490.066 66.7177 0.19559
419.21 31.1436 -0.368747
628.902 85.4168 -0.349016
371.22 9.05817 -0.131985
392.658 50.2913 -0.413647
464.253 3.41583 -0.316825
20.706 25.0986 -0.375795
493.572 6.43301 0.513485
472.435 8.65331 -0.264159
197.627 11.5892 0.51261
387.473 18.1088 0.20017
298.941 6.34611 0.388568
359.534 25.0838 -0.392602
583.445 66.5728 0.109208
185.165 26.7716 -0.412088
630.328 11.3637 -0.438801
585.762 63.6312 -0.320337
354.791 15.7713 0.190796
586.67 2.3082 0.491746
509.528 40.9543 -0.410393
598.673 26.0226 0.487409
399.985 55.2457 -0.295454
435.533 21.0258 0.358221
403.204 56.3113 0.222036
405.996 12.5817 0.151771
540.559 73.7986 0.276767
539.886 69.6463 0.311885
184.303 40.3776 -0.336364
624.807 38.4087 -0.129698
493.483 47.5899 0.330633
10.7507 18.4982 -0.166781
375.025 28.0911 0.347993
179.972 24.2323 0.405337
90.4275 44.4039 -0.249697
608.223 50.3556 0.514923
534.535 78.464 0.227466
305.037 29.9789 0.362875
460.896 10.5354 0.300318
79.7955 48.1742 0.169316
238.356 27.838 -0.473678
474.492 33.2564 0.413074
433.688 29.7245 0.480597
253.099 0.911449 -0.367322
476.57 64.2376 -0.374668
457.861 74.583 -0.444611
424.772 59.2365 0.374265
440.879 5.52719 -0.566755
575.711 21.994 -0.348905
172.639 12.9282 -0.203143
436.72 58.1443 0.476435
479.569 51.5431 -0.13488
69.302 0.969274 -0.32909
242.244 4.81115 0.179146
633.984 29.4823 0.146837
627.163 40.8218 -0.394491
638.546 33.9749 -0.499845
291.726 8.68623 -0.250202
602.114 31.7553 -0.574657
382.265 63.7596 0.309684
407.721 2.33288 0.604476
525.46 66.0627 -0.407921
23.8998 31.8824 0.317515
318.054 45.1544 -0.600127
243.031 2.92194 0.394422
619.602 81.9955 -0.189912
564.269 62.0484 -0.245218
276.379 11.8814 0.27659
537.496 58.2269 0.0922112
480.984 2.57876 0.308976
469.77 8.08949 0.544133
92.7756 18.8896 -0.506509
291.524 1.07889 -0.239256
327.341 2.37239 -0.415282
13.3892 7.63548 -0.484059
4.03422 36.1038 -0.235159
154.847 19.6282 -0.336785
66.802 43.7475 -0.226819
64.5796 30.9495 -0.321067
388.079 14.6816 -0.452704
348.182 51.8879 0.532052
593.153 74.9418 0.115528
18.9346 4.0851 0.319671
67.0706 7.22501 -0.142174
499.956 70.6914 -0.14809
283.056 0.960651 0.394163
339.617 26.3119 -0.113867
227.023 4.71512 -0.342924
541.379 43.9652 -0.160795
409.276 11.7527 0.425124
606.619 30.4771 -0.416162
516.152 57.6047 -0.307101
553.951 27.3713 -0.0902363
383.703 35.5864 0.532525
100.029 48.4999 -0.302739
472.551 75.0491 -0.0689994
596.007 22.7326 0.183231
228.267 32.0563 -0.227672
30.2493 18.5284 0.189465
321.627 16.0518 0.48173
104.302 42.4156 -0.50708
258.941 45.0446 -0.206367
391.019 2.16019 -0.264723
612.045 69.0922 0.410038
565.291 0.737248 -0.535415
319.12 4.26053 0.480107
290.782 30.0697 -0.161049
406.661 55.4458 0.0450513
77.7519 8.21054 0.510585
188.943 47.5992 -0.393769
603.722 54.7309 -0.374115
433.35 62.7792 0.0668369
192.104 43.975 -0.293077
154.231 45.8693 0.39609
635.906 64.5851 -0.451127
636.995 22.6028 -0.541491
520.298 3.29081 -0.612536
183.698 25.5937 -0.0965098
470.789 46.2153 -0.117516
470.791 39.4037 0.276908
375.601 5.85595 -0.139201
432.185 0.983953 0.397403
591.467 77.885 -0.554958
83.0445 33.5253 0.221106
544.693 32.044 0.482251
263.629 16.5753 -0.308649
8.98979 2.36206 0.334906
122.561 40.0433 -0.183781
64.6433 25.5054 0.476703
559.721 48.0673 -0.289823
619.988 92.4548 0.17422
178.866 29.1995 -0.175251
632.234 30.4605 -0.269884
44.133 38.8846 0.253479
88.3722 30.1933 0.155205
530.799 33.2096 0.380939
381.048 16.9388 -0.565631
455.027 28.1922 0.133799
228.861 30.0198 0.188638
530.739 9.75971 -0.60357
638.401 24.8646 0.569173
27.1133 33.2382 0.276153
260.566 7.47529 0.191515
214.35 15.7984 -0.229996
0.979799 43.0336 -0.146961
217.81 14.8539 -0.38255
204.015 11.0943 0.123464
206.424 28.5955 -0.281839
128.658 30.7916 0.126547
470.345 21.2469 0.372251
159.557 14.7381 -0.333188
613.27 81.3873 -0.224333
168.337 4.00304 -0.503376
45.8908 41.4743 0.350106
568.953 88.2094 -0.426187
273.2 34.1039 0.401066
552.849 37.4325 -0.591467
616.303 66.1559 -0.465255
289.901 9.41569 0.177627
589.273 50.075 0.342684
316.614 2.65407 -0.395762
381.808 26.0861 -0.407443
553.545 20.1825 0.439918
101.765 11.9453 0.506778
432.317 4.18934 -0.490262
608.703 24.9102 0.276495
84.518 7.72285 -0.286563
271.608 15.6699 0.207456
388.977 12.2685 -0.227031
635.337 2.35446 0.626165
365.386 1.92192 -0.58937
169.506 39.562 0.325459
598.205 19.0671 -0.330513
125.887 40.3398 -0.18726
254.798 33.4903 -0.38181
369.418 23.8684 0.260224
492.972 16.5398 -0.397657
357.528 11.9666 -0.593824
415.494 38.2845 -0.488575
602.375 85.8082 0.393296
44.9651 11.8297 0.108375
289.673 43.9114 -0.324497
356.333 35.8184 -0.405603
376.078 21.6162 0.281397
451.494 62.9992 -0.366924
585.342 75.4559 0.183235
545.065 70.7319 0.364074
216.581 36.7277 0.361947
11.975 36.7334 -0.151695
537.901 69.6781 -0.137262
447.923 56.4432 0.523813
221.431 40.9944 0.097387
551.691 46.8736 -0.121388
145.68 9.54165 -0.197342
345.172 32.8965 0.278876
405.215 57.0632 -0.117691
379.85 19.8279 -0.212194
598.395 87.039 -0.291652
391.43 3.8285 0.605412
48.0931 27.0795 0.335908
419.02 53.1441 -0.364865
397.403 49.7007 0.416993
617.388 76.8161 0.217468
586.121 49.7665 -0.230918
464.739 24.4184 0.140646
607.424 76.4951 0.420587
282.738 2.32897 -0.510871
356.558 40.5001 -0.47005
27.5042 40.1468 0.31567
590.288 51.7472 -0.152471
517.272 26.116 0.512771
415.529 0.727558 0.624542
121.303 5.063 -0.402386
397.402 56.9806 -0.111648
11.3792 0.901386 -0.316804
635.173 9.7668 0.1825
[...]
POINT_DATA 13483
TENSORS Strain_matrix float
-2.27162 -0.657354 6.91143 
1.25667 0.85246 1.49274 
1.29945e-17 -1.25464e-17 1 

-0.833048 0.962811 -142.925 
0.0999311 0.267443 46.546 
-7.47973e-19 4.56816e-18 1 

-0.124819 -0.126743 -0.131231 
0.119601 -0.0372972 0.255162 
-4.91205e-18 1.75147e-17 1 

-5.04237 -1.6353 -0.275255 
0.544285 1.35303 -3.79809 
1.23757e-17 -1.83109e-17 1 

-0.904861 -0.890241 0.439111 
0.58048 0.563128 0.396393 
7.65862e-18 -6.68323e-18 1 

-0.315624 0.147187 -2.36442 
-0.264353 0.143249 1.87784 
3.57367e-18 9.7945e-19 1 

-0.13869 -0.026001 -1.21419 
-0.0302809 -0.0809459 -1.08406 
-1.81337e-18 3.20362e-19 1 

-0.351539 0.0329734 0.290046 
0.0542098 0.0158364 -0.822772 
-1.03619e-17 2.86641e-17 1 

-0.758155 -0.224975 0.841749 
-0.309134 0.45231 1.98983 
-1.84916e-17 5.23929e-18 1 

-1.52061 -0.753544 2.58855 
0.0852603 0.574651 -1.66154 
-7.91559e-18 1.82361e-18 1 

-0.160148 -0.00301304 -0.0401105 
0.0241624 -0.0677778 -0.0842957 
2.86516e-18 -1.70808e-17 1 

-0.167851 -0.0358716 0.245501 
-0.132227 -0.105852 0.0769114 
-6.11388e-18 -9.97365e-18 1 

-1.62872 -2.38086 -1.2211 
-0.283545 0.36465 0.347809 
1.81607e-18 -2.48776e-19 1 

-0.88687 -1.24293 -1.67939 
1.0538 1.09394 -0.890226 
-1.35084e-18 -6.42671e-18 1 

-0.246746 -0.221901 -1.5317 
0.227951 0.133409 -0.391296 
-2.35069e-17 -1.20389e-17 1 

-0.131092 0.100158 0.947732 
-0.135603 0.0954344 -0.0338583 
-4.09758e-18 -9.29379e-18 1 

-0.100548 -0.0596758 0.224468 
0.0144194 -0.104743 -0.00126352 
-1.245e-18 2.95111e-18 1 

-0.27478 0.0294958 0.00911472 
0.124527 -0.0985097 -0.215114 
-1.54294e-17 8.85292e-18 1 

-0.697809 1.09616 -1.85421 
0.379997 0.216099 0.908653 
-3.06536e-18 -1.72533e-17 1 

-0.429291 0.509535 0.820589 
-0.492891 0.214213 -0.109592 
6.39601e-18 -8.76574e-18 1 

-0.283438 -0.026031 -3.32319 
0.532144 0.110088 0.300786 
-2.90843e-18 5.07841e-18 1 

-1.54895 -1.71855 1.32268 
0.108529 1.31113 3.02917 
-4.67204e-18 3.79342e-18 1 

-0.72392 0.263928 -2.32663 
-0.335502 0.303096 1.97404 
-5.53911e-18 -3.42304e-18 1 

-3.64597 1.39037 -24.4618 
-2.17851 1.93271 -6.94579 
3.28847e-18 -9.32532e-18 1 

-0.078902 -0.178926 0.423323 
0.173434 0.000526643 0.129405 
5.42898e-18 1.10559e-17 1 

-0.245239 -0.0614873 0.0337932 
0.0262657 0.0587902 0.082216 
5.28992e-19 -2.01017e-17 1 

-1.29963 -0.640875 -1.21832 
-0.188246 0.529691 4.89964 
9.90133e-19 6.74361e-18 1 

-0.126106 -0.671992 0.102688 
0.290442 -0.0422277 -0.0708709 
-2.5163e-18 6.69964e-18 1 

-0.137311 -0.0314857 2.49435 
0.108905 0.0197331 -0.0319453 
-1.23773e-17 -4.5869e-18 1 

-0.565799 -2.61999 -3.79073 
0.443507 0.997276 0.937691 
4.97912e-18 2.29968e-18 1 

-0.186161 -0.26529 -0.288108 
-0.0373235 -0.426121 0.180367 
1.17332e-17 5.4755e-18 1 

-0.307098 0.171388 -0.494922 
-0.198539 0.0754529 0.0836085 
-4.52176e-18 4.33742e-19 1 

-0.017972 -0.416227 -0.800119 
0.366681 0.0983025 0.632722 
1.69764e-17 -8.74785e-18 1 

-1.18673 0.00693443 -12.9402 
0.199862 0.651297 -5.33669 
-2.42415e-18 -1.13329e-17 1 

-0.0861634 -0.144529 -0.0389051 
0.130585 -0.0273006 0.000623535 
4.02259e-19 -7.35559e-18 1 

-0.421097 0.645024 -0.604073 
-0.202631 0.0890887 -0.459346 
-2.48836e-18 9.95345e-18 1 

-1.26697 0.136077 -1.95578 
-0.226848 0.537308 -2.02343 
1.18198e-18 5.65432e-18 1 

-0.285289 0.17151 0.607749 
-0.0657502 0.16146 0.233367 
9.4547e-18 4.58993e-18 1 

-0.915339 0.322651 2.58074 
-0.0873441 0.146264 -0.965475 
-4.3406e-18 5.85981e-18 1 

-0.44392 -0.301155 -1.7376 
0.522809 0.293655 0.495172 
6.27888e-19 6.09948e-18 1 

-0.28378 -0.100225 0.115752 
0.0244739 0.129759 -0.113958 
-5.26613e-18 -6.24981e-18 1 

0.0842911 0.506744 6.63928 
-1.09102 1.03596 -0.776856 
-1.83663e-17 1.95855e-18 1 

-0.265111 0.204515 -0.00820809 
-0.627823 -0.1225 0.362677 
5.98117e-18 -1.67654e-18 1 

-0.184735 0.0809802 -0.0071464 
-0.118255 -0.0961338 1.1094 
3.61684e-18 -3.13573e-17 1 

-0.337934 0.0649893 -0.307694 
-0.00330585 0.161945 -0.206933 
-1.19185e-18 -1.71138e-18 1 

-0.108568 -0.0137562 0.111696 
0.0553319 -0.0637244 0.287482 
9.59668e-18 8.32728e-18 1 

-0.785437 -0.396893 0.438311 
0.129436 0.279451 -0.399057 
5.59773e-19 -9.32954e-18 1 

-0.160013 0.00414529 0.0376568 
-0.084721 0.00655952 -0.0623894 
-1.31975e-17 -1.38069e-17 1 

1.60126 -0.831203 0.202979 
0.962144 1.64555 0.730318 
7.07184e-18 4.5967e-18 1 

-1.96364 -1.18558 -0.389932 
-0.662078 0.281183 -0.672655 
-1.83012e-18 1.66744e-17 1 

-0.0875839 -0.0690262 -0.0719407 
-0.288951 0.00759329 0.511263 
8.14479e-18 2.61797e-18 1 

-0.631343 0.14162 -0.835618 
0.262854 0.213859 -0.717159 
5.4066e-18 1.18138e-18 1 

-0.0984298 -0.0144767 -0.262735 
0.000732341 -0.00944809 0.202298 
5.03622e-19 1.22621e-18 1 

-0.403358 0.365575 0.0905821 
-0.0665303 -0.120215 0.263813 
-4.43456e-18 -3.09282e-17 1 

-0.169837 -0.0194792 0.10274 
0.0970855 -0.143533 0.631022 
1.31937e-17 -9.02326e-18 1 

-1.03577 -0.464626 -2.6289 
1.20797 0.690998 0.102514 
1.29781e-17 -2.94044e-18 1 

-1.5829 -0.927392 0.410267 
-0.393264 0.45477 0.513503 
-1.04645e-17 -4.88801e-18 1 

-0.126987 0.0872652 -0.125561 
0.0159903 -0.0411112 0.0838828 
9.32657e-18 -1.88541e-17 1 

-0.0776504 -0.0573964 0.259724 
-0.0105079 -0.139113 0.246193 
2.25723e-18 -4.10405e-19 1 

-0.103249 -0.0848591 -0.115419 
-0.0286078 -0.0511036 0.12672 
3.46091e-18 -8.74103e-18 1 

-1.00289 0.549184 0.864276 
-0.0457412 1.19952 -1.68127 
3.1771e-20 -9.58246e-18 1 

-0.0772444 -0.35832 4.76483 
1.2753 0.53457 0.0204745 
1.06148e-17 -6.69196e-18 1 

-0.554122 -3.90036 -0.416163 
-0.0786037 -0.0669311 -0.146802 
5.76053e-19 3.66332e-17 1 

-0.667938 -0.236888 -1.50193 
0.111659 0.164337 3.25961 
-6.11983e-18 -8.92296e-18 1 

-0.507016 -0.00703469 -0.605623 
-0.0277463 0.0824349 -0.224621 
3.40623e-18 3.53239e-18 1 

-0.079573 0.0345625 0.445556 
-0.0698268 0.0359792 0.0421557 
1.2038e-17 -3.94596e-18 1 

-1.29373 -0.756155 2.2124 
0.353364 0.60857 -0.797864 
-4.07095e-18 -4.50098e-18 1 

-0.0300297 -0.320954 0.0897092 
0.394486 0.0610937 -0.0558924 
-2.60488e-19 -4.1678e-18 1 

-0.279603 0.0470535 -20.3028 
-0.104762 -0.119387 -1.3269 
-1.03425e-17 -1.14916e-17 1 

-0.358663 -0.4813 0.94545 
-0.154825 -0.21545 -0.877267 
-2.67453e-18 2.84525e-20 1 

-1.46956 0.0137362 3.98334 
0.199911 0.79608 1.98973 
1.50155e-17 -2.61595e-18 1 

-0.109403 0.0682758 -0.0457949 
-0.0744057 -0.0109086 -0.0101127 
1.02434e-18 5.47797e-18 1 

-1.26391 -1.57186 -0.924812 
0.224848 0.613411 0.183511 
3.33768e-19 2.33637e-18 1 

-0.543755 0.166308 0.16287 
-0.257357 0.420204 1.65494 
1.46011e-17 -1.28906e-17 1 

-0.159912 0.0138903 0.346059 
0.0114022 0.0518136 -1.78357 
1.24375e-18 -3.73126e-19 1 

-0.0896694 -0.0583963 0.140183 
0.0640689 -0.0621988 0.0350792 
-6.02305e-18 3.15618e-19 1 

-0.344316 3.44831 -9.07174 
0.0124332 0.108052 2.84083 
7.94704e-18 -5.42268e-18 1 

-0.124621 -0.0252172 -0.237926 
0.0383399 -0.0759957 0.596565 
-3.13936e-18 -4.5043e-18 1 

-1.90454 -0.797452 0.484345 
-0.695398 0.267247 -0.0497419 
-4.94558e-18 7.76502e-18 1 

-0.363618 -0.867555 0.95327 
0.219867 0.149607 -0.769761 
4.04413e-18 -3.71922e-18 1 

-0.108422 -0.231326 -0.612445 
0.229806 -0.0794843 0.298911 
1.58652e-17 2.99784e-19 1 

0.392943 -1.03413 4.69937 
0.96575 0.997385 1.05906 
-1.74724e-18 2.1455e-18 1 

-0.248091 -0.106334 -0.463276 
0.109778 0.153932 0.423679 
-6.57594e-18 -4.09603e-18 1 

-3.24034 0.426465 -4.75903 
-1.18556 1.2971 1.55176 
1.02854e-17 1.19168e-17 1 

-0.208663 -0.211814 0.146122 
0.208402 0.0605915 0.113582 
-8.33574e-18 -5.29525e-19 1 

-1.57724 -1.25002 2.46622 
-0.42575 0.409508 1.24415 
6.01293e-18 1.51802e-17 1 

-3.11615 2.72233 380.068 
-0.0237225 0.38305 -20.6236 
-1.50437e-18 1.29541e-17 1 

-0.316378 0.52705 0.703765 
-0.0226134 0.0878494 0.0165928 
3.33738e-18 -5.26954e-18 1 

-0.876524 0.169758 -0.973939 
0.654626 0.217938 0.359909 
5.94645e-18 4.30192e-18 1 

-0.187054 -0.0174684 6.39755 
-0.0128707 -0.0419583 8.38209 
5.65299e-18 9.0509e-18 1 

-0.0778023 -0.432941 -0.138824 
0.252244 -0.0446906 -0.077634 
1.55363e-17 -1.01972e-17 1 

-0.797786 0.510528 1.6887 
-0.0440521 0.152294 -0.88283 
2.66628e-18 6.35997e-18 1 

-0.979066 -0.643124 -4.35929 
0.117102 0.52103 0.873631 
9.44358e-18 -5.52292e-18 1 

-0.123261 -0.0379896 -0.231616 
0.240421 0.0542063 0.113655 
7.26249e-18 -2.83821e-18 1 

-0.191472 0.0918178 0.474151 
0.132888 0.154305 -1.04202 
8.0648e-18 2.32032e-18 1 

-0.960456 -0.716233 0.609974 
0.119165 0.347718 0.73475 
3.17768e-18 -8.91475e-19 1 

-0.192565 0.0216559 -0.315939 
0.0624919 -0.02832 -1.10939 
-8.81583e-18 8.32296e-18 1 

-0.305184 0.110451 0.119185 
0.144783 0.0764645 -0.0652489 
3.23152e-18 8.97645e-19 1 

-1.3581 -2.55628 12.3294 
0.0969773 0.652151 -1.71249 
-1.11341e-17 -5.61385e-19 1 

-0.616197 0.224567 -3.76584 
0.833426 0.0209576 0.945814 
2.12679e-18 6.1416e-18 1 

-0.142418 -0.0215022 -0.0746425 
0.0520268 0.0600438 -3.00469 
1.70696e-17 2.47209e-18 1 

-0.28088 0.610629 -4.06737 
-0.768583 0.585067 2.90658 
7.79282e-18 -3.67544e-19 1 

-0.442874 0.371829 -42.1774 
0.0299137 0.181648 25.5866 
-7.228e-18 3.36632e-18 1 

-0.688054 -0.179402 0.408126 
0.215542 0.31657 -0.499297 
-1.80782e-18 7.41204e-18 1 

-0.7053 -0.115542 4.37713 
-0.218184 0.361256 -6.50693 
-2.16099e-18 -3.91036e-18 1 

-0.255241 -0.636573 0.868657 
0.506488 0.240548 -0.174169 
-5.85026e-18 -8.58295e-18 1 

-1.1157 0.852891 -2.73346 
-0.167429 0.411543 1.03454 
1.31503e-17 1.79149e-17 1 

-0.163456 -0.0544713 2.22836 
0.0926383 0.0648736 -0.458869 
8.38863e-18 5.43889e-18 1 

-0.194631 -0.0507368 0.1624 
0.200504 -0.0792818 0.0184947 
3.6413e-18 3.74417e-18 1 

-0.508291 0.356261 0.379742 
-0.321834 0.287005 -0.497962 
7.97544e-18 -9.0304e-18 1 

-0.0120254 -0.253311 -0.145484 
0.0953021 -0.105166 0.0912221 
-1.89587e-17 -3.24293e-18 1 

-0.111462 0.0137509 1.47366 
0.00823934 -0.0211608 1.53172 
3.99006e-18 8.78892e-18 1 

-0.104026 0.0534731 0.0371056 
-0.0186523 -0.0728671 0.173458 
-7.15248e-18 -4.73704e-18 1 

-1.13351 0.452749 12.8709 
-0.844401 0.610274 -1.17713 
1.92214e-17 -1.16244e-17 1 

-0.690156 -0.541093 0.624485 
-0.237409 0.272127 -0.0382721 
3.84444e-18 8.00712e-18 1 

-0.0933922 0.13311 -1.71037 
-0.0396394 -0.0222559 2.38434 
-2.51087e-18 -8.85412e-18 1 

-0.759203 -0.166042 0.673492 
-0.437604 0.262892 0.43288 
-9.70233e-18 -7.55761e-18 1 

-0.222772 -0.39621 0.236359 
0.111177 0.156813 -0.477588 
-5.73611e-18 -1.72621e-18 1 

-0.743382 0.59506 0.619983 
0.471894 0.173593 -1.00603 
-7.49592e-19 3.23262e-18 1 

0.462142 -1.21505 -0.477209 
0.778331 0.674271 0.13072 
-3.20882e-18 -1.06459e-18 1 

-2.04168 -2.14447 2.13538 
0.563908 1.13677 -2.34881 
-4.72255e-18 1.06108e-17 1 

-0.659126 0.0292051 0.562792 
-0.392845 0.210497 -0.826184 
-9.09186e-20 -4.72777e-18 1 

0.0798573 0.207545 0.314784 
-0.298504 -0.00865425 -0.037034 
-3.13875e-18 8.07042e-18 1 

-0.566659 -0.658889 -2.62114 
-0.276471 0.190866 1.33928 
9.34328e-19 -1.76248e-17 1 

-0.175061 -0.090441 -0.250814 
0.0378728 0.0158471 0.410608 
-3.75441e-18 1.24978e-18 1 

-0.202961 -0.155373 -1.13591 
0.117556 -0.0970405 0.904484 
1.44966e-18 2.38848e-17 1 

-0.15963 0.0196448 0.324668 
-0.0655853 0.0391788 -0.221537 
-1.26713e-17 -1.88207e-18 1 

-0.109837 0.119695 -0.0360791 
-0.159831 0.0789024 -0.0075722 
-1.77385e-18 -1.75081e-18 1 

0.187057 0.741339 2.61124 
-0.544049 -0.134291 -1.51681 
-6.76595e-18 6.8357e-18 1 

-0.223996 0.0627145 -0.0980806 
-0.00580962 0.094298 2.34279 
-6.98519e-19 -2.03935e-18 1 

-0.940127 1.44441 3.8955 
0.638464 0.35278 1.69135 
-9.26163e-20 2.68587e-18 1 

-0.0926476 -0.225797 0.0166255 
0.263015 0.0676048 -0.251875 
-1.66896e-17 1.75053e-17 1 

-1.21519 -0.0176717 -1.93599 
-0.155677 0.490402 1.9781 
-1.64097e-19 9.43559e-19 1 

-0.21575 -1.1094 -0.79805 
0.278689 -0.0275346 0.251829 
5.63079e-19 -6.64433e-18 1 

-0.621846 0.826286 -1.43124 
0.152586 0.161938 2.06344 
-1.43177e-18 3.30409e-18 1 

-0.246156 0.528614 -0.570875 
-0.147048 0.288505 0.987748 
4.91e-18 4.52603e-18 1 

0.326445 0.661352 2.28524 
-0.526906 0.680299 1.40622 
-8.89445e-18 -3.14315e-18 1 

-0.218021 0.265092 -0.843459 
0.07515 0.0311336 1.17644 
5.19389e-18 5.59927e-18 1 

-0.406386 -0.524267 -0.392106 
0.14314 0.141055 0.846911 
9.02649e-19 -3.49777e-18 1 

-0.0438695 -0.0219241 -0.0678778 
-0.109431 -0.122145 -0.371799 
3.2268e-18 -3.2268e-18 1 

-0.697747 0.0976121 -9.58841 
-0.0413693 0.126257 -24.76 
-2.15475e-18 -3.14926e-18 1 

-0.23601 0.163887 -1.8594 
-0.00492901 0.186053 0.42581 
-1.54666e-18 -3.94052e-18 1 

-0.456649 -0.320194 -0.152724 
0.0974424 0.201311 -1.02295 
-1.82616e-18 2.69774e-18 1 

-0.227923 -0.185262 -5.57789 
-0.252336 0.289447 2.77744 
6.74829e-18 -3.89466e-18 1 

-0.0427642 -0.0359098 0.0959221 
0.046693 -0.019753 -0.139817 
4.61165e-19 9.56031e-18 1 

-0.179633 -0.144246 -0.249859 
0.102005 0.0765225 0.249801 
2.65539e-18 2.82135e-18 1 

-1.04704 -0.288029 2.44859 
-0.662607 0.292111 0.149146 
-5.42426e-18 3.07374e-18 1 

-0.166648 0.0392494 0.318126 
-0.0491057 -0.0733182 0.0678178 
1.0518e-18 -7.85346e-18 1 

-0.616581 -0.424405 0.0103992 
-0.318133 0.234492 -1.14671 
9.37739e-19 1.2652e-18 1 

-0.164938 0.207352 0.0257078 
0.143933 -0.00637644 -0.294162 
-1.53348e-18 8.5018e-18 1 

-0.208741 0.404487 -0.882706 
-0.124774 0.185253 0.95074 
2.87656e-18 -2.46983e-18 1 

-0.47946 0.352658 2.08096 
-0.0274954 0.205218 -0.847646 
1.40639e-17 2.60443e-18 1 

-0.180363 -0.0350479 -0.351358 
0.0236334 -0.00984841 -2.07283 
-1.22334e-18 -9.56885e-18 1 

-0.161108 0.0925284 -4.61692 
-0.000312167 0.0551787 1.36259 
6.2509e-18 4.48755e-18 1 

-0.136397 0.0788134 -0.48338 
-0.0778313 -0.0498332 -0.172503 
-2.98995e-19 2.01142e-18 1 

0.0045675 0.179384 0.181682 
-0.0436627 -0.0613504 0.120395 
5.31425e-19 1.16913e-17 1 

-0.388893 -0.133524 1.42936 
-0.0771477 0.113353 1.50247 
-1.59442e-17 2.62749e-18 1 

-0.193961 0.0893922 0.408131 
-0.0669253 0.0494687 -0.926213 
-2.45475e-18 1.34673e-18 1 

-0.423791 0.785148 -46.0652 
-0.795669 1.61776 20.4032 
-1.00893e-18 9.41666e-18 1 

-1.45172 0.868554 -45.9126 
-0.130621 0.381945 -11.0261 
-2.29469e-19 1.98528e-17 1 

-0.434545 0.278339 -54.3043 
0.230293 0.216433 -24.4822 
2.51046e-18 1.82896e-18 1 

-0.77498 -0.239865 0.645657 
-0.0841973 0.27468 -0.132188 
-5.49679e-18 -2.43016e-17 1 

-1.53675 0.252259 1.38408 
-0.948732 0.781178 -2.12827 
-2.67768e-18 9.23339e-19 1 

-0.784417 -1.85361 24.6616 
0.43476 1.05674 -13.5598 
6.78285e-19 -1.0276e-17 1 

-0.194528 -0.684925 1.99691 
0.276765 0.172079 0.626429 
7.93884e-18 7.37624e-18 1 

-2.12601 0.541623 -2.37578 
0.321197 0.556835 -0.209946 
-7.713e-18 9.11163e-18 1 

-0.39781 -0.217246 0.789939 
-0.0820143 0.240042 0.278752 
2.77917e-18 6.06735e-18 1 

-0.0309029 -0.357435 0.0962299 
0.265289 -0.00217098 -0.109857 
-1.52367e-18 5.30462e-18 1 

-0.158065 -0.0189925 -0.258551 
0.000780664 -0.0609767 0.936128 
3.46797e-18 1.73567e-17 1 

-0.197125 -0.0509641 0.121195 
0.0412445 0.00704822 -0.388168 
1.03006e-18 -3.99674e-18 1 

-0.121568 0.0114773 0.183265 
0.0160025 -0.072959 0.1425 
-1.97605e-17 4.84292e-18 1 

-0.0852885 0.0095681 -0.277025 
0.0113168 -0.0292409 -0.246794 
4.15956e-18 1.57389e-19 1 

-0.370283 -0.210417 0.505327 
-0.207587 0.215386 -0.607014 
8.14324e-18 4.63112e-18 1 

-0.9995 0.0735726 10.3576 
-0.214346 0.315557 -4.27151 
-5.70217e-18 -7.95762e-18 1 

1.24912 -1.46085 -1.00509 
0.691665 1.71339 -0.21456 
3.35301e-18 -2.25005e-18 1 

-0.160223 -0.0143898 1.43753 
0.531591 0.340499 0.618699 
8.46864e-18 2.38588e-18 1 

-1.93223 1.50694 15.561 
-0.33418 0.769471 0.426348 
3.68429e-19 3.23771e-19 1 

-0.159622 0.0387894 0.0472226 
-0.060435 -0.0479441 -0.128441 
-6.48474e-18 4.2899e-18 1 

0.354146 0.968428 -1.86198 
-0.962048 0.84753 -0.575596 
-3.50297e-18 -1.1131e-17 1 

-0.291814 -0.0307994 0.191266 
0.0928496 -0.0624393 -0.0208154 
-1.68282e-17 4.2487e-18 1 

-0.29832 -0.169095 0.415418 
-0.00999605 0.258841 0.478495 
1.58312e-19 7.17679e-18 1 

-0.612978 0.166287 0.0898516 
-0.0540551 0.125356 -0.737106 
1.41686e-17 1.71461e-17 1 

-0.469471 -0.522877 1.6214 
0.273204 0.341783 0.105485 
1.52849e-18 2.03617e-17 1 

-0.173813 0.179733 0.496311 
-0.0324371 0.0129513 -0.852581 
5.36884e-18 1.43354e-18 1 

-0.587922 0.00961868 -0.574962 
-0.102752 0.144525 -0.312421 
9.65312e-18 -1.60885e-17 1 

-0.220156 -0.00450112 -0.523044 
-0.0441651 -0.0572099 0.272426 
-1.28938e-17 9.11457e-18 1 

-0.494296 0.45089 3.04934 
-0.410589 0.306482 2.11772 
7.57543e-18 -9.87319e-19 1 

0.513133 -0.962542 -0.262813 
0.916115 0.859237 0.1469 
6.36988e-19 1.22089e-18 1 

-0.0508211 -0.0164584 -0.141744 
0.0573394 -0.0337153 -0.704995 
3.07821e-18 -7.17669e-18 1 

-1.07952 0.122144 -0.184388 
1.22581 1.18958 -2.01765 
-2.88531e-18 -2.58089e-17 1 

0.400462 -0.861546 0.099431 
0.947441 0.494907 -0.224314 
-1.89776e-18 -2.42492e-18 1 

-0.305669 0.634513 -0.888383 
-0.688581 0.583316 0.784848 
-5.91968e-19 -5.91968e-19 1 

-0.534089 -0.273393 0.456814 
0.0166033 0.107538 0.810572 
2.50731e-18 -1.75512e-17 1 

-1.92801 -0.601666 -2.12097 
0.487266 0.793801 1.08819 
-7.06118e-18 4.39658e-18 1 

-0.718711 -0.057137 1.62466 
-1.16763 0.0701662 -0.406108 
-5.0356e-18 5.26449e-18 1 

-3.07154 2.00088 34.2154 
-0.770689 1.04707 -2.53933 
-4.58414e-18 -8.94465e-19 1 

-0.21971 0.279383 0.0428514 
0.371231 -0.0739369 0.513783 
-2.56682e-17 2.76563e-17 1 

-8.02688 -4.3205 -19.035 
0.315473 1.00405 0.0368507 
1.1786e-17 1.00471e-17 1 

-0.578769 -0.0695503 -0.237456 
0.0871379 0.230247 -0.399857 
-5.38095e-19 3.53605e-18 1 

-0.0395601 -0.420671 -0.830776 
0.404695 0.0836942 0.387989 
-3.04576e-18 3.20826e-18 1 

-0.521761 0.375202 -3.89933 
0.370653 0.0854765 0.569474 
1.01098e-17 -9.57535e-18 1 

-0.106411 -0.1019 0.159588 
0.146911 -0.0230601 -0.0233962 
-8.21919e-18 -4.81899e-18 1 

-0.10485 -0.242487 -0.044524 
0.244807 0.000792044 0.256204 
-1.4583e-17 2.79288e-18 1 

-0.402991 -2.09176 7.83866 
0.407639 0.826132 2.64612 
-5.84788e-18 8.36977e-18 1 

-0.19437 -0.744839 0.546441 
0.0571447 0.0232446 -0.473427 
1.36308e-17 2.7776e-17 1 

-0.523785 0.623322 0.943048 
-0.0887588 0.314984 2.26093 
1.00114e-17 -3.33819e-18 1 

-0.0744239 -0.0449511 0.614459 
0.022324 -0.0299877 0.317158 
9.59619e-18 5.57827e-18 1 

-0.196007 0.0134853 0.386377 
0.0841811 0.0705977 0.529378 
9.52698e-19 2.43242e-19 1 

-2.52999 -0.674269 8.55211 
0.877771 0.632864 0.734407 
1.10087e-18 1.52651e-17 1 

-0.464161 -0.0680991 -0.105148 
0.119863 0.341523 0.35865 
4.94805e-18 -5.69232e-18 1 

-0.634499 0.205553 -0.104036 
-0.342557 0.403459 -0.0903667 
4.0638e-19 -5.01589e-18 1 

-0.654385 -0.354102 1.1467 
-0.0300678 0.253417 -0.968266 
-2.15856e-18 -1.19612e-17 1 

-0.15231 -0.0969122 -0.229091 
0.15393 -0.0456577 0.32827 
-1.88392e-18 7.60908e-18 1 

-0.133961 -0.00363052 0.119695 
0.0192564 0.0591097 -4.69666 
-1.46858e-19 -2.57567e-18 1 

-0.850084 -0.0667044 -5.38523 
-0.268665 0.321108 -2.20858 
-1.37594e-17 -5.84303e-18 1 

-1.16356 0.0419464 2.7309 
-0.465417 0.535994 -0.815295 
2.30975e-18 -3.22402e-18 1 

-0.226608 0.0140075 0.168519 
0.0157261 -0.0688422 -0.170469 
1.57104e-18 2.57407e-17 1 

-0.609326 0.696795 12.1957 
-0.87991 0.481957 0.980343 
5.97194e-19 -9.10795e-18 1 

0.132229 -0.943399 21.5017 
0.529894 0.467157 31.77 
-2.02126e-17 2.53776e-18 1 

-0.397394 -1.64629 15.8146 
0.0501871 0.401144 -7.22196 
1.15961e-17 6.40273e-19 1 

-2.18555 -0.304267 1.68155 
-0.233646 0.511978 1.75386 
1.47436e-18 2.42216e-18 1 

-0.447331 -0.810307 1.32706 
-0.0730815 0.273063 -0.389789 
-7.31199e-18 4.85694e-18 1 

-0.0777329 -0.00221821 0.294844 
0.0476513 -0.0478413 -0.0398462 
1.31739e-17 2.93612e-18 1 

-0.396031 -0.017084 13.981 
-0.337145 0.255991 -6.73806 
1.8638e-18 -3.51562e-18 1 

0.540128 0.966829 -0.124458 
-1.01996 0.692533 -0.318342 
2.36955e-18 1.38948e-18 1 

-0.172301 0.0409027 -0.0576348 
-0.00206575 0.0708694 -0.294567 
-1.65994e-18 3.12893e-17 1 

-0.123827 -0.0292562 -0.129671 
-0.0604744 -0.06527 -0.0390312 
1.76165e-18 5.91239e-18 1 
