# vtk DataFile Version 3.0
Output file generated by Yade's KinematicLocalisationAnalyser
ASCII
DATASET UNSTRUCTURED_GRID

POINTS 13483 float
471.313 42.8101 -0.629799
560.068 88.4709 -0.541539
108.287 5.83671 -0.488284
596.091 9.36204 0.559544
404.008 14.1805 0.381811
278.735 54.3438 -0.522196
142.522 7.11688 0.486751
449.13 11.6458 -0.176365
403.926 40.1178 0.161146
547.624 18.8216 -0.430113
190.333 9.70292 -0.172563
232.806 6.12442 -0.269746
489.775 56.2592 0.14843
486.467 35.1719 -0.0883124
123.847 19.5115 -0.455453
198.699 39.6815 0.386445
196.765 13.2978 -0.294697
258.888 12.1828 0.475903
300.777 45.6668 0.438125
417.734 10.7879 0.487258
358.528 64.2577 -0.0994614
456.476 51.3708 0.299263
586.282 69.1105 -0.46452
512.761 63.6161 0.444785
379.709 22.946 0.322453
216.894 48.2422 -0.177832
398.392 50.6315 -0.492925
459.669 23.7373 -0.229489
39.6531 18.2072 0.511255
533.27 47.8527 -0.363897
393.979 4.36486 0.468607
13.2082 26.3317 0.332006
574.529 86.8967 0.242831
403.187 3.99138 0.566894
70.2295 48.376 -0.108051
417.115 45.8725 0.355014
424.271 27.3874 -0.475843
297.731 32.3567 0.193884
427.362 39.1836 -0.410231
309.538 54.9262 -0.414369
219.239 14.8569 -0.318815
365.832 60.995 0.0594012
515.098 5.21081 0.26199
175.406 6.193 0.428372
49.3116 7.31231 0.0695114
60.6901 9.12391 -0.283211
527.854 8.384 -0.525614
21.7987 12.0429 -0.30129
450.841 64.796 0.377523
514.362 36.8452 0.486296
154.761 35.4294 0.282055
555.431 77.1238 0.134121
30.7129 30.5095 -0.121834
424.614 2.60816 0.583142
128.688 7.22846 -0.50332
466.885 44.6446 0.4663
405.997 46.6833 -0.137529
160.23 0.97495 0.294462
30.3075 2.3476 0.342203
302.281 27.693 0.277471
447.301 84.543 -0.13197
385.48 47.5681 -0.173325
332.383 3.78424 -0.30088
536.43 9.47759 -0.585977
22.6374 44.7958 -0.273172
232.057 35.1769 0.298728
551.15 11.7729 -0.270687
501.205 83.2903 0.346184
348.055 9.07482 -0.662966
451.708 5.49229 -0.438158
553.602 56.7787 0.445431
118.552 8.25226 0.25768
403.76 45.6298 -0.132989
393.51 25.1108 -0.145425
265.046 18.651 -0.394157
18.979 13.8611 -0.265062
574.98 78.8718 -0.316294
292.779 50.3578 -0.331084
515.317 35.1899 0.355149
526.013 14.9095 0.244837
586.054 40.7607 -0.225636
385.349 52.6199 -0.179147
84.2781 44.2926 0.154496
507.918 54.5848 0.264153
478.4 74.2428 0.103362
590.767 74.1091 0.114355
586.228 0.777555 -0.73612
263.88 31.1349 0.464105
492.587 10.3926 -0.283794
22.6164 5.40035 0.656836
122.085 44.019 -0.181369
415.78 22.9263 0.22782
568.817 62.6128 -0.488901
178.957 33.1618 -0.234085
39.2137 40.1206 -0.302517
403.105 2.54544 -0.211217
214.874 8.65201 -0.455454
534.658 82.4596 0.261304
562.937 47.5966 0.257453
311.36 42.4226 -0.254333
148.993 28.2288 -0.477023
434.707 73.6788 -0.430236
325.211 29.741 -0.480856
350.598 37.3247 0.112539
320.35 20.1425 0.501864
434.728 13.949 0.167589
597.236 22.3545 0.177509
72.7083 43.6067 -0.380786
300.808 5.91273 -0.162238
445.228 14.532 0.392446
315.512 68.6424 0.0724726
21.3665 26.5021 -0.460421
28.2527 5.73571 0.286362
444.271 47.3449 0.475787
409.42 41.4916 -0.164042
21.9303 37.9737 0.410983
84.0462 33.4443 0.226087
290.55 17.2079 0.395509
475.543 23.4831 0.125497
382.145 64.2859 -0.299764
561.225 13.3601 0.412715
558.327 7.4513 0.244304
338.657 50.1859 -0.10987
488.079 51.5556 0.105438
217.36 18.3158 -0.4936
297.004 5.09374 0.479612
93.36 34.7913 0.30428
106.122 25.9878 -0.269675
431.697 79.4228 0.0799556
276.693 18.8089 0.524005
531.686 55.7431 0.110816
505.733 84.0496 0.107851
396.405 35.6463 -0.390417
586.03 18.0042 0.329939
358.938 32.8908 0.286991
250.113 30.8061 -0.30852
502.889 68.2736 0.274453
254.634 33.6537 0.42296
459.352 14.8136 -0.24453
294.726 47.4593 0.11311
410.477 20.4826 0.527129
324.131 52.784 -0.0840879
361.017 17.7677 -0.107918
282.65 58.4432 0.449932
175.901 32.771 -0.122512
565.092 86.7308 0.16096
594.177 27.7381 -0.260006
5.99613 12.8683 -0.444047
360.864 27.2054 -0.508714
34.66 25.2591 0.0808782
328.923 50.0679 -0.451459
338.822 34.9793 -0.254388
66.909 12.2931 -0.489322
44.7193 39.9237 -0.428188
207.17 14.2273 0.461138
447.342 78.4876 0.391619
456.803 25.8757 -0.487598
67.0215 21.9922 0.50319
516.086 65.8516 0.429965
576.51 7.18537 0.551825
494.949 76.7427 0.47028
534.28 1.77829 -0.519531
437.91 41.3771 -0.419817
455.886 49.8893 -0.470684
416.974 29.4299 -0.392801
595.837 6.12305 0.205729
206.62 28.5817 0.112185
119.186 39.5563 -0.198045
227.146 7.17024 -0.42379
85.4122 4.76738 0.30269
57.5431 11.385 0.190813
252.809 42.0418 -0.355877
14.324 27.6097 -0.383432
439.814 28.2406 0.477465
455.078 67.1726 -0.188006
388.779 32.8024 -0.418671
587.89 88.3461 -0.350582
341.755 8.92503 -0.204029
365.03 53.3298 -0.398105
431.959 3.38122 -0.330923
19.5485 25.0586 -0.377019
460.83 6.42203 0.512794
439.929 8.6536 -0.278456
188.672 12.4243 0.504927
357.609 18.3394 0.184148
282.075 6.34505 0.41798
332.659 30.387 -0.405239
542.668 70.1708 0.109209
177.795 28.5969 -0.408687
589.387 11.6547 -0.445526
545.07 67.2146 -0.343217
328.993 20.3404 0.2015
550.141 2.30022 0.504187
474.436 41.3694 -0.386705
557.889 27.9255 0.539335
372.219 58.2276 -0.276025
404.372 20.7341 0.45063
375.411 59.1121 0.22452
375.903 14.0559 0.207691
498.714 77.0026 0.275509
497.989 72.8819 0.312509
176.342 42.6521 0.345761
583.816 40.3989 -0.109478
459.303 48.3838 0.347819
10.3714 18.7905 0.194855
347.077 31.8037 0.415324
172.549 26.5394 0.410104
85.723 45.5048 -0.257134
567.734 53.2392 0.416682
492.771 81.8888 0.228538
287.022 30.5288 0.420177
428.61 10.4298 0.302284
75.1875 49.4868 0.168177
227.127 28.6464 -0.470711
441.661 33.1903 0.431866
401.943 30.3556 0.482121
241.539 0.871619 -0.542585
440.793 65.5639 0.346739
422.278 75.7069 -0.459713
394.924 62.8666 0.408604
408.978 5.43995 -0.583892
539.477 21.7418 -0.403649
166.068 13.0768 -0.182209
405.85 59.8719 0.497878
446.211 52.3247 -0.139817
65.9268 0.978109 -0.343632
231.551 4.6179 0.227454
592.881 31.1727 0.156278
586.397 42.6584 -0.4091
597.557 35.778 -0.477873
274.994 8.63214 -0.256412
561.606 33.7263 -0.464297
357.013 69.8507 0.308447
377.053 3.74398 0.553762
484.574 69.0057 -0.420599
22.5689 31.8166 0.335804
294.837 51.9192 -0.592835
232.573 2.80678 0.513811
578.413 85.0855 -0.174025
523.609 65.3168 -0.244575
261.201 13.4449 0.275832
496.998 61.8936 0.0880523
448.366 2.57516 0.33216
437.323 8.04361 0.55895
88.1924 19.951 -0.494812
274.935 1.03329 -0.249165
308.82 2.59705 -0.359228
13.1674 7.89304 -0.661541
2.68392 38.7826 -0.273583
148.931 19.8726 -0.332321
62.2501 45.2606 -0.234151
60.9267 32.4993 -0.323755
358.31 14.9637 -0.463928
324.994 58.6818 0.510076
551.864 78.471 0.114252
18.3904 4.09568 0.350074
63.7529 7.31691 -0.157832
458.297 74.0859 -0.174096
266.499 0.920529 0.400239
314.567 33.0439 -0.0764946
217.211 4.68743 -0.344563
505.406 44.7811 0.174955
379.136 13.587 0.49223
565.749 33.5833 -0.431722
480.979 59.4769 -0.305268
519.124 28.0763 0.078897
357.096 37.7272 0.510298
95.412 49.1792 -0.303163
437.143 76.925 -0.0090595
555.401 24.9479 0.177923
219.075 32.8874 -0.223201
29.0545 19.4895 0.182642
302.043 16.6284 0.463349
99.3211 42.809 -0.53012
247.348 50.1645 -0.190358
361.308 2.11195 -0.344008
571.03 72.4711 0.388217
529.352 0.738863 -0.540801
301.195 4.27046 0.488035
274.62 32.5824 0.150884
378.801 58.1031 0.0498351
74.0065 8.19819 0.606019
180.748 50.1248 -0.380181
563.226 57.8436 -0.386293
403.431 65.0178 0.0732784
184.014 46.9745 -0.275662
147.317 46.5598 -0.483868
594.865 67.3786 -0.44082
596.301 24.1135 -0.437134
487.083 3.66493 -0.694076
176.552 27.2026 -0.100454
438.084 46.5606 -0.117675
438.104 39.6833 0.313861
345.996 5.74722 -0.138151
400.17 0.965194 0.383338
549.959 81.4371 -0.519481
78.7509 34.465 0.215891
509.574 32.7703 0.50298
248.516 20.7812 -0.329006
8.713 2.36704 0.330377
117.237 40.753 -0.179193
60.5854 27.2655 0.437481
519.86 51.343 -0.324393
578.94 95.5355 0.17438
172.211 31.063 -0.169885
591.116 32.2224 -0.289525
40.7343 42.9813 -0.261125
83.6176 31.5022 0.159713
495.466 34.0309 0.406217
351.254 17.2721 -0.65501
422.632 28.0779 0.146575
219.936 31.1077 0.192081
497.634 10.817 -0.535553
597.489 26.7263 0.623219
25.561 33.3793 0.279115
247.947 8.72855 0.243164
204.824 16.0133 -0.224366
1.07406 47.6502 0.150498
208.236 15.1127 -0.396288
194.608 11.1266 0.102584
197.493 30.021 -0.290737
123.083 30.772 0.138275
437.761 21.1639 0.380674
153.475 14.794 -0.331356
572.06 84.6948 -0.221392
161.992 4.02064 -0.509568
41.9131 46.1346 0.4656
526.88 91.7047 -0.426093
260.081 36.0036 0.42408
515.376 37.5666 -0.609658
575.162 68.1287 -0.455906
273.183 9.368 0.177562
548.49 53.5641 0.351107
298.931 2.62294 -0.322254
353.481 27.8609 -0.364758
518.16 20.721 0.466852
96.7359 12.0973 0.508391
400.319 4.13999 -0.494057
567.153 27.5384 0.214115
79.872 7.69023 -0.401174
256.337 17.2928 0.198475
359.119 12.5284 -0.209507
594.262 2.25287 0.629386
335.478 3.5661 0.709165
161.748 40.1475 0.26485
557.674 21.4669 -0.389196
120.493 41.2327 -0.194512
241.057 38.0122 -0.367361
342.195 26.6989 0.21496
460.125 16.5155 -0.465721
331.592 16.209 -0.55023
385.111 38.5042 -0.489325
560.988 89.157 0.388774
43.462 12.0309 0.12169
271.534 51.9928 -0.285866
331.621 40.8216 -0.410521
348.85 24.1693 0.326865
418.184 63.278 -0.413298
543.591 79.1719 0.182054
503.513 73.9077 0.356885
207.097 36.6455 0.383022
9.02537 38.615 -0.149662
496.005 72.9372 -0.136238
417.06 56.5526 0.553988
211.785 41.1527 0.110761
512.476 50.7445 -0.118007
139.831 9.62867 -0.202542
320.18 38.6324 0.26322
377.432 59.773 -0.120725
351.152 20.8886 -0.20096
556.891 90.5746 -0.290729
361.556 3.60611 0.696268
45.4856 28.2605 0.314788
391.19 56.0807 -0.363906
368.972 53.0089 0.386315
576.368 80.1677 0.212291
545.314 53.4011 -0.234456
432.154 24.4174 0.135489
566.141 79.8908 0.411422
266.148 2.25071 -0.47416
332.063 46.2146 -0.475511
24.9186 40.1677 -0.30148
549.553 55.1938 -0.154546
482.726 27.1485 0.569932
383.504 0.777577 0.632561
115.922 5.19164 -0.405263
369.677 60.2761 -0.0972075
11.0274 0.883017 -0.31666
593.945 9.87538 0.180464
329.961 60.6829 -0.397947
489.454 10.8003 0.323894
[...]
POINT_DATA 13483
TENSORS Strain_matrix float
-1.18356 -1.24576 -6.90641 
0.406444 0.672015 19.1275 
-4.78378e-20 4.54604e-18 1 

-0.926004 1.18752 -180.871 
0.0946666 0.525502 11.97 
-3.23772e-18 -2.12028e-18 1 

-0.128738 -0.1478 -0.381985 
0.119264 -0.0366471 0.224216 
-2.85983e-17 -1.52145e-17 1 

-4.72586 -2.16231 0.805113 
0.602719 1.70168 5.60263 
-4.0635e-19 9.61694e-18 1 

-0.970923 -0.859207 -0.323721 
0.593319 0.546291 0.567981 
2.15136e-17 -1.00472e-17 1 

-0.611075 -0.0125558 -18.7942 
-0.228638 0.260926 31.9737 
2.08744e-18 5.57778e-18 1 

-0.158404 -0.0395455 -1.2318 
-0.025194 -0.0751833 -1.18258 
-1.28293e-18 1.29588e-17 1 

-0.374785 0.00762456 0.142486 
0.0456667 0.0250822 -0.943751 
-1.08438e-18 -3.37513e-17 1 

-1.29329 -0.13001 -0.723043 
-0.424015 0.584506 1.5298 
5.07632e-18 -3.24144e-18 1 

-1.38488 -0.921219 -0.565857 
-0.334883 0.515939 -1.50915 
1.37829e-17 -1.54484e-18 1 

-0.447799 -0.273741 0.0552165 
-0.0425061 0.165428 -0.091497 
5.65938e-18 4.43623e-18 1 

-0.150038 -0.255649 0.177117 
0.0849269 -0.0904297 0.202878 
1.05895e-17 -1.3455e-17 1 

-0.85696 -3.15857 -1.12453 
-0.0770925 0.30763 0.622403 
-3.01177e-18 8.83553e-18 1 

-0.774483 -1.49342 -1.96001 
0.960483 1.28704 0.237426 
2.12889e-18 -1.19171e-18 1 

-0.27261 -0.253422 -1.11894 
0.241027 0.150601 0.0582674 
-6.84843e-18 1.5179e-17 1 

-0.127949 0.0386993 3.44014 
-0.325472 0.155462 0.15944 
-7.71335e-18 -4.88902e-18 1 

-0.117698 -0.059528 -0.012359 
-0.00568322 -0.0589998 -0.284431 
8.43917e-18 -4.59488e-18 1 

-0.308542 0.0513727 -0.140527 
0.100604 -0.107494 0.0282393 
4.19594e-18 3.31706e-18 1 

-0.467408 1.21933 -0.267164 
0.271914 0.121518 0.658785 
5.96181e-19 -7.80455e-18 1 

-0.588955 0.498077 4.07043 
-0.508948 0.22752 0.42033 
-7.16285e-18 -5.02656e-19 1 

-0.315544 -0.10024 -3.22026 
0.534799 0.124564 0.260071 
-5.55555e-18 8.30687e-18 1 

-1.47747 -1.89836 3.59663 
0.0985861 1.32826 3.38798 
-5.10829e-18 -1.21626e-17 1 

-0.745483 0.264291 -4.70296 
-0.316884 0.314738 2.96257 
-6.99747e-18 -5.37375e-18 1 

-3.7353 1.16893 -27.5672 
-2.39288 1.88545 -6.95338 
3.20155e-18 -1.20558e-17 1 

-0.0561064 -0.170059 0.257993 
0.164403 -0.0407317 0.107095 
3.8297e-18 8.42795e-18 1 

-0.14261 -0.458301 -0.0702971 
0.340469 0.131979 0.181962 
1.36369e-18 -2.27107e-17 1 

-1.41255 -0.506031 15.8653 
-0.227142 0.643985 6.59835 
4.31361e-18 4.84553e-18 1 

-0.175192 -0.611232 0.0494025 
0.222076 0.0171955 0.177895 
1.43801e-17 -8.55394e-18 1 

-0.179305 -0.0714631 6.23679 
0.0872425 0.0503922 0.885467 
-3.13422e-19 -4.59021e-18 1 

-1.09277 -2.56854 -3.88589 
0.318631 0.940952 1.55998 
8.73961e-18 -1.53622e-17 1 

-0.182627 -0.219035 -0.376996 
-0.0388932 -0.411906 0.105993 
1.73696e-19 9.55328e-18 1 

-0.653155 0.13028 -1.19724 
-0.335129 0.325039 0.23859 
1.06472e-17 -1.1951e-18 1 

-0.0296295 -0.409734 -0.695539 
0.325336 0.0949616 0.619968 
1.19791e-17 -4.2412e-18 1 

-1.16684 0.0589066 -12.7767 
0.199202 0.652313 -5.42623 
4.61309e-18 2.13432e-17 1 

-0.0976619 -0.119675 -0.0419611 
0.153308 -0.0189622 -0.00933479 
-1.29571e-17 -4.79472e-18 1 

-0.46187 0.432259 -0.240072 
-0.245824 0.0531474 -1.5841 
6.06721e-18 -1.15864e-17 1 

-1.46254 0.138662 -3.92915 
-0.330446 0.654532 -3.38416 
1.53264e-17 -1.7134e-17 1 

-0.344959 0.257282 0.637841 
0.121936 0.10772 0.514663 
-1.07048e-17 -6.62681e-18 1 

-0.934988 0.369231 2.61023 
-0.135324 0.149421 -0.911717 
4.93023e-18 9.45988e-18 1 

-0.372885 0.0501306 0.654401 
0.445364 0.20449 0.780795 
3.66123e-18 8.35157e-18 1 

-0.286502 -0.152672 0.140681 
0.0814354 0.121733 -0.275168 
6.05161e-18 5.08155e-18 1 

1.32642 0.983731 -0.0603803 
-1.23414 1.04851 0.532085 
-3.73518e-18 -4.13025e-18 1 

-0.176262 -0.0970048 0.155401 
-0.655084 -0.0832889 0.367236 
-3.00176e-18 2.68098e-18 1 

-0.445683 0.246939 -0.390205 
-0.216044 0.0640538 -0.281612 
-1.25032e-17 -8.04536e-18 1 

-0.446134 0.0224611 -0.289167 
-0.0135451 0.220855 -0.21238 
6.10415e-18 -1.05095e-17 1 

-0.194744 -0.0091458 -0.237891 
-0.135797 0.021846 -0.111077 
1.16179e-17 1.66119e-18 1 

-0.827324 -0.41741 0.449673 
0.124997 0.274609 -0.386935 
1.07318e-17 1.36157e-17 1 

-0.237428 0.0388244 -0.0439174 
0.039992 0.0476337 0.0716519 
2.0875e-18 2.23867e-17 1 

0.219284 -4.38791 3.58073 
0.897193 1.72595 0.430326 
-1.25198e-17 -7.01681e-18 1 

-2.88207 -1.38225 11.9649 
-0.840536 0.135163 3.36556 
-3.76845e-19 -1.07836e-17 1 

-0.303691 -0.133815 0.401706 
-0.341892 0.120102 -0.187563 
6.16962e-18 -2.39073e-18 1 

-0.619023 -0.0093346 -0.764661 
0.249444 0.2482 -0.750163 
-8.09866e-18 4.29327e-18 1 

-0.0895474 -0.0500925 -0.315478 
0.0847576 -0.0269869 0.0124448 
-1.64757e-17 2.55084e-18 1 

-0.421606 0.390512 0.119903 
-0.0812717 -0.125337 0.248126 
8.38362e-18 -2.02126e-17 1 

-0.187757 -0.0117469 0.082369 
0.0999994 -0.14101 0.566794 
-2.28356e-18 -5.92299e-18 1 

-1.16249 -0.535552 -4.11144 
1.3364 0.72722 0.472637 
9.00272e-18 -6.02228e-18 1 

-1.62877 -0.796132 1.26471 
-0.312645 0.453814 0.702389 
-6.2176e-18 -1.20207e-17 1 

-0.153554 0.196251 -0.334823 
0.0193747 -0.0306969 0.0965945 
-1.0526e-17 2.13265e-17 1 

-0.102849 -0.0645754 0.288783 
-0.00875282 -0.145331 0.288688 
2.44538e-19 -7.41337e-18 1 

-0.972092 -0.164728 0.0140232 
0.425624 0.315654 0.679263 
-1.07785e-18 -1.06663e-17 1 

-1.57396 4.28233 -20.9033 
-0.00169341 0.883144 -2.03532 
4.6684e-19 -1.0301e-17 1 

-0.832791 0.474491 2.41136 
1.3657 0.3318 -0.170183 
8.14364e-18 -6.89077e-18 1 

-3.06931 -6.62064 -1.24364 
-0.195982 0.537141 0.213483 
-6.73826e-18 -2.93744e-18 1 

-0.716009 -0.148282 -1.96853 
0.125659 0.163232 2.48592 
-7.37366e-19 -7.73942e-18 1 

-0.8538 0.0892435 1.1985 
-0.0594428 0.318561 -0.493114 
1.16269e-17 4.16025e-18 1 

-0.327287 0.67635 -0.28273 
-0.0263867 0.29055 0.474794 
1.48398e-18 -1.24835e-18 1 

-1.35353 -0.605029 2.1978 
0.347002 0.579345 -0.785091 
-6.54708e-18 9.11399e-18 1 

-0.0397101 -0.319084 0.121555 
0.369712 0.0715964 -0.15873 
-5.04476e-18 -1.27417e-17 1 

-0.283349 0.149826 -2.1578 
-0.157317 -0.0807979 -1.5371 
2.85049e-18 -1.09168e-18 1 

-0.367971 -0.497867 0.94493 
-0.147301 -0.216667 -0.854712 
1.14099e-19 1.14099e-18 1 

-1.44604 0.0795823 3.98856 
0.194249 0.793113 1.99694 
-4.93716e-18 8.31522e-19 1 

-0.133094 0.0648296 -0.148086 
-0.0946875 -0.0292886 -0.0139977 
9.77678e-18 -8.30232e-18 1 

-1.42523 -1.34125 1.24006 
0.0501212 0.562284 0.469553 
1.03587e-17 -4.47137e-18 1 

-0.563369 0.221171 0.946442 
-0.264526 0.37842 1.14651 
-1.64191e-17 -8.29806e-18 1 

-0.170286 -0.0276774 0.246576 
-0.00422593 0.111382 -1.29737 
6.06748e-18 1.11222e-17 1 

-0.15126 -0.00989085 -0.120883 
-0.0324857 -0.0882758 0.0536699 
3.29523e-18 -6.73614e-18 1 

0.000610834 3.35867 -9.8012 
0.0617658 0.057629 2.93991 
2.39551e-18 4.9459e-18 1 

-0.0935537 -0.0469442 -0.164405 
0.0260213 -0.0906074 0.496506 
-4.40849e-18 -6.42905e-19 1 

-2.01833 -1.58581 2.09304 
-0.658622 0.163663 -0.195226 
-6.98274e-18 -3.37098e-18 1 

-0.417379 -0.859163 1.05649 
0.195788 0.160299 -0.713455 
-1.63807e-18 6.43527e-19 1 

-0.115175 -0.216947 -1.53627 
0.193009 -0.0682183 0.772602 
-3.10457e-18 -3.84602e-18 1 

0.312578 -0.941383 3.44203 
0.962641 0.95798 1.4367 
4.40504e-18 -1.62037e-17 1 

-0.276345 -0.0740325 -0.45604 
0.0825158 0.160834 0.361942 
-3.47753e-18 -6.59755e-18 1 

-2.75057 -2.78875 7.51321 
-0.806513 0.249597 2.75737 
1.7212e-17 -1.29519e-17 1 

-0.236063 -0.230556 -0.267562 
0.261597 0.0515102 0.114335 
-9.21318e-19 -1.12041e-17 1 

-1.60554 -1.23813 2.6529 
-0.434714 0.415646 1.29983 
7.22261e-18 1.1996e-18 1 

-4.15684 -1.98826 33.7338 
0.0779987 0.463547 -7.15147 
1.92741e-19 -5.15277e-17 1 

-0.478713 0.842357 -0.785283 
-0.161908 0.207606 -0.187902 
2.81336e-19 1.12195e-17 1 

-0.84529 0.127179 -1.27944 
0.664897 0.221855 0.884328 
1.82012e-17 6.41228e-18 1 

-0.246013 -0.012502 2.6185 
-0.030986 0.0492943 6.42601 
-3.29764e-18 9.12396e-18 1 

-0.0521426 -0.499233 -0.0518207 
0.361879 0.0368327 0.0740581 
-1.29986e-17 -1.12951e-17 1 

-0.96967 0.418253 0.674578 
-0.0820002 0.185937 -1.06648 
-1.60883e-17 -3.92092e-18 1 

-1.10739 -0.357898 -3.9112 
0.00256458 0.481676 -0.708771 
-9.98342e-18 -1.71606e-18 1 

-0.250351 -0.0154525 0.186254 
0.297458 0.110779 0.805352 
8.52308e-18 8.83709e-18 1 

-0.42744 -0.0433531 0.25565 
0.397659 0.301198 -0.106987 
8.53702e-18 -8.27024e-19 1 

-0.960993 -0.705119 0.592493 
0.107085 0.330131 0.694326 
1.37782e-18 2.86813e-18 1 

-0.204421 0.0214882 0.153288 
0.0440169 -0.0385903 -0.732694 
-6.29266e-18 8.15394e-18 1 

-0.306687 0.0818786 0.107012 
0.152925 0.0736563 -0.0710665 
-1.55843e-17 -2.08395e-18 1 

-1.25377 -2.8046 14.443 
0.148897 0.623585 -1.1115 
0 6.41415e-18 1 

-0.683076 0.462256 -3.94445 
0.647201 0.0723356 2.23603 
-2.87475e-18 -1.00764e-18 1 

-0.121294 -0.0814992 -0.375292 
0.0572439 0.0474925 -1.5914 
1.25762e-17 -9.76506e-18 1 

-1.54677 -1.77558 44.8132 
-0.486753 0.87781 11.7175 
-2.53351e-18 -5.75671e-18 1 

-0.16691 0.445177 9.17843 
-0.457539 0.177348 9.75912 
2.08396e-18 -1.49746e-18 1 

-0.903952 0.103561 0.660634 
0.0984403 0.388827 -0.717472 
-3.7199e-18 5.47659e-18 1 

-0.898066 -0.211357 18.3948 
-0.209892 0.648711 -10.8809 
6.894e-18 1.3598e-17 1 

-0.279545 -0.666313 0.848989 
0.517532 0.245702 -0.161414 
1.68902e-18 1.15064e-17 1 

-1.784 0.469788 -3.54296 
-0.0108696 0.597997 0.797116 
4.23967e-17 4.30369e-18 1 

-0.168852 -0.0305044 1.70889 
0.101891 0.0172351 0.0666619 
-6.98066e-18 4.43864e-18 1 

-0.216605 0.0274985 0.192169 
0.155485 -0.0658548 0.0644938 
-5.09336e-18 -7.40659e-18 1 

-0.532098 0.33402 0.482633 
-0.32799 0.292592 -0.400558 
3.39153e-18 -3.03453e-18 1 

0.0227004 -0.267605 -0.341907 
0.0559911 -0.271237 -0.277184 
-5.86016e-18 1.8202e-17 1 

-0.107466 -0.0453537 0.0861465 
0.0787146 -0.00779445 3.73899 
1.29385e-18 1.96665e-17 1 

-0.137725 0.041106 0.0428997 
-0.0215968 -0.0588417 0.231706 
-5.4676e-18 -2.92907e-19 1 

-1.4665 0.170869 -0.15231 
-0.980515 0.435469 -1.19009 
-1.001e-17 -3.19618e-17 1 

-0.697747 -0.713693 0.530043 
-0.208024 0.278108 0.0660373 
2.47285e-18 5.65223e-18 1 

-0.137985 0.0448787 -0.380394 
0.0072601 -0.0154846 2.15764 
-1.25267e-17 6.8342e-18 1 

-0.372474 0.281296 0.426875 
-0.326056 0.185599 -0.23362 
5.67585e-18 -4.51488e-18 1 

-0.383644 -0.274926 0.839079 
0.107576 0.148665 -0.539914 
3.68422e-18 -7.24736e-19 1 

-0.763426 0.569958 0.665294 
0.47428 0.177416 -1.01471 
2.06835e-18 1.19346e-17 1 

0.400654 -1.13835 -0.389829 
0.831565 0.684995 0.193867 
5.45316e-18 1.06827e-17 1 

-3.09032 -2.88421 1.30031 
0.962573 1.20152 -1.05827 
1.20275e-17 1.54875e-17 1 

-0.755487 -0.187907 0.0535209 
-0.402597 0.183754 -0.559264 
6.38825e-18 1.48471e-17 1 

0.191298 0.307486 0.598405 
-0.514988 -0.0907968 0.0525986 
5.536e-18 -9.01437e-18 1 

-0.673191 -1.01061 -3.25484 
-0.137854 0.326991 1.5093 
-5.21744e-18 8.80611e-18 1 

-0.23926 -0.0643896 -1.91933 
0.117567 0.0668696 -0.510566 
-9.28535e-18 -2.56694e-18 1 

-0.196719 -0.362894 0.244182 
0.12895 -0.177993 -0.236437 
-1.73165e-17 2.75489e-18 1 

-0.233821 -0.0293017 0.61516 
-0.116126 0.173195 -0.292292 
-1.05562e-17 -3.24656e-18 1 

-0.156738 0.153363 -0.0460474 
-0.0707402 0.0752526 0.215341 
-3.88087e-18 2.46471e-18 1 

0.111026 0.55679 1.83995 
-0.525161 -0.000762004 -1.3107 
-1.08658e-18 -2.9672e-18 1 

-0.239436 0.118062 1.53936 
-0.000584178 0.161711 3.91349 
4.56476e-18 -6.51716e-18 1 

-0.658574 1.22488 -0.0268202 
0.625605 0.498181 -0.391502 
-5.62178e-18 2.09639e-18 1 

-0.121109 -0.240849 0.0092972 
0.275015 0.0856183 -0.271201 
3.01154e-18 1.12431e-17 1 

-1.41316 0.102903 -0.110268 
-0.159564 0.460942 0.865676 
1.0909e-18 -1.41546e-17 1 

-0.933405 -1.13153 -0.553724 
-0.0829175 0.0230107 0.157007 
1.42207e-17 -4.2835e-19 1 

-1.07455 0.510937 1.89002 
0.0996176 0.431614 1.64156 
-1.3435e-17 1.76448e-18 1 

-0.386916 0.289823 -0.388156 
-0.120911 0.259475 0.809486 
-1.94678e-18 -4.0048e-18 1 

-0.333602 0.782608 -7.9858 
-0.53821 0.587611 4.03417 
-3.48322e-18 -4.4352e-18 1 

-0.260453 0.302847 1.69075 
-0.096678 0.0547783 -1.14006 
3.25455e-19 2.44341e-18 1 

-0.442285 -0.528057 -0.325575 
0.141026 0.120763 0.757395 
-2.50882e-19 -1.11503e-18 1 

-0.0609604 -0.134461 -0.287097 
-0.0980138 -0.108626 -0.221249 
2.15926e-17 -2.35555e-18 1 

-0.303375 0.0589882 -1.00826 
-0.0514179 0.0293297 0.014324 
1.48203e-17 3.56207e-18 1 

-0.284592 0.35012 -1.14622 
-0.156268 0.380153 1.02206 
3.5171e-18 -1.1207e-17 1 

-0.486684 -0.359747 -0.297719 
0.117401 0.25358 -1.14258 
-1.61139e-18 -9.4982e-19 1 

-0.326512 -0.0626546 -9.39078 
-0.387769 0.293869 4.65322 
2.79378e-18 -8.16079e-18 1 

-0.111191 -0.0896664 0.503645 
0.0847188 0.0305423 -1.19078 
-8.17828e-18 -6.34361e-18 1 

-0.169492 -0.162121 -0.361616 
0.109809 0.0645079 0.254997 
-8.15905e-18 4.31044e-18 1 

-1.03194 -0.200343 3.09878 
-0.645858 0.328639 -0.159228 
-1.9297e-17 -1.92096e-18 1 

-0.191954 0.0235324 0.815657 
0.0126409 -0.0763047 -0.455457 
-8.92808e-18 1.77537e-18 1 

-1.04957 -0.447226 -3.24804 
-0.245523 0.342675 -1.34807 
8.18948e-18 -1.90032e-18 1 

-0.356734 0.178042 0.129993 
0.098469 0.0128899 0.238609 
1.16569e-17 8.12103e-18 1 

-0.605419 0.345659 -3.65236 
0.0403186 0.341336 0.0210902 
-1.58752e-17 -6.72385e-18 1 

-0.329244 0.836284 2.69634 
-0.34504 0.411102 -1.06708 
8.15142e-18 -7.12584e-19 1 

-0.317181 0.0445855 -0.705013 
0.0274247 0.0437269 0.117053 
1.95416e-17 1.57197e-17 1 

-0.35286 -0.101863 -0.12275 
0.0454198 0.240177 0.269244 
-3.64122e-18 -7.82862e-20 1 

-0.175062 0.0441435 -0.0652476 
-0.0827452 -0.0752574 -0.353636 
4.36274e-18 -5.46723e-18 1 

-0.037782 0.116783 1.95149 
-0.00458466 0.0273846 -1.66659 
-3.82862e-18 -8.3723e-18 1 

-0.430255 -0.126374 2.45355 
-0.041133 0.12667 2.48978 
2.01164e-17 3.19042e-19 1 

-0.252307 0.0203961 -1.10918 
-0.087198 0.114834 0.269229 
-3.27298e-18 -2.13653e-18 1 

-0.47564 1.10661 -30.4847 
-0.890694 1.66927 17.2065 
8.87947e-18 -3.21476e-18 1 

-1.46202 0.0837479 -1.01814 
-0.23531 0.506151 -0.841017 
7.95161e-18 -2.30251e-17 1 

-0.394944 0.228801 -49.8899 
0.210355 0.203675 -25.9393 
-3.88031e-18 -7.58105e-18 1 

-0.831858 -0.444363 0.866843 
-0.189558 0.266912 0.184759 
1.20452e-17 -4.09206e-17 1 

-1.58217 0.347712 2.86143 
-0.911167 0.822779 -1.68686 
-6.68858e-18 7.71759e-18 1 

-1.02401 -1.96687 38.5721 
0.461591 0.967546 -12.3063 
3.99377e-18 -1.87723e-17 1 

-0.217201 -0.657273 1.84346 
0.26805 0.160061 -0.092957 
9.9545e-18 1.09005e-17 1 

-1.98649 0.462553 -2.36888 
0.326563 0.577696 -0.21895 
-3.77112e-18 5.45222e-19 1 

-0.323773 -0.154455 1.20842 
-0.233441 0.192238 -0.326974 
-1.7561e-17 2.83557e-18 1 

0.026193 -0.370051 1.21852 
0.308132 0.024926 -0.0281815 
2.46984e-17 -1.17942e-17 1 

-0.249721 0.0254092 -0.303292 
0.00251009 -0.0354108 0.255197 
-6.18941e-18 -3.68345e-18 1 

-0.245344 -0.158299 0.0591038 
0.0626842 0.0133143 -0.265304 
-8.79267e-19 8.00412e-18 1 

-0.245775 0.0606436 0.346576 
-0.032863 -0.0128384 -0.236058 
9.82743e-19 3.07107e-18 1 

-0.0383385 0.285828 -0.0532107 
-0.250127 -0.0278934 -0.289116 
-7.79566e-18 -4.15427e-18 1 

-0.59403 -0.266966 0.816674 
-0.306247 0.352308 0.400676 
-4.0203e-18 -6.21318e-18 1 

-1.09792 0.286914 16.1363 
-0.22637 0.375921 -0.791963 
4.29591e-18 4.31934e-18 1 

1.66274 -2.14304 -4.43679 
0.597269 2.07243 0.85519 
9.30569e-18 4.75184e-18 1 

-0.311676 -0.292685 4.85966 
0.662007 0.282913 2.51817 
-4.25133e-19 1.25839e-17 1 

-1.88159 1.5027 16.1935 
-0.340728 0.78293 0.604356 
-6.84704e-18 -1.22132e-18 1 

-0.277552 0.382603 0.193829 
-0.451638 0.152483 0.149133 
1.32357e-17 5.46865e-18 1 

0.852955 0.805773 -1.78993 
-1.26462 1.10987 -1.45886 
4.97223e-18 2.54578e-18 1 

-0.310509 -0.0347725 0.169718 
0.0932197 -0.0723202 -0.0174603 
6.81464e-18 -2.49316e-19 1 

-0.306802 -0.196792 0.421453 
-0.00866292 0.265402 0.473164 
-1.13284e-17 -7.7744e-18 1 

-0.632809 0.159238 0.470071 
-0.061213 0.120174 -1.05617 
-4.20213e-18 -2.89295e-17 1 

-0.475145 -0.570748 1.49977 
0.288365 0.344463 0.099778 
3.96466e-18 1.15438e-17 1 

-0.252364 0.193398 1.77003 
0.0028069 0.104624 -0.681602 
-1.46673e-18 -3.45112e-19 1 

-0.607852 0.0203246 -0.599395 
-0.0675818 0.136454 -0.34616 
-3.48668e-18 1.09776e-17 1 

-0.246517 -0.0785184 -0.0379913 
0.0193782 -0.0540048 0.206596 
9.94101e-18 -7.07842e-18 1 

-0.773913 -0.0228877 3.49976 
-0.370352 0.418065 0.776716 
-6.76987e-18 1.76846e-18 1 

0.463295 -1.0265 -0.321237 
0.936918 0.976039 0.265468 
-4.20771e-18 4.20771e-18 1 

-0.106653 0.0690044 0.398621 
-0.0916125 0.0232199 -0.928376 
-6.43126e-18 -4.80578e-18 1 

-0.532543 -0.528255 1.27404 
1.2755 1.01174 -1.76135 
2.66405e-18 -2.46208e-18 1 

0.395126 -0.89415 0.0802335 
0.939775 0.518901 -0.0903457 
1.18124e-18 1.06312e-17 1 

-0.139718 0.757827 -1.58815 
-0.626652 0.533107 -0.0336207 
4.86279e-18 -5.59679e-18 1 

-0.55382 -0.278447 0.423159 
0.0172735 0.0942552 0.81176 
2.84502e-18 -1.54347e-17 1 

-2.15733 -0.822076 -1.47736 
0.607506 0.909705 1.12724 
8.07346e-18 -1.01827e-18 1 

-0.73713 -0.269272 0.882015 
-1.07879 -0.234723 -0.686503 
8.65886e-18 1.85009e-17 1 

-3.12521 2.65564 33.2279 
-0.775924 1.07501 -2.97111 
-6.67613e-18 1.1667e-18 1 

-0.408074 0.374556 -0.807485 
0.231432 0.102053 1.6619 
1.21372e-17 -2.76207e-18 1 

-8.18948 -3.65911 -16.5137 
0.328139 0.988621 1.13455 
-6.59533e-18 -9.15755e-18 1 

-0.411237 -0.28695 -0.655599 
0.252468 0.141368 -0.139854 
5.08652e-19 -8.59621e-18 1 

-0.0416188 -0.411531 -0.706061 
0.377393 0.0778456 0.445704 
-3.07997e-18 1.77075e-17 1 

-0.462227 0.46854 -7.27719 
0.386991 -0.0156289 2.12695 
-3.44123e-19 -5.76639e-18 1 

-0.0940885 -0.234855 -0.192563 
0.197558 0.0195546 -0.159796 
9.77955e-18 -1.70937e-17 1 

-0.118286 -0.148385 -0.364469 
0.227707 0.00216355 0.246369 
-5.16905e-18 -1.01807e-17 1 

-0.384171 -2.1355 8.59903 
0.428863 0.741726 2.07154 
-4.60003e-18 6.13338e-18 1 

-0.226467 -0.611943 0.765269 
0.031581 0.0550765 -0.509509 
2.73308e-18 1.0924e-17 1 

-0.592485 0.714595 0.918196 
-0.124661 0.285322 1.82086 
1.0117e-17 6.9011e-21 1 

-0.0905446 -0.026611 -0.0671039 
0.0391166 0.0412795 -0.402833 
-9.1992e-19 -4.12378e-19 1 

-0.195405 0.0278034 0.569666 
0.0559227 0.082244 0.387617 
-2.86292e-18 3.13997e-19 1 

-2.75497 -0.798447 0.38088 
0.972252 0.666481 -0.746292 
1.08813e-18 -1.1525e-17 1 

-0.514347 0.0317577 0.327765 
0.0479127 0.407149 -0.227838 
-8.13239e-18 6.36284e-18 1 

-0.821597 -0.371378 -3.51503 
-0.222821 0.477535 -0.504343 
1.36492e-17 6.73599e-18 1 

-0.739306 -0.0605128 0.309739 
-0.0524251 0.252432 -0.745047 
0 -1.46454e-18 1 

-0.110776 -0.0554565 -0.153301 
0.154017 -0.0420955 0.406215 
-5.78578e-18 -4.50574e-18 1 

-0.326277 -0.15461 -5.79453 
0.205548 0.210108 0.685221 
3.24209e-18 1.02289e-17 1 

-1.03094 -0.0471649 2.15927 
-0.301979 0.329837 -0.1919 
-9.29151e-18 7.63607e-19 1 

-1.31159 0.170909 4.2319 
-0.529017 0.565883 -0.204939 
-1.11014e-17 -1.11489e-18 1 

-0.307559 10.4554 41.4226 
0.0102377 0.217636 1.60042 
1.09426e-18 1.6858e-16 1 

-0.045585 0.81096 15.4206 
-0.82059 0.458946 -3.47539 
6.40485e-18 -2.94706e-18 1 

0.0842109 -0.930907 3.62984 
0.49836 0.684518 14.6762 
-3.35149e-18 4.38053e-18 1 

-0.335166 -2.13063 12.5738 
-0.026897 0.565893 -5.344 
9.68116e-18 1.1093e-18 1 

-2.23794 -0.229261 -2.09372 
-0.225545 0.531216 -0.201595 
-4.81078e-18 -1.05635e-17 1 

-0.0703981 -1.17982 3.21747 
0.251898 0.544818 -1.40305 
-4.0938e-18 -1.6041e-17 1 

-0.0749227 0.0613709 0.386498 
0.017615 -0.0191288 0.118221 
3.72525e-18 8.27005e-18 1 

-0.612505 -0.128636 17.3523 
-0.434346 0.333817 -12.3845 
-2.2972e-18 -2.9525e-18 1 

0.350129 0.812921 -0.310505 
-0.954361 0.464104 -0.344947 
1.99045e-19 -2.66721e-18 1 

-0.25801 -0.360017 -0.243205 
-0.0140266 0.160271 -0.463616 
2.4973e-18 -3.29166e-17 1 

-0.155183 -0.278107 -0.0249433 
0.0829407 -0.0910302 0.237699 
2.81946e-18 -3.03635e-18 1 

-1.41377 0.333475 -2.45696 
-1.13064 0.714698 -1.36683 
-4.07568e-18 2.31703e-17 1 

-0.147872 -0.356332 -1.28783 
0.247124 -0.00293295 0.291973 