# vtk DataFile Version 3.0
Output file generated by Yade's KinematicLocalisationAnalyser
ASCII
DATASET UNSTRUCTURED_GRID

POINTS 13483 float
576.891 33.9124 -0.404749
690.323 67.7298 0.535651
117.049 6.12617 -0.446308
718.38 6.30931 0.582017
486.464 8.59223 0.347754
308.814 35.8861 0.261145
152.537 6.92761 0.450947
548.833 11.1305 -0.144386
482.773 25.9282 -0.165189
651.229 14.1133 0.475675
206.232 8.85176 -0.1234
252.687 6.45267 0.315356
611.175 61.9546 0.164948
600.022 16.7906 -0.078914
134.161 17.8757 0.555086
217.352 34.5607 -0.407773
213.663 12.9693 -0.296859
283.485 9.90447 0.411902
334.423 33.7071 0.50447
508.642 8.40156 0.42254
404.262 39.7751 -0.10183
569.541 59.2733 -0.254307
706.968 51.9457 -0.460023
651.987 70.6052 -0.535559
449.252 17.6509 -0.335833
236.406 45.0982 0.129842
479.432 32.0803 0.286069
560.28 25.5032 -0.261949
42.9455 16.3684 -0.457865
675.773 68.8291 -0.318603
471.045 4.84777 0.36807
16.1457 25.2542 -0.293284
701.003 73.9431 0.293836
483.116 2.19638 0.650963
75.6726 45.1343 0.111232
508.63 34.5395 -0.335108
513.705 17.1399 -0.439616
337.721 23.3251 0.185793
517.053 29.9113 -0.308759
344.396 34.4219 0.490169
236.801 14.403 0.343988
426.41 37.0886 0.0958562
621.067 29.2808 -0.138349
188.403 6.2747 0.34829
53.0671 7.11 -0.113482
66.131 8.81413 -0.276115
627.452 16.217 0.482582
22.2295 11.9907 0.29816
580.573 57.1526 0.363472
628.768 50.8764 0.34283
168.641 32.9143 -0.324327
692.547 54.6088 -0.154119
33.1678 29.5004 0.124333
518.672 3.04575 0.356291
138.596 7.44646 -0.567842
568.683 45.6709 0.398209
490.551 29.8372 0.121313
171.164 0.963608 -0.276985
31.201 2.31411 0.3551
343.079 18.2166 0.275794
587.187 63.3342 -0.131751
452.762 35.9286 0.217745
392.235 1.02291 0.202704
636.768 12.734 0.364561
25.6284 45.2424 0.235877
252.271 32.6055 -0.374662
650.34 8.62135 -0.355477
630.327 75.9543 -0.35546
410.288 8.75577 -0.513176
548.473 3.98336 -0.419196
670.573 43.1459 0.436476
127.815 7.81578 0.273885
485.908 28.3907 -0.122566
468.028 15.244 -0.148143
289.512 16.9397 -0.342335
19.6981 14.0802 -0.305827
712.198 72.0755 0.325806
327.324 39.8594 -0.302268
624.168 45.4784 0.350247
631.698 26.4035 -0.286549
708.165 13.1009 -0.258724
455.371 37.0751 -0.174337
89.8838 39.6931 -0.315013
641.473 58.0839 -0.245017
602.5 68.5423 0.110758
714.03 56.1139 0.113542
702.024 0.741109 -0.577728
285.884 28.7438 0.475955
592.572 6.18485 -0.234516
23.406 5.83743 0.645656
130.169 39.1325 -0.14751
499.508 16.0383 0.181559
700.123 42.4498 -0.590297
191.943 29.065 0.280317
43.0731 35.4687 0.290384
481.96 1.16065 0.123687
232.311 8.82232 -0.385017
672.483 53.3503 0.274773
694.212 41.851 0.24434
355.606 21.2997 -0.25874
160.125 27.8066 -0.447607
532.517 42.8142 -0.513841
375.042 16.6862 -0.451531
407.216 31.7179 -0.139653
372.577 5.68637 0.413954
531.035 13.9666 0.158411
716.656 23.4472 0.177016
78.0057 39.9994 0.414055
330.828 5.06365 -0.209716
542.994 9.62625 -0.439931
355.823 44.829 0.461232
23.8769 26.9253 -0.471492
29.1314 5.8295 0.297927
552.121 45.322 -0.559762
493.604 27.3316 -0.164955
25.3599 39.5036 0.417483
90.3527 31.0328 -0.253831
320.725 16.098 -0.282247
574.539 21.5777 -0.150483
466.43 41.8824 0.288077
666.648 9.28704 -0.468606
659.775 5.55206 -0.177368
382.721 38.2826 -0.104604
603.567 33.1334 0.129075
235.622 16.2347 0.535844
326.308 3.89598 0.459291
101.047 32.0664 -0.419357
113.656 25.2767 0.261732
531.32 44.3317 0.0756422
302.491 18.8347 0.459963
670.598 70.6657 0.0258833
633.226 73.4717 -0.12524
472.54 21.3072 -0.451112
693.58 19.3825 0.329066
422.361 25.271 0.225764
274.039 25.6657 -0.292056
630.337 59.7323 -0.303505
276.234 29.7616 -0.411026
554.894 16.2882 -0.20303
328.403 36.5579 0.209157
493.994 12.8356 0.554801
363.333 32.4538 0.0920073
425.532 17.3804 -0.129274
314.685 43.0092 0.432798
188.255 30.6245 -0.125996
694.68 69.0851 0.148288
715.023 26.1275 -0.426949
6.09885 12.6567 0.444581
426.574 23.0733 -0.384023
36.3929 23.7566 0.075541
373.352 32.0536 -0.440809
392.812 26.3815 -0.274409
72.8202 11.9381 -0.486527
50.3694 33.8846 0.465432
224.169 13.7236 0.426606
590.053 41.5837 0.513436
557.547 27.6861 -0.496392
72.8059 21.3502 -0.481973
651.746 75.4044 -0.404708
686.107 2.5199 0.649129
620.433 75.7396 -0.448402
635.2 3.92615 -0.62644
538.3 33.6132 0.454952
571.225 58.9239 0.351275
503.37 18.9867 -0.434175
717.508 4.359 0.485253
222.123 24.7576 0.117403
125.762 36.0639 -0.157033
245.467 6.68442 0.444162
92.5662 4.52261 0.273338
62.4492 10.0182 0.24167
273.946 37.1779 -0.344212
17.2442 26.6541 0.339166
542.199 22.7949 -0.40823
582.412 47.0316 0.259474
458.284 22.8635 -0.367035
716.92 85.1525 0.399727
403.633 8.66132 -0.119831
431.369 38.3668 0.233883
526.7 3.4448 -0.234271
22.0506 24.4096 0.41024
558.777 3.88077 0.612201
533.551 5.86278 0.453091
204.466 11.3479 0.477946
421.703 16.7264 -0.249502
309.362 6.32745 0.364881
385.862 18.962 -0.33409
659.389 53.9232 -0.101169
189.739 26.6249 0.467371
695.272 6.52747 -0.540091
659.422 49.6926 0.336043
380.909 10.673 0.187352
648.675 2.20648 -0.577744
579.759 27.3742 -0.450272
669.41 23.0342 -0.42267
427.199 46.9892 -0.281512
489.176 13.7568 0.461835
459.367 47.6814 -0.254978
442.47 8.66495 -0.14843
624.014 74.0284 0.257128
621.583 70.6605 0.311504
190.63 39.5508 0.345735
706.137 12.1797 -0.152955
572.731 57.8376 -0.0855025
11.0692 18.0442 0.278495
405.91 25.8388 0.340518
185.934 23.6981 -0.404628
91.5267 40.4975 0.233722
699.247 39.7935 -0.462175
615.744 79.5521 -0.222736
316.823 26.2166 0.334283
522.972 10.7464 0.446807
80.6687 45.2939 0.182277
247.372 27.3204 -0.491877
542.863 31.2312 0.337163
481.024 20.6165 -0.438921
261.512 0.922309 -0.355674
540.715 47.7061 -0.391678
524.712 46.5415 -0.511734
477.215 38.1341 -0.259521
492.396 2.28639 -0.672214
640.95 26.449 -0.471232
177.823 12.5739 -0.185024
494.087 40.2903 0.406067
551.02 52.3343 0.126441
71.4707 0.960458 0.283408
250.57 4.78284 0.221204
713.173 26.9815 -0.245285
707.365 14.9434 -0.536227
718.519 29.2766 -0.577556
302.003 8.59115 -0.235677
669.326 34.7135 -0.458421
405.131 45.1501 -0.33498
446.885 0.803426 -0.434945
609.407 69.601 -0.479527
25.9466 33.1464 -0.316365
329.247 42.6198 -0.581153
251.371 2.93171 0.385409
706.018 74.9223 0.184498
671.907 83.4263 -0.217087
285.912 11.3364 0.262148
625.645 58.2308 -0.0955646
544.077 2.64377 0.224777
531.507 8.9553 0.533808
95.6734 18.7493 -0.515822
301.852 1.03299 -0.230394
341.99 2.26945 -0.362333
13.6463 7.91423 0.558525
4.42019 31.5706 0.301629
159.937 19.1938 0.353892
66.9269 42.7983 -0.210406
65.2447 29.7289 -0.31917
421.596 14.8653 -0.454102
366.422 35.9435 -0.483796
690.308 54.9816 0.116972
18.9945 4.10273 -0.284395
69.1681 6.91065 0.140345
594.564 49.9605 0.161648
293.213 0.942916 0.379
363.419 16.4779 -0.112161
234.736 4.54586 -0.408374
605.913 43.272 -0.176624
449.47 8.04096 0.566482
669.302 31.9531 -0.329455
604.247 50.3476 -0.31515
623.707 43.4989 0.0768765
417.592 28.9241 0.506958
100.362 46.0162 0.322253
533.279 51.0421 -0.0688202
669.684 16.9664 0.327907
237.553 31.3931 -0.274388
30.7229 18.3968 0.148971
335.573 13.9909 0.508783
106.11 41.9603 0.466697
267.132 43.7639 -0.243308
424.242 2.20254 -0.239341
706.586 58.3702 -0.479033
631.112 1.4485 -0.58976
331.331 3.51037 0.566676
299.148 26.9319 -0.158441
458.749 44.3649 0.218802
80.4312 8.11347 0.415046
196.991 45.6462 0.377594
694.657 48.2965 0.380087
491.74 44.2644 -0.0657406
199.321 41.5605 -0.275033
160 43.5988 0.398002
716.933 52.1518 -0.47256
715.116 24.2308 -0.636187
584.095 4.56029 -0.627593
189.48 24.8761 -0.107635
540.539 35.1201 0.11268
542.585 35.1138 0.268999
408.122 5.67135 -0.130802
477.083 0.961329 0.440309
687.522 55.6299 -0.532514
83.7764 31.657 -0.227078
610.943 44.5375 -0.509103
273.188 15.4638 -0.424164
9.06254 2.39199 -0.325606
124.264 37.852 -0.203384
66.2025 22.8874 -0.481161
663.024 70.0237 0.343116
703.784 82.9808 -0.222909
184.576 29.0578 0.17472
712.608 20.6535 -0.498454
44.6469 37.4679 -0.247906
89.407 29.3329 0.160262
609.536 15.6393 0.437851
412.576 17.6505 -0.562848
511.775 17.301 -0.129759
238.247 29.5269 0.185584
598.863 5.56713 0.601982
719.187 24.5149 0.445081
28.7622 33.764 -0.294131
269.206 7.72476 0.199373
221.828 15.318 0.263711
1.06046 36.1578 0.150118
225.127 14.7799 -0.388042
211.127 10.9517 0.139643
213.861 26.4166 -0.269485
131.93 28.7709 0.14925
537.399 17.8142 -0.325224
165.814 14.4456 -0.353964
700.831 72.1044 -0.32604
173.131 3.82677 0.520588
46.8067 38.9853 -0.431302
677.96 65.5612 -0.42596
281.004 33.083 -0.407749
632.125 49.4383 0.459627
701.603 48.7239 -0.605673
300.068 9.23862 -0.102684
659.415 41.5865 0.417119
328.324 2.51357 -0.434328
414.813 24.1298 0.374416
626.917 39.1036 -0.463332
104.795 12.3977 0.519897
479.154 3.85733 -0.520263
672.788 30.2773 -0.221087
87.3711 7.98462 0.246642
280.867 14.9038 0.209582
422.432 12.2301 -0.238893
716.468 2.88364 0.604138
397.182 1.97652 -0.542577
175.852 39.4421 -0.293698
672.934 13.3648 -0.521253
127.55 37.1985 0.181077
262.971 32.5454 -0.382161
400.287 22.8127 0.196964
557.591 17.8921 -0.351131
386.497 9.90959 -0.544177
455.169 29.4676 -0.485602
691.425 67.8616 -0.454498
46.0513 11.7975 -0.176434
298.261 38.1843 -0.28342
380.215 28.4704 0.394016
408.715 21.0787 -0.282027
514.598 52.0628 0.35649
681.055 51.2562 0.228601
625.526 66.919 -0.356548
225.679 34.5199 -0.373432
13.091 33.7636 0.179339
620.273 72.133 -0.1413
503.217 45.4904 -0.445724
229.328 39.6731 0.140246
646.166 56.8034 -0.129346
149.802 9.37648 0.243377
366.113 21.74 0.276958
460.366 45.6999 -0.101327
412.657 19.4988 -0.217759
686.656 67.6841 0.356842
424.973 4.17732 0.621833
48.6503 26.1732 -0.323037
466.994 34.8725 0.382196
432.742 44.7841 0.362711
707.481 68.4495 0.247031
658.804 36.4317 -0.239833
531.854 22.8151 -0.170388
699.798 63.8395 -0.452154
292.8 2.26052 -0.464178
378.994 30.3112 0.523768
28.6344 40.9942 -0.294965
662.195 41.7138 -0.288076
588.045 22.5078 -0.472017
460.184 0.81002 0.551811
124.98 4.725 -0.354133
425.12 41.5699 0.118482
11.4263 0.893842 0.317513
716.35 8.19408 0.139113
370.318 40.4683 0.547045
[...]
POINT_DATA 13483
TENSORS Strain_matrix float
-0.498064 0.285111 0.22632 
-0.399546 0.383157 -1.41234 
7.80836e-18 -4.32212e-18 1 

-1.67272 0.440727 58.7744 
0.574105 0.562489 4.00762 
9.65375e-18 6.23364e-18 1 

-0.151763 -0.128932 -0.0476992 
0.0761536 -0.0304446 0.772909 
-1.65209e-17 -1.069e-18 1 

-2.00661 -0.496719 -1.81278 
0.659425 0.770679 -0.752813 
-1.3491e-17 -2.85415e-17 1 

-0.615074 -0.0140459 0.295615 
-0.0586715 0.14792 -0.217821 
1.13867e-17 -3.26682e-18 1 

-0.0828922 -0.0418148 -0.00574301 
0.0543709 -0.0579477 -0.0301964 
-1.0204e-17 -7.50643e-18 1 

-0.110163 -0.0294945 0.544329 
-0.0280509 -0.0899634 -0.259926 
2.6375e-18 -2.05618e-17 1 

-0.37186 -0.168213 0.523933 
0.263638 0.0368927 0.0606952 
-8.4835e-19 1.45035e-17 1 

-0.264414 0.075711 -0.0113797 
-0.0502802 0.206081 -0.669735 
7.38293e-18 4.84274e-18 1 

-0.530644 0.458716 -0.127896 
-0.58783 0.180581 0.101342 
-8.47472e-18 3.61139e-18 1 

-0.0588887 0.0185646 -0.00421063 
-0.0323635 -0.0753723 -0.01133 
5.87644e-18 1.167e-17 1 

-0.203905 0.000310654 -0.44183 
-0.0729467 -0.0216875 -0.252372 
-1.17699e-17 -1.40574e-17 1 

-0.719022 -1.05865 -2.82834 
0.314662 0.381787 0.444579 
-1.09803e-17 -2.88584e-18 1 

-0.403532 -0.24453 -0.177429 
0.342191 0.178208 0.156798 
-2.56879e-18 -7.43039e-19 1 

-0.142474 -0.00203339 -2.25392 
-0.0119943 -0.0038357 5.7148 
1.0731e-17 -2.22293e-19 1 

-0.0770516 -0.0517169 -0.390974 
-0.0543125 -0.030692 0.25835 
1.01756e-17 2.36142e-18 1 

-0.0717584 -0.0185578 0.0797522 
0.0153446 -0.0934046 -0.00806084 
3.75872e-18 3.94824e-19 1 

-0.207032 -0.0404265 0.00500932 
0.066245 -0.0654418 -0.0213796 
3.68423e-19 1.25264e-17 1 

-0.243325 -0.0203307 -0.370057 
-0.022194 -0.00249304 -1.64435 
-9.63817e-20 -6.50576e-19 1 

-0.142817 0.0915844 0.323246 
-0.136366 -0.055669 0.373641 
-1.13808e-17 8.4107e-18 1 

-0.201563 -0.20202 0.247873 
0.195767 0.0574436 -0.0126379 
1.53674e-19 7.56843e-18 1 

-0.197444 0.676064 1.57627 
-0.462093 0.450888 -0.961113 
-3.57837e-18 -6.4964e-18 1 

-1.17271 0.405558 -3.76318 
0.0234765 0.6201 2.23101 
-5.96933e-18 4.0816e-18 1 

-1.04391 -0.141418 106.146 
0.0161741 0.466982 -26.4904 
1.86358e-18 -4.34638e-18 1 

-0.187032 -0.0685646 0.0703163 
0.0334085 -0.029423 -1.29347 
6.16867e-18 -7.32955e-19 1 

-0.196173 0.00330197 0.0215681 
-0.0169022 0.0529441 -0.026005 
5.13976e-18 -1.4952e-18 1 

-0.22629 0.24943 0.1558 
-0.0990347 0.257137 -0.623839 
1.19127e-19 5.06802e-18 1 

-1.02188 -0.097885 -1.19592 
-0.201612 0.424023 -0.0496667 
-6.3879e-18 -4.38144e-18 1 

-0.124333 0.0227924 -0.0657149 
0.0128106 -0.0826568 0.959928 
-6.81721e-18 -3.65043e-18 1 

-2.51485 4.94345 17.8608 
-0.403543 1.70046 5.32884 
1.07052e-17 6.39408e-18 1 

-0.120419 0.00845774 -0.135442 
-0.108666 -0.191602 0.0702595 
3.86763e-18 -9.06476e-18 1 

-0.266381 -0.00895061 1.22562 
-0.0104375 0.187178 0.183206 
-8.25282e-18 4.87102e-18 1 

0.316587 -1.01063 0.249248 
0.675178 0.263083 0.3838 
5.54973e-18 1.31994e-17 1 

-0.312425 0.0718227 -2.18929 
0.0229146 0.0748875 -1.90543 
-5.86873e-18 -1.71648e-17 1 

-0.0987265 -0.0100918 -0.108394 
-0.0454693 -0.0904187 -0.337231 
9.45295e-18 -2.96246e-18 1 

-0.430624 -0.17037 -0.0352405 
-0.0237766 0.154205 -1.22426 
-1.81736e-18 1.29033e-17 1 

-0.370582 -0.1279 0.35136 
0.122327 0.209219 -1.62767 
-8.74481e-18 1.54532e-18 1 

-0.401687 -0.111917 -0.911158 
-0.232844 0.15556 0.0617734 
6.65655e-18 4.05445e-18 1 

-0.583479 0.690966 -1.7472 
0.0783842 0.343225 0.542298 
0 -5.94184e-18 1 

-0.134575 0.00584118 3.57971 
-0.00272544 -0.021808 0.577044 
8.40446e-18 8.5886e-18 1 

-0.126826 -0.000740473 0.328797 
0.0165979 -0.107843 -0.319667 
-4.61686e-18 5.96514e-18 1 

-0.133689 -0.110261 -0.129852 
0.0398829 0.0293055 0.185218 
-7.21325e-18 -3.11684e-19 1 

-0.717367 0.447142 0.0972571 
-0.61601 0.625528 0.463305 
9.32169e-18 1.38413e-17 1 

-0.132215 0.0115453 0.404453 
-0.053546 -0.0644074 0.992574 
4.8331e-18 -1.35327e-17 1 

-0.09168 0.0742923 -0.00701819 
-0.0845675 -0.0802246 0.144137 
-1.51941e-18 -1.60818e-17 1 

-0.0907818 -0.0165446 0.0157733 
-0.00580981 -0.0635699 -0.0726996 
-1.12392e-17 -1.08305e-17 1 

-1.2294 0.365896 0.906574 
-1.06619 0.695877 -0.223425 
9.03807e-18 1.55406e-17 1 

-0.0573614 0.0450263 0.0527529 
-0.0365697 -0.138863 -0.0205821 
-9.0099e-18 -4.69266e-19 1 

-1.22997 -0.479293 5.03108 
-0.0106707 0.372711 -2.90712 
2.18583e-18 1.1257e-17 1 

-0.71165 0.722049 -2.3724 
-0.0673586 0.490594 2.33303 
-2.51098e-18 1.63506e-18 1 

-0.125389 -0.0605941 0.165872 
0.00455762 -0.00520604 -0.24612 
-2.88711e-18 9.95556e-20 1 

0.0361004 -0.487335 -0.0138553 
0.679969 0.136913 -0.423008 
-2.19323e-18 -3.01569e-18 1 

-0.113871 0.0970453 -0.19625 
-0.0918221 0.0314913 0.204775 
1.01603e-17 3.15632e-19 1 

-0.193522 0.0769207 -0.0069429 
-0.0260453 -0.0773407 -0.0719113 
-8.45069e-18 -8.67909e-18 1 

-0.211842 0.00166624 0.229416 
0.0277233 -0.0964152 -0.541038 
4.00193e-18 1.63412e-17 1 

-0.727683 0.363549 0.693759 
-0.234038 0.492088 -4.14499 
5.54763e-18 1.1834e-17 1 

-0.237897 0.128626 0.455352 
0.158795 0.1609 0.1663 
1.46292e-18 -8.53371e-18 1 

-0.107324 -0.0566918 -0.199506 
-0.00206465 -0.0831522 -0.0479726 
-9.13361e-18 1.17854e-17 1 

-0.076191 -0.0567534 0.302296 
-0.0489949 -0.127191 0.13467 
-9.58903e-18 1.08194e-17 1 

-0.113227 -0.0864804 -0.532796 
-0.000180473 -0.0200103 -0.155423 
-5.06682e-18 -6.38045e-18 1 

-2.7528 0.368082 5.16156 
-0.240379 1.44267 3.725 
-1.80333e-18 1.03047e-18 1 

-0.167473 -0.354871 0.615391 
0.194514 0.0929914 0.880554 
-1.15803e-17 -3.0799e-18 1 

-0.120345 -0.0566901 -0.276012 
-0.0157713 -0.0567556 -0.124987 
4.91413e-18 -4.89204e-18 1 

-0.465936 0.301494 2.11071 
-0.230116 0.149243 -0.0110123 
5.27921e-18 2.95636e-17 1 

-0.0765214 -0.0389463 -0.176873 
-0.0481061 0.0109846 0.10281 
1.05656e-17 -2.5976e-18 1 

-0.278729 0.0490088 0.612469 
0.021889 0.0290009 1.42427 
-9.63313e-18 -9.22495e-18 1 

-0.209783 0.224532 -0.32619 
-0.317543 -0.163683 0.145138 
-1.23524e-18 6.54294e-18 1 

0.0183263 0.512156 1.53935 
-0.384554 0.178432 0.00861466 
1.46101e-19 7.43785e-19 1 

-0.180249 -0.0118534 0.281857 
-0.0638074 -0.064253 -0.0689143 
1.27484e-17 -1.63025e-18 1 

-0.4282 0.127846 -0.0843264 
-0.244316 -0.20977 -0.459552 
-4.29635e-18 6.77884e-18 1 

-0.53477 -0.0727735 0.796725 
0.205401 0.210639 -0.335566 
3.06601e-18 -1.02708e-17 1 

-0.125252 0.0652721 -0.16346 
-0.0453658 -0.040443 0.118939 
-3.32267e-18 3.86218e-18 1 

-0.30967 -0.047488 -0.169791 
0.0676249 0.110388 -1.49299 
1.73673e-18 -7.11888e-18 1 

-0.174069 0.1121 0.0555501 
-0.17308 -0.0449339 0.029977 
-8.11352e-18 -9.77631e-18 1 

-0.103938 0.00708448 -0.494944 
-0.0254711 -0.0532628 -0.164859 
-4.63804e-19 -7.10525e-19 1 

-0.157819 0.099151 -0.0723116 
-0.113349 -0.0551094 -0.0392321 
1.07305e-19 1.43078e-17 1 

-0.186851 -0.824894 0.408486 
0.612788 0.404237 -0.150206 
3.31879e-18 1.21689e-17 1 

-0.149205 0.0402432 -0.313434 
-0.00953014 -0.00899207 -0.416774 
-3.6114e-18 3.02408e-18 1 

-0.2517 -0.215577 -1.08739 
-0.185593 0.115802 -0.26329 
5.40755e-18 -1.37794e-17 1 

-0.101085 0.697703 0.040901 
-0.744437 0.470324 0.581873 
8.36707e-18 3.04257e-18 1 

-0.710444 -0.422532 0.800263 
0.334849 0.129804 -0.506905 
-2.08098e-18 1.73415e-19 1 

-0.123043 -0.326573 -0.0962543 
0.139468 0.139044 0.117859 
-7.47323e-18 -5.91166e-18 1 

-0.11487 -0.0079521 0.125993 
0.015944 -0.0119867 -0.122203 
9.56434e-18 4.17168e-18 1 

-0.136362 -0.168444 -0.431496 
0.107487 -0.0125788 -0.158148 
-6.6277e-18 -4.40036e-18 1 

0.00440991 -0.65548 0.0947796 
0.662019 0.269757 -0.526748 
-5.77688e-18 9.55509e-18 1 

-0.691765 0.702523 1.04659 
-0.283259 0.412694 0.437072 
5.84729e-18 3.35807e-18 1 

-0.633224 -9.81602 3.03247 
0.00768001 -1.0432 0.546384 
-5.45093e-18 -2.69068e-16 1 

-0.153877 0.061544 0.0126368 
-0.0798476 -0.143717 -0.0999865 
-8.82885e-18 -4.90492e-19 1 

-0.3308 -0.175388 -0.38233 
0.161542 -0.050809 0.0674386 
-1.15647e-17 -4.52778e-18 1 

-0.166975 0.0310671 0.23255 
0.00835423 -0.107298 5.40472 
2.29202e-18 1.58031e-17 1 

-0.107834 -0.0571816 0.133631 
0.0280796 -0.0261487 -0.0645967 
-1.09599e-17 -1.54728e-18 1 

-0.321402 0.278386 -0.0115745 
-0.135855 0.0361312 0.240932 
1.64738e-17 -1.70902e-17 1 

-2.92825 -0.670401 5.62807 
-0.471009 0.509177 2.77425 
3.92135e-18 -1.65826e-17 1 

-0.133925 0.0657919 -0.156556 
-0.160034 0.00555167 -0.0920024 
1.46069e-17 -2.29353e-19 1 

-0.108251 0.150158 -0.001973 
-0.0688913 0.0250587 0.587543 
-1.01291e-19 -1.1718e-17 1 

-0.280211 0.29375 -0.150948 
0.00372215 -0.0659067 -0.0461161 
-1.45454e-17 -2.80848e-17 1 

-0.132611 0.0920276 0.0323542 
-0.106814 -0.0694576 -0.0286205 
-9.3515e-20 9.822e-18 1 

-0.168569 -0.119728 -0.276726 
0.160917 0.0661996 -0.306957 
-1.49888e-17 1.15632e-17 1 

-1.82364 -1.13416 0.875408 
0.0143375 0.694679 -0.354353 
7.1701e-19 7.96678e-18 1 

-0.158882 -0.0553098 -0.332381 
0.0128786 0.102623 0.342898 
-1.43968e-17 1.04704e-17 1 

-0.0844266 0.0126036 0.532104 
-0.0321134 -0.0133441 -1.08993 
3.96867e-19 3.67102e-18 1 

-0.435156 -0.0703279 5.28259 
0.246636 0.115101 -4.09495 
2.18398e-18 -4.74779e-20 1 

-0.168383 0.0140979 -1.04629 
-0.0203911 -0.00674468 0.655538 
3.84345e-18 -8.8099e-18 1 

-0.111747 0.10327 -0.881061 
-0.176907 0.0523699 -0.612348 
-1.03647e-17 -1.72745e-18 1 

-0.299827 -0.0217981 0.822861 
0.0517495 0.043714 -0.122513 
-3.2523e-18 -3.58052e-18 1 

-0.35169 -0.149194 0.103886 
-0.0625338 0.0227915 -0.225878 
7.80399e-18 -1.76575e-17 1 

-0.820578 -0.0786512 0.744306 
0.312879 0.205038 -0.618802 
-8.6854e-18 -3.79986e-18 1 

-0.15703 -0.00465587 0.108196 
-0.0488349 -0.00441902 -0.0209856 
-3.23168e-18 9.03526e-19 1 

-0.15999 0.0586524 0.108863 
0.0786204 -0.0989555 -0.0686884 
5.73547e-18 9.01563e-19 1 

-0.449508 0.354055 -0.131969 
-0.117537 0.00605607 -0.329059 
1.26774e-17 3.98571e-18 1 

-0.17162 0.0593646 -0.292946 
0.0556532 -0.0449148 0.131294 
-7.42496e-18 -4.6458e-18 1 

-0.24158 -0.00292577 -1.65626 
-0.0280523 0.179801 1.4805 
1.40219e-17 8.57066e-18 1 

-0.0899182 0.119097 0.0518363 
-0.0984199 -0.101049 0.0752471 
9.70379e-18 -5.01362e-18 1 

-0.470044 -0.0649541 23.0232 
0.07831 0.139658 22.5883 
2.0582e-18 -1.57241e-18 1 

-0.22131 -0.18015 0.441463 
0.0191343 0.0309723 -0.216824 
-2.51884e-18 8.22997e-18 1 

-0.110382 0.0276516 -0.517899 
-0.0698087 -0.002957 -0.174645 
-3.33338e-18 1.72842e-19 1 

-0.221582 -0.0286075 -0.959306 
-0.0357247 0.043363 -0.903998 
7.06136e-18 -2.03367e-19 1 

-0.180354 -0.0133141 -0.293805 
0.130248 0.00832964 -0.139671 
8.56034e-20 -1.19845e-18 1 

-0.826025 0.46132 -0.970664 
0.0470372 0.372007 -0.430666 
5.29633e-18 1.16699e-17 1 

-0.124475 -0.139702 -0.0100174 
0.203297 0.0318622 -0.0177302 
4.89033e-18 7.85852e-18 1 

-0.875538 -0.303279 0.291775 
0.705273 0.351065 0.27028 
5.0855e-18 7.55447e-19 1 

-0.242813 0.285192 0.612952 
-0.220001 -0.100891 -0.149331 
-2.055e-17 -1.59399e-17 1 

-0.0938853 -0.0148659 0.0292714 
0.00764445 0.00621026 -0.0477419 
2.07801e-18 1.19485e-18 1 

-4.57443 -2.10144 2.09702 
0.783774 0.674886 0.299659 
-8.15906e-18 4.88567e-20 1 

-0.128601 0.0337814 2.19402 
0.00661544 -0.0144656 10.2968 
5.12545e-18 6.35251e-18 1 

-0.121004 -0.0285932 -0.0882514 
-0.0327218 -0.114524 -0.017464 
-3.46267e-18 1.27789e-18 1 

-0.132695 -0.0934899 -0.157106 
-0.0140425 -0.0269355 -0.172562 
1.48385e-17 4.4475e-18 1 

-0.325409 0.153888 0.988168 
-0.137676 0.146491 0.709032 
-1.63345e-18 5.42667e-18 1 

-0.768625 0.489906 1.88378 
0.0138791 0.228164 0.436211 
-2.44789e-18 -5.90373e-18 1 

-0.177818 0.168534 -0.303275 
0.0866659 0.0685218 0.167479 
-5.24612e-18 -7.32648e-18 1 

-0.0271929 -0.308194 0.113903 
0.274286 0.0624162 -0.240095 
1.80868e-18 -6.83514e-20 1 

-0.0568684 0.823482 0.220215 
-0.521344 0.376474 0.0916379 
3.19094e-18 -1.29653e-17 1 

-0.447165 -0.0755852 -1.70263 
0.238655 0.192632 0.725666 
-5.83798e-19 -7.24097e-18 1 

-1.11287 -0.3173 -1.0282 
-0.42893 0.37361 0.212911 
-1.48637e-17 -1.60896e-18 1 

-0.224946 0.332319 0.33977 
-0.266601 0.236639 -0.407997 
-1.92569e-18 -1.83803e-17 1 

-0.363018 0.372959 1.02086 
-0.249088 0.176336 0.781005 
-6.57821e-18 -1.10791e-17 1 

-0.172334 0.792415 -0.443392 
-0.342141 0.318035 0.774085 
1.57936e-18 -9.14079e-18 1 

-0.112404 -0.0202552 -0.0644518 
0.0183306 -0.0489391 -0.175531 
-3.47155e-19 2.95082e-18 1 

-0.456379 0.0518641 0.19337 
0.280125 0.133975 -0.515827 
4.0098e-18 -7.03088e-18 1 

-0.090436 -0.0876728 0.0416262 
0.0787223 -0.0863637 -0.0223545 
4.53078e-19 3.76975e-18 1 

-0.280478 -0.0661228 -0.266555 
0.081299 0.0177053 -0.835794 
-2.21043e-17 1.96774e-17 1 

-0.112335 0.00520703 -0.0233446 
-0.0259314 -0.0236764 -0.0791367 
4.56957e-18 1.14239e-18 1 

-0.142634 -0.142414 -0.0269513 
0.119988 0.000733798 0.0510594 
0 -2.22948e-18 1 

-0.0857766 -0.081989 -0.7592 
0.0563791 -0.043759 -0.884457 
5.22936e-18 1.49467e-17 1 

-0.072533 0.0129714 -0.00717653 
-0.023052 -0.035741 -0.0580953 
-9.22107e-18 -3.72151e-18 1 

0.2496 -0.985173 -0.58038 
0.563716 0.38574 0.394493 
1.73701e-18 3.69815e-18 1 

-1.284 -0.100316 0.838409 
-0.0789356 0.43541 0.038766 
-7.52043e-18 2.82016e-19 1 

-0.131643 -0.00794774 -0.255632 
-0.0206186 -0.0756449 -0.593453 
1.20209e-17 -1.01642e-18 1 

0.112618 -0.207648 1.0422 
0.0593211 -0.0950694 -0.841298 
-6.16091e-20 7.04104e-19 1 

-0.0742983 0.0802818 0.16788 
-0.120371 -0.017351 0.0687905 
4.77262e-19 8.87929e-20 1 

-0.114927 -0.0587688 0.733526 
0.0449049 -0.0348648 0.82115 
-2.57971e-18 1.09262e-17 1 

-0.314654 0.254913 0.782951 
0.0608997 0.186129 -0.665528 
7.93769e-18 -1.41831e-17 1 

-0.169368 -0.074286 -0.0425299 
0.0421284 -0.0451226 0.639562 
1.0653e-18 2.28798e-18 1 

-0.162003 0.050582 1.89978 
0.0724999 0.00984414 0.631815 
6.11139e-18 9.42026e-20 1 

-0.106989 0.00961387 0.110715 
0.0177876 -0.069999 0.177096 
-5.11431e-18 3.09718e-18 1 

-0.506583 -0.578576 -44.8349 
0.543826 0.327082 2.13657 
-6.50368e-18 5.18566e-18 1 

-0.533967 -0.186537 -0.991905 
0.361912 0.393333 -2.06349 
4.27883e-18 -4.02713e-18 1 

-0.154006 -0.0360865 -1.67033 
0.0214901 0.0374226 -0.138388 
-3.69737e-18 9.64616e-19 1 

-0.689725 0.398551 -3.37258 
0.228213 0.714602 -0.338604 
-4.63144e-18 9.8394e-18 1 

-3.89071 -1.9959 -10.3698 
0.402785 0.842882 -0.76513 
2.04938e-17 4.40558e-18 1 

-0.0339277 0.239137 -4.84618 
-0.273268 0.127969 2.46373 
-3.68475e-18 -2.93712e-18 1 

-2.04916 -0.731989 -1.4858 
0.253388 0.671659 0.594669 
-5.80331e-18 -1.08064e-17 1 

-0.377747 -0.0253428 -2.99883 
0.130992 0.0787477 -0.370177 
-4.50332e-18 -2.80065e-18 1 

-0.63321 0.0683695 -10.5076 
-0.411911 0.501823 2.85751 
3.27103e-18 -1.53931e-18 1 

-0.445874 0.171024 -0.624801 
-0.265323 0.100217 -0.259192 
-3.24079e-18 -5.69733e-18 1 

-1.52178 -0.894546 -0.297506 
0.432913 0.299294 -0.135966 
2.04904e-17 -1.82588e-18 1 

-0.05013 0.0438793 -0.0494696 
0.0103187 -0.0774315 0.0109008 
-5.50837e-18 2.87937e-18 1 

-0.0991188 0.0239745 0.118374 
-0.0312482 -0.0089713 -0.0714516 
3.47049e-20 9.96031e-18 1 

-0.122341 0.00929429 0.544738 
0.0220371 -0.0990512 -0.722215 
-3.36218e-18 -9.70973e-18 1 

-0.190742 -0.016636 0.142949 
-0.0105478 0.0023739 -0.0731895 
-1.17324e-17 -2.90272e-18 1 

-0.122844 0.0112331 -0.0626816 
-0.011847 -0.0567352 0.0600391 
-1.05225e-17 2.93882e-18 1 

-0.0845802 -0.0249279 -0.200461 
0.029701 -0.0354264 -0.502812 
-6.63516e-18 6.37131e-18 1 

-0.371686 -0.0835433 0.784888 
-0.162214 0.204864 0.644516 
9.74907e-18 -1.82292e-18 1 

-0.691394 -0.240905 2.88276 
-0.146278 0.231059 -0.2069 
-2.14862e-17 -1.60945e-18 1 

-1.45933 -0.151533 0.812285 
-0.212868 0.609093 0.775465 
1.03544e-17 4.89258e-18 1 

-0.10279 0.0565012 -0.193512 
-0.0361842 -0.0603846 0.620672 
-7.90596e-18 -2.58431e-18 1 

0.163449 -1.01446 0.012498 
0.842684 0.689648 0.739051 
7.73096e-19 6.66052e-18 1 

-0.143527 -0.0166503 -0.0232478 
-0.00484984 -0.0581349 -0.128153 
3.49945e-19 1.09983e-18 1 

-0.428176 0.00465709 -1.29455 
0.223251 0.182495 -0.862948 
2.5874e-17 2.49439e-18 1 

-0.3357 -0.101578 -0.146237 
0.110836 -0.0718561 0.00762785 
-5.71628e-18 6.85371e-18 1 

-0.501116 -0.0413745 -0.401966 
-0.0064362 0.309006 0.540817 
1.23643e-17 6.31224e-18 1 

-0.816311 -0.0894061 -0.179422 
-0.0740471 0.133039 -0.197331 
9.22408e-18 -8.72688e-18 1 

-0.57991 -0.0902809 -0.832663 
-0.0231539 0.257935 -1.20931 
1.13031e-17 -6.32822e-18 1 

-0.11228 -0.000158109 -0.451678 
0.00506024 -0.0428476 -0.504189 
-4.90194e-18 -5.80659e-18 1 

-0.270584 -0.0350865 -0.0427186 
0.133863 0.0526414 -0.513598 
8.66801e-18 1.2707e-18 1 

-0.171384 -0.0255781 -0.0507381 
-0.0373279 -0.0431216 0.187186 
-3.99821e-18 -7.17179e-18 1 

-0.205248 -0.0116882 -0.32462 
-0.0175598 -0.0681692 -0.594257 
6.99756e-18 -1.74258e-18 1 

-0.154305 -0.460552 0.0335917 
0.427142 0.21435 -0.465472 
-5.96238e-18 -6.49511e-18 1 

-0.241449 0.029091 -0.811071 
-0.138941 0.0440662 -2.02519 
-4.32566e-18 -6.51622e-18 1 

-0.588779 0.0765033 -0.806704 
-0.459931 0.0574361 -1.63986 
2.42407e-18 -2.95879e-18 1 

-0.00485665 -0.463206 -0.445899 
0.49609 0.11085 -0.696654 
-2.64148e-18 1.29716e-19 1 

-0.217513 0.0129576 -0.0870807 
0.0891206 0.00296422 0.229539 
1.572e-17 3.23407e-18 1 

-0.620513 -0.49757 -8.38232 
0.0167895 0.232332 2.3662 
4.05214e-18 -2.55212e-17 1 

-0.749232 -0.111917 -0.863796 
-0.460376 0.342739 0.0695057 
8.20151e-18 5.98121e-18 1 

-0.301895 -0.858524 1.04849 
0.525244 0.370772 0.677461 
-2.93722e-18 7.85088e-18 1 

-0.407085 -0.150164 0.11669 
-0.0613403 0.491946 -1.59382 
8.19958e-18 -3.49574e-18 1 

-0.29644 0.0890808 -0.0811096 
-0.232553 -0.0388518 -0.0187723 
2.36996e-18 -7.44844e-18 1 

-0.353637 -0.25707 0.100412 
0.0545437 0.0343793 0.510821 
-4.61913e-18 -2.21128e-17 1 

-0.162845 -0.0274431 -0.0958936 
-0.0639109 -0.0419918 0.164614 
-7.29179e-18 1.17684e-18 1 

-0.0145364 0.27854 0.0176821 
-0.409608 0.0460972 0.245324 
-5.94456e-18 -1.15891e-17 1 

-0.472486 0.212146 0.801077 
-0.360347 0.278361 -0.289002 
-5.26685e-18 8.4256e-18 1 

-0.118925 0.0145742 -0.34317 
-0.0835868 -0.00987638 0.0294274 
8.10251e-19 -1.22274e-17 1 

-0.324927 -0.384708 0.0293519 
0.261492 0.0574521 -0.4566 
-9.41782e-18 2.57581e-18 1 

-1.14265 -0.195755 0.58032 
-0.155324 0.702829 -1.43114 
4.39736e-18 -4.67976e-18 1 

-0.215139 0.0229259 -0.159146 
-0.0164835 -0.0628255 -0.350223 
8.23456e-18 -1.01153e-17 1 

-0.228776 0.0201208 -2.33849 
0.037488 0.168179 0.564113 
2.01717e-18 -2.01717e-18 1 

-0.152324 0.00328095 0.116169 
0.00712185 0.0607634 0.0367444 
-3.71712e-18 -4.89094e-18 1 

-0.107865 0.0430636 0.175488 
-0.028802 -0.0116667 -0.309963 
-2.98937e-18 2.69312e-18 1 

-2.44906 0.0739509 0.298314 
0.214764 1.12358 0.170165 
1.09246e-17 -2.35629e-18 1 

0.263305 -5.19411 23.4434 
-0.0443236 1.05406 -4.66924 
6.37143e-19 2.99975e-18 1 

-0.143327 0.0308145 -0.397088 
-0.0920723 0.0483443 0.809352 
-1.12183e-18 -2.03969e-18 1 

-0.340425 -0.195379 -0.53296 
0.184466 0.087434 -1.76758 
-7.96239e-18 1.042e-17 1 

-0.122589 0.0599515 0.0281112 
0.0709865 -0.0533025 -0.343123 
1.37755e-17 -4.54917e-18 1 

-0.245302 0.108 -0.745613 
-0.0502914 0.0944203 -1.95283 
1.25923e-18 -1.13055e-18 1 

-0.580217 1.21956 -1.36743 
0.139167 0.233235 -1.8389 
1.22737e-18 -3.6221e-18 1 

-0.315839 -0.0757154 -0.64104 
-0.0277813 0.137668 -1.06507 
-3.79308e-18 3.77578e-18 1 

-0.19497 -0.11447 0.0966114 
0.0123023 -0.0511498 -0.18806 
1.87469e-18 5.88583e-17 1 

-0.181328 -0.545103 0.292892 
0.507001 0.271111 0.445851 
1.30954e-17 -4.70227e-19 1 

-0.294684 0.223466 1.63081 
-0.123933 0.108456 4.60561 
-1.82664e-18 3.62578e-18 1 

-0.190072 -0.00183435 0.0965479 
-0.0066082 -0.00245787 0.093023 
9.11089e-18 2.20752e-18 1 

-0.311131 1.51136 129.564 
-0.00682123 0.146816 -1.66383 
5.51381e-18 1.88811e-17 1 

-1.5666 1.00202 -0.0274654 
-0.472389 0.329119 0.171237 
1.73418e-17 1.56344e-17 1 

-0.118418 0.0165705 0.0598081 
0.0183947 -0.0213442 -0.0992323 
-8.48766e-18 -9.69805e-18 1 

-0.43009 0.0161246 -1.78462 