# vtk DataFile Version 3.0
Output file generated by Yade's KinematicLocalisationAnalyser
ASCII
DATASET UNSTRUCTURED_GRID

POINTS 13483 float
631.262 29.5549 -0.417023
807.814 56.5581 0.54503
123.251 6.08544 -0.478158
838.617 4.81232 0.544176
516.066 7.75616 -0.280948
323.893 35.0135 0.279012
160.627 6.86167 0.425288
590.637 10.3358 0.149573
513.194 23.9382 -0.14531
752.398 13.3276 0.557995
216.123 8.87708 -0.122214
264.169 6.30858 -0.261178
681.993 30.7251 0.17251
659.297 13.9863 0.0711328
140.749 17.215 0.446412
227.584 34.4356 -0.394118
223.646 12.9462 -0.281996
297.127 9.54532 0.384366
350.723 32.8042 0.303978
541.945 8.59781 0.347442
423.722 36.5468 0.102665
613.422 45.4501 -0.270878
829.715 40.427 -0.474962
732.125 45.6716 0.431013
473.814 16.1592 0.284507
247.698 44.1118 -0.122878
507.813 27.8089 -0.485611
608.379 20.337 -0.235287
46.1299 15.5542 -0.459713
756.282 39.6102 -0.349655
498.385 4.93331 0.314069
17.0011 23.589 -0.301503
820.08 59.6289 0.29478
511.758 2.50653 0.471665
80.1185 44.337 0.106356
539.465 31.2647 -0.381064
548.323 16.7532 -0.41717
353.931 22.3942 0.1859
551.756 25.6886 -0.315223
361.271 33.2215 0.469932
247.901 14.5615 0.304837
448.316 35.7687 0.0692821
707.109 8.4976 0.135446
198.105 6.22491 0.373227
56.7849 6.93685 -0.130487
70.3448 8.82518 -0.270543
724.156 8.81787 0.495648
23.8785 11.6939 0.277291
635.283 45.279 -0.360772
710.991 25.4705 0.332376
177.358 32.3178 -0.315792
807.781 43.0671 -0.156581
35.8625 28.18 0.119366
552.509 3.00988 0.318573
145.925 7.43838 -0.500034
617.012 34.6817 0.458405
521.234 27.2289 0.122213
179.646 0.942672 -0.267762
33.3717 2.39521 0.304619
359.211 17.743 0.266699
646.95 45.6292 0.132888
477.528 33.4621 0.188709
412.071 1.02765 0.196172
735.933 10.2907 0.447397
27.3176 43.1912 0.23569
263.82 30.5695 -0.320136
751.792 8.2406 0.183633
702.753 47.5124 -0.362296
431.142 8.54263 -0.499159
591.479 3.68776 -0.328093
784.495 35.9675 0.442736
134.355 7.59752 0.289384
515.864 26.3368 -0.134972
494.078 14.7149 -0.164052
303.379 16.6822 -0.331187
21.0053 13.6629 0.224957
830.68 54.7318 0.307626
343.068 38.7201 -0.278479
708.05 21.9098 0.328269
723.91 12.6444 -0.258812
826.515 12.7075 -0.270073
481.017 34.402 -0.168417
94.8735 38.8271 -0.28668
719.966 35.972 -0.245564
677.419 38.7671 0.104284
836.564 45.201 0.104534
820.226 0.741599 -0.585188
299.983 28.9068 0.45344
647.818 6.29788 -0.111539
24.7757 5.2769 0.526679
136.818 38.0472 -0.144089
531.268 14.6632 0.219095
816.271 32.8188 -0.500765
201.342 28.5996 0.250318
45.5657 34.5254 0.279402
510.665 1.16648 0.136461
243.049 8.87068 -0.365433
787.679 46.2524 0.256265
807.618 32.729 0.211868
373.241 20.5573 -0.273493
168.931 26.7853 -0.467769
571.012 38.5834 0.405862
393.181 15.4318 -0.397706
428.147 29.6477 -0.113106
391.087 4.56511 0.404656
569.123 10.7583 -0.0938554
840.206 17.2855 0.232024
82.3857 39.2603 0.393477
346.613 4.83785 -0.186587
583.992 9.57341 -0.363843
372.672 43.7753 0.446141
26.4508 25.2308 -0.466803
31.0323 5.69908 0.337185
591.961 33.0399 -0.420903
524.412 24.8961 -0.142418
27.1227 37.2186 0.408696
95.7158 30.8666 -0.236899
336.321 15.9205 -0.295992
626.67 18.9313 0.121661
493.365 38.0255 0.314175
769.422 7.94444 -0.549058
761.506 6.19631 -0.193944
401.21 37.0577 -0.0978742
665.67 24.668 0.108346
246.419 16.8792 0.466182
341.694 3.71484 0.461598
106.65 31.6134 -0.400333
119.8 24.1128 0.25654
566.092 38.7501 0.0663785
316.854 18.8273 0.492312
751.422 41.8513 -0.100078
706.768 46.3668 -0.136579
499.856 20.5069 -0.365523
804.369 13.1596 0.263348
445.201 23.5641 0.23771
287.019 24.385 -0.292848
708.514 33.6685 -0.35762
289.095 28.4901 -0.399156
602.105 12.2074 -0.21738
344.089 35.4016 0.202511
525.275 11.6191 0.493304
380.875 31.4313 0.0934783
447.582 16.6297 -0.103099
330.045 41.8289 0.347077
197.46 29.8487 -0.124467
812.607 56.6448 0.0441816
837.476 18.6808 -0.344729
6.15261 12.2698 0.44687
451.592 22.362 -0.404562
39.4836 22.6734 0.0764734
391.153 31.2945 -0.34323
411.094 24.472 -0.272501
77.3039 11.838 -0.480012
53.5938 33.1504 0.390037
234.407 13.4895 0.417152
648.369 39.264 0.400238
604.435 21.568 -0.473994
77.548 20.9199 -0.485998
734.484 49.4539 -0.417723
796.652 2.4008 0.513653
694.793 42.2436 0.480207
730.462 2.49667 0.359062
575.363 27.3508 0.417937
615.01 45.5587 0.440502
534.955 18.3394 -0.401344
837.622 2.99171 0.348539
232.222 24.5715 0.11242
132.241 35.0493 -0.197395
256.855 6.49087 0.393595
97.6669 4.44992 0.266524
66.5936 10.0212 0.20266
286.702 35.8877 -0.327937
17.6006 25.2324 0.353059
581.376 19.1679 -0.414084
634.884 40.2274 0.236988
483.333 21.0922 -0.373799
839.281 66.1562 0.365919
424.101 8.54729 -0.102185
454.892 36.1496 -0.0609767
561.177 3.46907 -0.181858
23.8128 23.6559 0.377542
604.638 4.48824 0.421603
571.358 4.30764 -0.291551
214.298 11.3659 0.473411
443.588 16.2142 -0.198141
324.136 6.32658 0.335966
404.749 18.8234 -0.332175
774.296 47.44 0.108806
199.416 25.923 0.447676
812.542 6.42577 -0.36197
774.458 43.318 0.391809
399.841 10.2351 -0.160731
750.037 2.50053 -0.475163
635.061 26.0154 -0.422206
776.086 19.6278 -0.396974
450.102 42.7839 -0.301625
519.774 12.6051 0.440526
486.301 44.2188 0.218878
465.604 8.61317 0.126635
698.273 42.594 0.330567
696.65 37.1906 -0.307616
199.744 38.8921 0.347013
824.438 11.8995 -0.144517
617.312 46.0747 -0.246576
11.6765 17.2201 0.226038
425.703 24.9626 0.331874
194.9 23.0701 -0.404591
96.522 39.6892 0.211678
813.55 30.3965 -0.457267
691.852 46.2684 -0.248627
332.743 25.4282 0.349306
557.897 10.2712 0.313066
85.2508 44.486 0.171222
258.03 25.8536 -0.454514
584.425 23.7752 0.373111
509.902 18.4537 -0.403625
273.777 0.890589 -0.343448
580.505 40.3931 -0.370021
559.414 40.7996 -0.473866
504.548 33.2724 -0.356955
522.757 0.894731 -0.571003
738.38 22.9367 -0.386559
186.883 12.0836 -0.16685
524.393 37.3951 0.4532
592.89 40.0363 0.128744
75.8499 0.939872 0.275593
262.339 4.72563 0.175478
835.712 19.4078 0.207898
825.655 14.4695 -0.570333
841.564 22.6972 -0.490445
316.484 8.60492 -0.227799
782.218 27.8191 -0.441428
425.606 41.32 -0.309198
469.97 0.817799 -0.397672
684.214 37.5431 -0.553575
28.0856 30.9223 -0.293813
345.237 41.1636 -0.547295
263.211 2.86139 0.327431
825.145 59.1574 0.19797
753.525 54.5087 0.237491
299.734 10.9286 0.223279
703.086 31.3966 -0.0946265
585.945 2.57117 0.264342
569.05 6.37883 0.421591
100.801 18.4124 -0.504958
316.364 1.03784 -0.225519
358.484 2.27079 -0.360689
14.2737 7.65189 0.402016
4.53793 31.2359 0.269097
168.693 18.727 0.416011
71.0548 41.6311 0.221936
69.3234 28.8027 -0.327892
443.321 14.3505 -0.43716
383.931 34.977 -0.482277
805.302 44.4287 0.130606
20.0431 4.04092 -0.266472
73.4738 6.86766 0.126204
658.65 37.594 -0.152949
307.545 0.919736 0.359722
381.365 15.8952 -0.133816
245.835 4.60841 -0.40183
688.422 22.3929 -0.190801
473.195 8.39455 0.409426
782.575 26.0966 -0.383545
664.727 28.0325 -0.314211
706.91 19.8445 -0.119128
440.147 26.9374 0.520049
106.302 44.8055 0.31772
569.713 42.3406 -0.0804039
774.173 13.9831 0.356998
248.152 30.1716 -0.246216
33.1535 17.2614 0.179083
351.54 13.707 0.499183
111.993 40.5696 0.468896
279.49 42.2779 -0.217382
445.58 1.13011 -0.234662
824.476 44.4156 -0.381161
723.044 0.701335 -0.546789
347.18 3.22314 0.527017
313.467 26.6056 -0.162866
485.068 41.0126 0.220308
85.0932 8.02437 0.323208
206.374 45.0353 0.377038
812.402 37.9669 0.34888
519.373 39.6639 -0.0991865
208.804 41.1047 -0.262811
167.869 42.2432 0.303904
839.691 41.4909 -0.469323
838.633 17.3063 -0.594854
638.479 3.47751 -0.485175
198.433 24.4676 -0.114783
577.203 28.1324 0.100287
579.159 27.6404 0.266891
428.768 5.59236 -0.140966
505.54 0.923468 -0.290383
802.729 46.0534 -0.526412
88.518 31.0898 -0.21749
694.011 19.2963 0.400347
286.685 15.4111 -0.360408
9.79821 2.39108 -0.332248
130.775 36.6881 -0.197297
69.7221 23.0624 -0.492223
743.774 41.9551 0.30948
825.272 67.3869 -0.214819
193.701 28.342 0.179132
833.341 15.3979 -0.459142
46.9305 36.4654 -0.271385
94.6842 29.1447 0.156982
669.472 12.9417 0.407842
433.807 17.4403 -0.569298
545.024 16.7943 0.117496
248.844 28.2608 0.183666
655.325 4.42641 -0.405171
842.145 18.0138 0.516275
30.9741 31.8606 -0.284008
282.335 7.69236 0.191023
232.027 15.1026 0.254888
1.07633 35.8079 0.151807
235.393 14.5522 -0.373089
221.081 10.9572 0.141284
223.925 26.2411 -0.269034
138.862 27.8834 0.124421
575.733 14.8819 -0.372368
174.462 14.1533 -0.353075
819.42 57.9463 -0.331595
181.738 3.80347 0.508055
49.291 37.4655 -0.398494
779.989 55.0523 -0.425557
293.9 31.7138 -0.393607
716.071 25.7242 0.452899
821.381 38.0267 -0.436308
314.508 9.22312 -0.105877
773.203 35.1598 0.404381
344.013 2.59079 -0.381532
436.227 23.6389 0.37202
712.748 16.98 -0.556731
110.457 11.9128 0.430272
507.29 3.76485 -0.528042
784.759 22.5717 -0.215278
92.2654 7.89276 0.220985
294.612 14.5779 0.212176
444.185 11.5895 -0.205484
836.054 3.65769 0.538318
417.106 1.94169 -0.528618
184.596 38.8563 -0.279319
776.923 10.1107 -0.383367
134.069 36.1968 -0.167229
275.212 31.3185 -0.387288
419.99 21.5464 0.204498
604.577 13.9092 -0.365973
405.845 9.80316 -0.480256
479.415 27.6311 -0.407892
808.872 56.4445 -0.447278
49.404 10.938 -0.112889
313.013 38.0568 -0.262877
397.955 27.01 -0.345514
429.846 20.6856 0.243203
548.067 44.8849 0.356304
795.961 42.9622 0.238597
700.61 37.4679 0.351159
235.97 34.2086 -0.379113
14.3661 31.9346 -0.159421
695.117 38.4166 0.128055
535.158 42.2128 -0.332444
240.13 39.076 0.107509
724.335 33.5238 -0.115551
157.855 9.2744 0.207096
384.128 20.7753 0.291386
486.836 42.1137 -0.105715
434.007 19.1056 0.19917
804.477 57.3435 0.326851
447.13 3.43826 0.437162
51.7369 25.3234 -0.328654
493.767 31.8304 0.339263
456.626 42.1747 0.371562
825.255 52.5359 0.239658
770.818 31.0131 -0.242986
569.728 18.7796 -0.152487
816.626 50.247 -0.452275
307.066 2.21259 -0.46047
396.881 29.2417 0.510349
30.344 38.9648 -0.30364
776.183 35.1321 -0.219424
643.257 19.798 -0.457321
486.396 0.778594 -0.473262
131.713 4.547 0.274198
447.875 40.2196 0.100222
12.24 0.914509 0.316657
835.723 6.24613 -0.126325
388.298 39.0294 0.400546
[...]
POINT_DATA 13483
TENSORS Strain_matrix float
-0.181389 -0.0494369 0.00629137 
-0.125994 0.0808305 0.165496 
6.02882e-18 -2.05634e-17 1 

-0.426275 -0.254808 -18.6965 
0.13293 0.682239 31.2868 
1.24488e-18 5.60863e-18 1 

-0.0916167 -0.0102469 0.505948 
0.006853 -0.0641063 0.82029 
5.18798e-18 -1.4966e-18 1 

-1.26222 -0.680192 -3.09447 
0.319767 0.51074 1.08186 
-1.33511e-17 1.66856e-17 1 

-0.223643 0.0226128 -0.128789 
0.0100152 0.0254541 -0.381158 
-5.42744e-18 -1.57889e-17 1 

-0.0550192 -0.010401 -0.0182148 
0.0105769 -0.0647573 -0.00681089 
7.61795e-19 -7.16984e-18 1 

-0.0690769 -0.0274483 0.034864 
-0.00904332 -0.0955086 -0.000912529 
4.33463e-19 2.13842e-18 1 

-0.0982122 0.0180906 -0.072634 
0.0259402 -0.0539783 -0.0369037 
-1.40167e-17 -1.80413e-18 1 

-0.178863 0.0117522 0.304733 
-0.0267878 0.0768227 0.827322 
5.51349e-18 -3.08406e-18 1 

-0.309375 0.220797 5.30517 
-0.133652 0.00747939 1.4956 
-3.6108e-18 8.0187e-18 1 

-0.0524313 0.00881663 -0.00896665 
-0.0177247 -0.0617872 -0.0220819 
1.69234e-18 -7.70953e-18 1 

-0.0903542 -0.0479946 0.206696 
-0.0633619 -0.0926812 0.0501084 
2.14313e-18 3.32983e-18 1 

-0.202791 0.00515261 -0.0845825 
0.173201 0.0616943 -0.49751 
8.71689e-18 7.61476e-18 1 

-0.142133 -0.0309748 -0.271093 
0.0436511 -0.0426425 0.171399 
-9.50073e-18 4.04015e-18 1 

-0.112758 -0.000239201 0.157215 
0.0123238 -0.0500449 -0.281303 
1.45639e-18 2.80751e-18 1 

-0.0588611 -0.0118317 -0.401393 
-0.0650178 -0.0203454 -0.385105 
-7.23714e-18 2.12142e-18 1 

-0.0487113 -0.0150452 0.0788758 
0.00230368 -0.0980196 -0.00278856 
3.07659e-18 -3.13938e-19 1 

-0.149808 -0.0177554 -0.00461457 
0.0271328 -0.0683168 -0.0399937 
-6.95159e-18 9.93783e-18 1 

-0.122743 -0.00268048 -0.112266 
-0.0254765 -0.0578939 -0.0532941 
-1.5837e-18 -1.51105e-17 1 

-0.104443 0.0233322 0.187105 
-0.0784076 -0.0707971 0.408783 
-1.14887e-17 -8.62516e-21 1 

-0.057248 -0.047936 0.0897771 
0.120788 -0.0385322 0.0164953 
-4.37638e-18 -4.20989e-18 1 

-0.114956 -0.0914728 0.291915 
0.0148545 -0.0366733 -0.132743 
1.18171e-17 5.62721e-18 1 

-0.876538 0.0327509 -7.21276 
0.0379529 0.343539 -0.812734 
6.32764e-18 -6.06739e-18 1 

-0.138734 -0.0798121 1.27155 
-0.0722571 -0.00481839 0.432051 
-1.14376e-17 -6.61239e-18 1 

-0.0518944 -0.0369335 -0.196883 
0.102294 -0.0433671 -0.0835057 
-4.82993e-18 2.39359e-18 1 

-0.0665969 0.0467455 0.0437981 
-0.0735436 -0.003827 0.094779 
-1.10901e-17 -9.57033e-18 1 

-0.103891 -0.0213362 0.374422 
0.0496674 0.0127658 -6.1625 
4.32947e-18 -1.0359e-17 1 

-0.178747 0.0882556 -0.136694 
-0.248436 0.0652283 0.726024 
-3.02903e-18 -8.6211e-18 1 

-0.0935997 0.0236877 1.26227 
0.0128572 -0.0781873 -0.252117 
3.34108e-18 -4.54631e-18 1 

-0.413696 0.0156486 1.9993 
0.0700817 0.0421734 1.65595 
-1.59403e-17 8.19202e-19 1 

-0.0845899 -0.00119727 -0.245746 
0.0274164 -0.139676 0.279946 
-2.16047e-18 5.83327e-18 1 

-0.0956909 0.154014 -0.387533 
-0.115767 -0.0385799 0.332375 
2.28696e-17 -5.83409e-18 1 

0.0706543 -0.803121 0.238513 
0.474111 0.0894652 0.350548 
-7.94219e-20 -1.4286e-17 1 

-0.151665 0.108102 -0.800046 
-0.0233593 0.0434853 -0.174184 
3.1477e-18 8.46966e-17 1 

-0.0691065 -0.03542 -0.0963597 
-0.0329719 -0.118841 -0.353661 
-1.15751e-18 1.13546e-17 1 

-0.335718 -0.0270483 -0.706456 
-0.196977 0.106106 -0.981245 
-1.03801e-17 -7.46219e-18 1 

-0.0953285 -0.00168342 -0.378999 
0.0178519 -0.0381235 -0.70237 
5.39866e-18 -3.56829e-18 1 

-0.104304 0.0462812 0.135789 
-0.128545 0.00524527 -0.0157432 
7.90373e-18 -2.44522e-18 1 

-0.0582332 -0.104939 0.0242834 
0.0279974 -0.0165233 0.163508 
-5.55888e-18 1.75645e-18 1 

-0.0798133 -0.0243458 0.338951 
0.00816314 -0.0266296 2.66885 
3.21894e-18 -8.89009e-18 1 

-0.087247 0.0233186 -0.0624678 
-0.0268823 -0.0810928 -0.167061 
-3.98964e-18 -6.12234e-18 1 

-0.0515366 -0.0589505 -0.0614153 
-0.0407284 -0.0200654 -0.119193 
-1.45882e-18 6.50803e-18 1 

-0.616797 -0.0901308 0.256376 
-0.206698 0.425192 0.287763 
-6.26259e-18 9.86832e-18 1 

-0.0690546 -0.0167847 0.525752 
-0.00856908 -0.0846907 -0.120814 
2.91213e-18 -3.87549e-18 1 

-0.0738043 0.0307786 -0.0159695 
-0.0341367 -0.102673 0.153441 
3.70337e-18 -2.92869e-18 1 

-0.0649096 -0.000633077 0.00598104 
-0.0152877 -0.0621259 -0.0427224 
5.48514e-19 1.84805e-18 1 

-0.195876 0.129747 -0.211606 
-0.0460236 -0.00371618 -0.522347 
-1.73249e-18 4.4756e-18 1 

-0.062034 0.010879 0.0472982 
-0.0285059 -0.107425 -0.00615476 
-2.38735e-18 -3.26963e-18 1 

-0.148785 0.07326 -0.290466 
-0.112067 0.0210016 -0.36602 
-6.98485e-19 1.01897e-17 1 

-0.191754 0.0196157 -1.94983 
-0.00474159 0.0778115 -0.311904 
-4.17141e-18 4.32007e-18 1 

-0.0936776 -0.0733125 0.106399 
0.0222815 -0.0223664 -0.25969 
-1.12942e-17 5.80255e-18 1 

-0.0629366 -0.27689 -0.0218466 
0.28482 -0.0157018 -0.321253 
2.9391e-18 3.50191e-18 1 

-0.0969694 -0.00612241 -0.0680503 
-0.00568168 -0.00165263 0.109184 
-2.42448e-18 -9.62825e-18 1 

-0.122374 0.0379121 0.0938112 
-0.0197758 -0.0405312 -0.00867124 
-4.51514e-18 7.6676e-18 1 

-0.113632 -0.00756143 -0.98422 
-0.0206366 -0.0705617 -2.13222 
-1.99258e-19 -3.20857e-18 1 

-0.193265 -0.0220989 -1.55798 
0.0358555 0.0203338 2.53227 
4.37707e-18 -5.71172e-18 1 

-0.195562 0.137203 0.0944716 
0.167354 0.185119 0.136866 
-9.46976e-18 1.8172e-17 1 

-0.0851377 -0.0162188 -0.161455 
-0.00560828 -0.103881 0.00144833 
-7.60247e-18 2.39928e-17 1 

-0.0411574 0.016523 -0.010906 
-0.0077139 -0.138921 0.0255091 
9.03633e-18 7.9598e-18 1 

-0.0829235 0.0108983 -0.164674 
-0.0717096 -0.0534837 -0.0464987 
-3.52596e-18 -3.0023e-18 1 

-0.102499 0.398542 -0.0408097 
0.0826498 0.117071 -0.327673 
-2.00556e-18 -1.67907e-18 1 

-0.074559 -0.116641 -0.260033 
0.0673459 -0.00978883 -0.0819671 
-8.71774e-18 4.81482e-18 1 

-0.0910256 -0.0829577 -0.254399 
-0.00674299 -0.0477756 -0.0841605 
1.06398e-17 1.40987e-17 1 

-0.382947 0.104478 -1.96411 
0.240372 0.133195 -1.38843 
1.69373e-19 -6.17984e-18 1 

-0.121657 -0.0200288 -0.0537652 
-0.000810559 0.0238116 0.150271 
-8.91825e-18 3.10815e-18 1 

-0.178665 0.0286424 -0.120473 
-0.00288302 -0.0181117 0.196904 
-5.0762e-19 9.77168e-18 1 

-0.16167 0.165828 -0.26959 
-0.159754 -0.0866105 0.0434404 
5.57381e-18 -1.63613e-18 1 

-0.103899 0.0711872 -0.306439 
-0.00102119 0.0353697 0.27047 
5.12542e-19 -9.77033e-18 1 

-0.103213 0.00442132 -0.952839 
-0.040528 -0.0956435 1.07337 
4.0082e-18 -9.85754e-18 1 

-0.173509 0.0541349 0.0359277 
-0.124525 -0.0608452 -0.275656 
4.60413e-18 6.33068e-18 1 

-0.522263 0.194547 0.166645 
0.152056 0.0772249 0.318774 
-1.16496e-18 -1.11365e-17 1 

-0.0730946 0.0137701 -0.114227 
-0.0122044 -0.0807457 0.17471 
-7.1983e-18 6.53701e-18 1 

-0.152954 0.0482999 0.427122 
-0.0782685 0.0811044 0.605341 
5.88412e-18 2.81321e-18 1 

-0.0825042 -0.0225322 0.159224 
-0.038168 -0.0615936 -0.324714 
1.65795e-18 -9.21085e-19 1 

-0.0865341 -0.0124138 -0.385361 
-0.0061543 -0.05339 0.246249 
-2.96538e-18 -4.37507e-18 1 

-0.0521103 0.00377909 0.117772 
-0.0322158 -0.0629135 -0.0872476 
-1.56611e-17 4.51762e-18 1 

-0.378202 -0.518211 0.0147188 
0.249086 0.236368 -0.071524 
1.096e-18 -2.71762e-18 1 

-0.0959252 0.0980355 -0.181275 
-0.0795211 -0.0264853 -0.0645329 
-4.15212e-18 1.09227e-17 1 

-0.285196 -0.0106223 0.341731 
0.108564 0.0476537 -0.226353 
2.35577e-18 7.66624e-18 1 

-0.122279 0.0816349 0.341455 
-0.040488 -0.0241428 -0.195238 
-1.17995e-17 1.04811e-17 1 

-0.567573 -0.440784 0.633845 
0.247977 0.080697 -0.413478 
5.87006e-18 -3.91337e-19 1 

-0.042605 -0.0830892 0.0892814 
0.0902274 -0.00640276 -0.0279452 
-8.39064e-19 -7.0761e-18 1 

-0.0687425 0.00209987 0.0638049 
0.00942573 -0.0156164 -0.0451625 
-5.96131e-18 -4.6841e-19 1 

-0.17504 -0.0385379 -0.531448 
-0.00796221 0.00477412 -0.0601826 
-2.68674e-18 -1.35434e-17 1 

-0.154949 -0.128385 -0.193804 
0.0942499 0.011527 -0.26902 
2.86561e-18 -4.14797e-18 1 

-0.72952 0.584697 0.961839 
-0.274777 0.388974 0.518805 
-2.34955e-18 1.98635e-17 1 

-0.508477 3.55517 5.61704 
0.0092573 0.370739 -1.80447 
-5.87354e-18 -3.03377e-17 1 

-0.0974594 0.00300926 0.206265 
0.0799363 -0.0889301 -0.264979 
-9.20859e-18 6.12416e-18 1 

-0.143795 -0.00536254 -0.153748 
0.00958798 -0.0701577 -0.0376313 
8.29451e-18 6.22088e-18 1 

-0.103421 0.0224924 0.950658 
-0.004292 -0.0769339 -2.49717 
2.04183e-18 -5.43201e-18 1 

-0.0815131 -0.0530941 0.0693973 
0.0484409 -0.0406501 -0.0907769 
1.85226e-17 0 1 

-0.200764 0.124176 0.0712549 
0.021352 -0.0138491 0.306131 
5.10441e-18 2.24487e-18 1 

-1.89705 0.35982 -12.9067 
-0.0885462 0.388461 7.93915 
-6.49055e-18 -6.61782e-18 1 

-0.137768 -0.000206441 -0.0371425 
-0.0833657 -0.015782 -0.0397191 
8.33755e-18 -4.11793e-18 1 

-0.0889992 0.0281549 0.219586 
-0.00690727 -0.00998741 -0.0388629 
-3.53568e-18 1.07249e-17 1 

-0.134191 0.0734941 -0.164058 
0.00271307 -0.0466439 0.0343348 
-3.79011e-18 -2.61026e-18 1 

-0.0944107 0.041043 -0.0824461 
-0.0446946 -0.0542997 -0.118233 
6.79859e-19 3.19934e-19 1 

-0.229053 -0.0206601 -0.222622 
0.0743556 0.0299921 0.0723123 
-9.4363e-18 1.19315e-17 1 

-0.717275 1.22444 -0.00572513 
0.106607 0.393292 -0.236322 
9.29739e-18 -1.36399e-18 1 

-0.0642947 0.0467323 -0.380293 
-0.0862086 0.00879477 -8.84728e-05 
-1.19111e-17 -3.75222e-18 1 

-0.0752169 -0.0366155 -0.553406 
0.0256766 -0.0283042 -1.33368 
-1.23654e-18 6.31035e-18 1 

-0.11801 -0.0477958 -0.440843 
0.0309625 -0.0308053 0.150335 
-2.85238e-18 1.77455e-18 1 

-0.102413 -0.0139253 -0.493496 
0.0107334 -0.0317179 0.505922 
-2.01727e-18 -3.89541e-19 1 

-0.128103 0.00995471 0.0247119 
0.010542 -0.033662 0.18661 
-8.62686e-19 -3.10028e-18 1 

-0.0936123 -0.0215354 0.0292133 
0.0154314 -0.0707369 0.253852 
8.1872e-18 1.00515e-18 1 

-0.119256 0.024614 0.169007 
-0.0306334 -0.0598014 0.00978783 
-4.5151e-18 1.18521e-18 1 

-0.780072 0.0822934 0.326634 
0.306814 0.141012 -0.386886 
-1.25218e-17 -1.60313e-17 1 

-0.108579 0.0127103 -0.473806 
-0.0340901 -0.0281349 -0.5807 
-4.51989e-18 -6.74024e-18 1 

-0.115677 0.0392619 0.0921512 
0.0228064 -0.10118 -0.0267447 
-1.14108e-17 9.20226e-18 1 

-0.154207 -0.0153122 0.0936149 
0.0615581 -0.0719935 -0.419127 
1.27021e-18 -2.82515e-19 1 

-0.106304 0.0567707 -0.151166 
0.0356049 -0.0743063 -0.458085 
-4.09115e-18 -9.14889e-18 1 

-0.106157 0.0295494 -0.499614 
0.0101441 -0.0118289 -1.86254 
2.13961e-18 -2.81485e-18 1 

-0.0639403 0.0412062 -0.0223187 
-0.00671336 -0.127383 0.0325466 
3.94784e-18 -1.84792e-18 1 

-0.172947 -0.0520896 -0.313692 
0.0979356 -0.00336896 -0.069589 
5.32664e-18 -1.23302e-17 1 

-0.192517 -0.0931359 0.125921 
0.022052 0.101951 -0.138812 
1.528e-17 2.60454e-19 1 

-0.0924889 -0.00322722 -0.50282 
-0.00244222 -0.00777296 0.0985455 
1.7741e-18 -2.89552e-18 1 

-0.132012 -0.0423078 -0.274358 
0.0200145 -0.00836417 -0.098876 
9.04806e-18 5.91188e-18 1 

-0.0719476 0.0307041 -0.0392751 
0.0560074 -0.0543944 -0.0790008 
2.40975e-18 -1.23024e-17 1 

-0.166639 0.0224717 0.0189018 
0.0655645 -0.0495585 -0.09619 
-4.15382e-18 1.05278e-17 1 

-0.08026 -0.00154669 -0.195612 
-0.0183838 -0.0177053 -0.0980264 
9.7446e-18 -4.24853e-18 1 

-0.467125 -0.0646778 0.350867 
0.106271 0.0166177 -1.45489 
7.98212e-18 7.71e-18 1 

-0.258102 0.259679 0.466309 
-0.151744 0.00343314 -0.0379931 
-6.52479e-18 -4.65229e-18 1 

-0.0769467 0.0362275 0.025867 
-0.0280698 0.00565912 -0.0296053 
-8.67365e-19 2.49368e-18 1 

-0.0369497 -0.0546907 0.026183 
0.0366686 -0.0713679 0.0220231 
-1.18258e-17 -1.30672e-19 1 

-0.0812098 -0.00121368 0.355142 
-0.0150539 -0.0691622 1.98667 
-3.78087e-18 -1.05335e-17 1 

-0.0863449 0.0392721 -0.210457 
-0.0208469 -0.126438 -0.0426484 
-1.41452e-18 6.91188e-18 1 

-0.137296 -0.0534948 -0.183684 
-0.0385373 -0.0276374 0.0356844 
-1.12767e-17 -7.14712e-18 1 

-0.178971 0.024672 0.32988 
-0.0670037 0.0534561 0.517239 
5.44149e-18 3.8292e-18 1 

-0.0765641 -0.0492015 0.094372 
0.0241383 -0.0257228 -0.166264 
4.84483e-18 -1.68006e-18 1 

-0.0830713 0.00502983 -0.908658 
0.00499195 -0.0442104 -0.233992 
8.13349e-19 -5.12981e-18 1 

-0.0783511 -0.216997 0.245237 
0.223134 0.0564754 -0.0407443 
-3.0375e-18 -3.70427e-19 1 

-0.293067 0.285387 0.038748 
-0.167707 0.131479 0.213325 
2.78291e-18 6.46352e-18 1 

-0.103713 0.0201929 -0.306147 
0.0388756 0.0153355 1.05614 
-1.00777e-20 -1.49687e-18 1 

-0.830481 -0.316 0.11258 
-0.112618 0.228574 -0.260271 
-1.10459e-17 3.881e-18 1 

-0.14555 0.0121957 0.327978 
-0.114129 0.0597947 0.00587072 
-1.79057e-18 8.84092e-18 1 

-0.181781 0.0734633 0.568017 
-0.051184 0.0765941 0.386018 
1.36345e-17 -1.3476e-18 1 

-0.207318 0.163226 0.225104 
-0.0957653 0.0361443 0.390073 
4.28482e-20 -2.03386e-17 1 

-0.0976416 -0.0557754 0.189278 
0.0450089 -0.0597796 -0.141959 
6.35843e-18 6.54544e-19 1 

-0.112412 -0.041825 -0.0529752 
0.0167225 -0.0638805 0.153334 
8.12326e-18 1.235e-17 1 

-0.0617763 -0.0172374 0.0263653 
-0.0121973 -0.0807409 -0.0470764 
-7.67692e-18 -2.65305e-18 1 

-0.167191 -0.00309595 0.0643803 
0.00292354 -0.0221306 -0.207197 
-4.6054e-19 -5.37297e-18 1 

-0.0766989 -0.0216314 -0.034923 
0.0302402 -0.0108135 -0.0707181 
-1.07962e-18 7.15246e-18 1 

-0.0820178 -0.0669925 0.109576 
0.0289866 -0.0341136 -0.0846224 
1.3673e-17 -9.19508e-18 1 

-0.0579967 -0.0494026 -0.167761 
0.0493475 -0.0222955 0.114365 
4.11715e-18 -1.04562e-18 1 

-0.0431827 -0.0120939 -0.0682634 
0.0123412 -0.0364408 -0.100888 
7.6223e-18 3.06644e-18 1 

0.106869 -0.858449 -0.735872 
0.381957 0.309999 0.54004 
4.02776e-18 -1.87962e-17 1 

-0.840311 -0.184234 0.317175 
0.0581966 0.30698 -0.190875 
-3.05991e-18 -9.91927e-18 1 

-0.0971815 0.0241362 0.0250456 
-0.00055633 -0.0907581 -0.157027 
2.01239e-18 1.60991e-18 1 

-0.0686349 0.0102887 0.313278 
-0.00768401 -0.0370778 -0.316528 
6.87572e-18 -3.34494e-18 1 

-0.0762442 0.0479733 0.14521 
-0.036403 -0.00834341 0.167174 
-6.00548e-18 -2.17059e-18 1 

-0.0851555 -0.0210101 -0.133334 
0.00988937 -0.0199135 0.225154 
-4.12037e-18 6.33903e-19 1 

-0.20604 0.0230757 0.159038 
0.038276 0.0291243 -0.179647 
-4.8213e-18 1.12341e-18 1 

-0.113447 -0.0694867 -0.243939 
0.0188961 -0.0415845 0.317047 
-9.17332e-18 1.26127e-18 1 

-0.0985827 0.00699854 -0.0241966 
0.0102237 -0.0270353 -0.338151 
3.42754e-18 -7.98314e-18 1 

-0.0824273 -0.00133725 0.130221 
-0.0103162 -0.0678879 0.130457 
-1.27073e-19 1.27073e-18 1 

-0.178041 -0.00154989 -0.208077 
0.0216469 0.0410233 0.593599 
-1.05895e-17 4.7286e-18 1 

-0.207665 -0.121668 0.0185974 
0.168839 0.129603 -0.566062 
6.72773e-19 1.65372e-17 1 

-0.0854079 -0.015158 -2.18085 
0.00434978 -0.0251933 -0.432229 
-6.08798e-18 5.10008e-18 1 

-0.243376 -0.0322487 -1.58345 
0.0524084 0.391673 -4.47082 
-9.20569e-19 1.17917e-17 1 

-2.02082 -0.585414 -4.31102 
0.438912 0.839118 -0.84721 
2.03804e-18 1.63279e-17 1 

-0.222075 -0.0108359 -1.51347 
0.0679543 0.0720661 -2.80205 
-1.03348e-17 5.07121e-18 1 

-0.20272 -0.0992465 -0.393402 
0.202827 -0.0228305 1.96655 
4.4374e-18 1.69665e-18 1 

-0.250965 -0.122824 1.06039 
-0.0669238 0.053179 -1.00194 
5.1259e-18 2.03571e-17 1 

-0.135571 -0.0079846 2.17076 
0.0311076 -0.0278319 -0.762265 
1.23014e-18 3.22048e-18 1 

-0.245564 -0.00455524 0.278656 
-0.0808506 -0.0262018 0.624093 
-3.23313e-18 -7.35998e-19 1 

-0.852721 -0.124623 -1.21796 
-0.327858 0.0558272 0.425267 
-6.34223e-18 -7.92779e-18 1 

-0.054567 0.0325824 -0.0458598 
-0.00187036 -0.0666481 0.0207496 
-3.2458e-18 -8.73869e-19 1 

-0.0900446 -0.00297816 -0.031205 
0.012133 -0.0340493 -0.0761968 
-2.26442e-18 -9.82599e-18 1 

-0.070511 -0.0502878 0.0600128 
0.00662956 -0.107827 0.144439 
-6.16581e-18 1.01893e-18 1 

-0.158271 -0.00393781 0.213607 
-0.0121791 -0.00393406 -0.254048 
-1.33065e-17 5.13961e-18 1 

-0.0624339 0.00986812 0.0032635 
-0.0153099 -0.0611736 0.0108453 
-2.05658e-18 -5.12205e-18 1 

-0.0587269 -0.0363573 -0.162278 
0.0444109 -0.0451488 -0.593185 
-4.13141e-18 2.59472e-18 1 

-0.130849 0.0615066 -0.258356 
-0.0621457 -0.00455327 0.509107 
-7.66664e-18 -4.98332e-18 1 

-0.157342 -0.05668 -0.191655 
-0.0376652 0.0233708 0.587075 
-1.1696e-17 9.02524e-18 1 

-0.119155 0.00743226 -0.0406035 
-0.0928849 -0.0234083 -0.0258383 
-7.26472e-18 5.36205e-18 1 

-0.102965 -0.00214413 0.113282 
-0.0232121 -0.0647382 0.21533 
-8.44563e-18 8.17319e-19 1 

0.0846185 -0.684622 0.0575134 
0.6944 0.359801 0.867264 
-5.72292e-18 2.89256e-18 1 

-0.100163 -0.0103104 0.039684 
-0.0204963 -0.0463582 -0.166693 
4.38137e-18 5.38543e-18 1 

-0.0884816 -0.00100644 -0.0821283 
-0.0548375 -0.0185306 -0.449569 
-1.26015e-17 -2.91262e-18 1 

-0.146587 0.0591049 -0.0582678 
-0.0224991 -0.068638 -0.0466622 
3.14949e-18 8.78929e-19 1 

-0.100794 0.0192132 -0.826354 
-0.0519366 0.0618765 0.505872 
1.84599e-18 -4.58252e-18 1 

-0.224401 0.112426 -0.161642 
-0.151326 -0.0305578 -0.225431 
-4.80873e-18 1.40922e-17 1 

-0.0603859 -0.0164202 -0.0335274 
-0.0356424 -0.0673498 0.0808914 
-1.01355e-18 -4.28894e-18 1 

-0.0839712 -0.00646017 0.0866604 
0.0103525 -0.0458537 -0.128653 
-4.53562e-19 5.50127e-18 1 

-0.172526 -0.0860906 0.101263 
0.158513 0.0352344 -0.331312 
6.3084e-18 3.3496e-18 1 

-0.117588 -0.0101088 0.113308 
-0.0607349 -0.0492928 0.133456 
7.45757e-18 -3.14003e-18 1 

-0.109241 -0.0267884 0.619985 
-0.0205052 -0.0654134 -0.245354 
-9.33383e-18 3.40737e-18 1 

-0.157883 -0.374727 -0.039489 
0.36946 0.161354 -0.167899 
-9.00882e-18 4.50441e-18 1 

-0.125385 0.0234168 0.0382139 
-0.0670068 0.00767581 -1.35243 
-2.27869e-18 -3.22296e-18 1 

-0.348618 0.0768566 0.830793 
-0.107482 0.00437974 -0.893772 
-7.82805e-18 4.22811e-18 1 

-0.0790801 -0.299563 -0.164228 
0.347126 0.0539967 0.374372 
-9.38587e-18 4.20031e-18 1 

-0.106782 -0.0769796 -0.0884538 
0.063075 -0.0580254 -0.0883085 
8.12378e-19 4.75426e-19 1 

-0.712342 -0.711708 0.645991 
0.205931 0.319336 -0.253707 
1.65947e-18 -2.24029e-17 1 

-0.199954 -0.0139338 0.57402 
-0.0751557 0.110371 0.883251 
2.60717e-18 -7.64915e-19 1 

-0.462602 -0.403403 0.994165 
0.24751 0.223143 0.685996 
-1.39304e-17 -1.91663e-17 1 

-0.104797 0.0124506 0.104361 
-0.00611305 0.0254913 -0.24498 
5.00264e-19 -3.24436e-18 1 

-0.170055 0.0809157 -0.502587 
-0.078519 -0.0277587 -0.0763934 
-2.10335e-18 -3.18482e-18 1 

-0.0978277 0.0908293 0.0467253 
-0.00309233 0.0153122 -0.168421 
5.20303e-18 2.36501e-17 1 

-0.0918827 -0.0498405 -0.0823609 
-0.0481643 -0.0661886 0.293487 
-3.75832e-18 2.28354e-18 1 

-0.25227 0.00617384 -0.666753 
0.0661369 0.193634 -0.578783 
-1.24121e-17 -4.98414e-18 1 

-0.506421 -0.112133 0.281162 
0.00908055 0.235262 0.305167 
-1.99882e-17 -4.07402e-18 1 

-0.093126 -0.00270646 -0.173613 
-0.0517403 0.0021036 0.182017 
-1.26506e-18 -3.95618e-18 1 

-0.276039 -0.405283 0.0459612 
0.22045 0.000464635 -0.408329 
-7.24493e-18 1.99705e-17 1 

-0.175357 -0.190394 -0.00681826 
-0.0288347 0.0299813 -0.0518231 
2.73435e-18 1.34232e-17 1 

-0.150179 0.0345023 -0.040836 
-0.0342603 -0.0592949 -0.0509441 
-2.52972e-18 -1.10234e-17 1 

-0.0638328 0.0213381 -0.27394 
-0.0540073 -0.00769904 0.0655845 
7.55419e-18 3.72536e-18 1 

-0.119077 -0.0145351 -0.096756 
0.00791763 0.0136587 -0.370346 
1.23094e-18 4.66e-18 1 

-0.0599565 0.0131758 0.157625 
-0.00499946 -0.0294765 -0.132761 
3.43823e-18 -3.26521e-18 1 

-1.59502 0.765766 -3.95271 
0.402427 0.616417 -0.821656 
1.14184e-18 7.37005e-18 1 

-0.060014 -0.117439 -0.100013 
0.054882 -0.0334237 0.0636456 
9.59249e-18 -1.35361e-17 1 

-0.0540251 0.0216466 0.271962 
-0.0574367 -0.0330381 0.232816 
-2.45765e-18 -1.06434e-19 1 

-0.122072 -0.021162 0.166568 
0.021939 -0.033572 -0.609321 
-4.96498e-18 -1.05434e-17 1 

-0.0812181 0.0654567 0.0510549 
0.080363 -0.074017 -0.437515 
-5.83203e-18 1.42816e-17 1 

-0.0715987 -0.00359879 0.180601 
-0.00876369 -0.0185516 0.0846708 
-3.68813e-18 4.37089e-18 1 

-0.166616 0.0300865 0.614124 
0.00113683 0.0429734 0.295919 
7.83088e-19 -9.57108e-19 1 

-0.122766 0.00765426 -0.572469 
0.023485 0.00570779 -0.763466 
-5.65593e-18 2.38414e-18 1 

-0.100093 -0.0303549 0.0503443 
-0.00484651 -0.150329 0.0759253 
-3.54115e-18 -9.44308e-18 1 

-0.128734 -0.143871 0.520153 