# vtk DataFile Version 3.0
Output file generated by Yade's KinematicLocalisationAnalyser
ASCII
DATASET UNSTRUCTURED_GRID

POINTS 13483 float
440.808 41.6955 -0.452453
528.164 83.7004 0.453082
106.679 5.96408 -0.452373
556.745 8.44252 0.6704
383.375 9.29339 0.464117
268.627 39.6182 -0.623359
138.751 8.64659 0.474391
431.696 12.3625 -0.24397
380.625 32.9454 0.165795
506.875 19.6506 0.523001
184.433 8.76264 -0.150174
223.579 7.03516 0.392579
459.9 80.2067 -0.146558
471.954 18.4599 0.120135
121.919 19.0563 0.447773
192.714 36.3468 -0.403808
190.786 13.4347 -0.371086
250.711 10.9871 0.539717
287.05 39.4848 0.588841
403.336 8.49233 0.565667
339.686 68.9208 -0.115583
440.659 84.0828 -0.253561
544.453 68.4578 -0.503424
495.67 87.6109 -0.536881
357.704 36.3146 -0.350412
205.924 52.369 0.124996
374.711 42.5698 0.53169
439.671 29.5131 -0.268519
39.8133 16.6364 0.536147
518.675 87.9514 0.373207
369.382 9.30275 -0.568198
15.5779 26.2834 -0.290346
538.363 91.3878 0.286232
379.253 2.86689 0.62072
70.7207 47.2034 0.112087
396.339 39.4897 -0.394246
401.204 23.6575 -0.526566
293.951 26.8434 0.245493
404.724 35.0281 0.356533
293.371 41.7893 0.527214
212.483 16.1287 0.292051
357.543 62.1265 -0.0712668
478.93 36.1506 0.138457
168.418 6.43964 0.392544
48.3147 8.1237 -0.0872863
59.3323 9.48662 0.308342
491.194 23.0575 0.666767
21.1678 13.1226 0.276004
441.429 63.9673 0.470097
476.851 63.6615 0.331445
146.69 37.9212 -0.360367
531.928 71.0935 -0.160048
28.8425 33.3828 0.119369
410.985 4.40511 0.60208
127.701 8.29988 -0.45528
435.233 61.383 -0.450773
379.503 38.8476 0.144253
153.632 0.987942 -0.351658
29.0555 2.42902 0.397035
300.928 19.9323 0.25008
441.889 73.0985 -0.177474
381.442 60.163 0.180487
328.507 1.03791 0.233388
498.655 17.4311 0.558904
21.6645 49.7277 0.23625
222.472 40.8762 -0.354363
508.206 12.3997 0.358077
475.083 93.9953 -0.364673
343.067 12.3615 -0.693337
429.685 4.02916 -0.377976
512.526 58.6591 0.408564
117.21 7.67681 0.287635
382.854 32.7953 -0.123111
369.791 24.6611 -0.224428
256.571 16.7245 -0.418496
18.8909 15.2869 -0.340988
550.391 90.8955 0.30109
281.191 53.5334 -0.314747
477.474 55.0369 0.383292
490.012 35.6493 -0.286031
547.914 14.126 -0.373572
382.776 62.2682 -0.006329
84.3205 40.7436 -0.269245
485.001 75.3496 -0.234331
450.388 81.2751 0.111103
550.545 73.8968 0.111458
542.292 0.748326 -0.588504
251.546 30.4373 0.455894
468.123 5.64116 -0.159642
22.6376 6.77547 0.653463
111.978 51.7828 -0.146569
395.31 15.0588 0.241912
541.932 58.1186 -0.505051
168.478 30.3808 0.26085
38.4028 39.2238 0.288062
377.802 2.53219 0.197975
207.906 10.4018 -0.375377
511.957 68.0163 0.275833
534.945 57.6588 -0.28044
302.497 34.1932 -0.247341
138.022 33.9192 -0.469194
414.96 53.074 -0.5442
320.689 31.5045 0.515156
340.359 54.1558 0.100764
317.81 19.0256 0.422698
416.554 17.8286 0.167107
552.777 27.3212 0.186515
72.3243 41.7618 0.424665
291.114 5.62093 -0.238037
426.27 11.8002 -0.53873
297.669 58.5293 0.486859
22.3249 28.028 -0.46669
27.7699 6.83886 0.579236
426.294 69.4388 0.398753
384.887 31.9229 -0.177258
21.2234 43.4065 0.425872
82.8449 31.5622 -0.239083
283.13 16.5162 -0.427768
451.855 24.9241 0.153378
388.573 73.4619 -0.114858
523.166 17.9899 -0.410509
516.44 12.0984 -0.240685
324.045 57.6578 -0.131843
464.283 38.0146 0.133101
210.904 18.1799 0.581878
288.225 3.8236 -0.31361
93.0674 32.2304 -0.415487
104.982 25.4724 0.260528
412.689 57.7267 0.000426545
267.16 20.0647 0.507235
514.004 89.3024 0.100912
477.547 91.2528 -0.126721
375.346 28.2318 -0.4071
540.113 32.0441 0.320213
349.24 47.3197 0.227782
241.488 29.2451 -0.328669
473.799 77.6507 -0.309735
242.063 33.7128 -0.394936
434.431 20.4171 0.2259
282.569 50.573 -0.223042
389.836 11.7672 0.698316
308.77 46.7383 -0.110196
343.599 35.9245 0.0981584
268.443 55.3891 0.440303
164.918 32.4641 -0.131187
532.337 86.1247 0.153288
551.109 29.8655 -0.457462
5.90643 12.7839 0.453959
346.967 42.7375 -0.454218
33.4068 25.7106 -0.0681686
318.053 48.4039 -0.514124
330.993 47.2053 -0.268817
65.8685 12.3705 -0.521164
45.5199 37.768 0.524034
199.961 15.4798 0.43772
451.107 48.6167 0.48588
437.254 32.007 -0.484597
65.7098 22.7676 -0.531972
495.099 92.2076 -0.405031
527.22 2.23072 0.605225
466.372 96.4367 0.460088
502.614 5.02637 -0.666438
421.046 42.8052 0.404939
440.831 82.4172 0.440377
397.993 17.8253 -0.710721
555.138 7.20164 0.470965
197.627 26.7441 0.123381
114.661 37.7083 0.228385
218.047 8.01939 0.531153
83.6159 4.85207 0.266305
56.1806 11.8734 0.269281
241.29 41.3354 -0.33036
16.6562 28.2218 0.373126
425.915 27.0636 -0.509549
444.547 53.6635 0.27885
365.417 38.6606 -0.353029
552.854 104.813 0.379874
337.909 8.95515 -0.194761
361.708 62.6152 0.518183
415.763 3.53968 0.188204
20.8585 25.5217 0.417864
439.859 3.76547 0.648531
419.705 7.53915 0.43193
182.737 11.2784 0.528042
341.352 39.1131 -0.184344
273.562 6.86715 0.504765
329.424 31.7385 -0.381002
498.528 67.4575 -0.104189
167.697 27.4603 -0.447673
535.622 6.06109 -0.52513
499.379 62.7541 0.384539
324.392 23.8593 0.1852
514.599 2.72577 -0.492639
451.642 34.322 -0.523173
520.642 32.6406 -0.419927
360.717 71.7758 -0.307979
386.24 13.7587 0.519358
379.639 74.5825 0.237842
354.844 19.6184 -0.149446
468.49 93 0.248024
464.891 94.3452 0.302057
169.27 43.9722 0.35321
545.605 12.8341 -0.309656
437.153 69.6 0.268222
10.7008 18.8604 0.267398
337.456 45.541 -0.346022
164.157 26.4685 -0.391044
85.8809 41.7682 0.207576
545.997 54.7185 -0.467801
452.32 97.7752 -0.22112
278.214 28.9116 0.351329
409.889 16.0603 0.508275
75.6526 46.6248 0.184621
220.806 33.455 -0.502224
422.724 38.2716 0.430166
379.917 22.3689 -0.469842
231.406 0.934438 -0.490945
415.346 62.7312 -0.383973
409.394 52.7961 -0.558907
398.622 73.6473 -0.459142
387.846 2.09995 -0.64557
498.551 35.2711 -0.437224
158.636 13.7262 0.2166
384.07 47.4577 0.424206
420.973 74.401 -0.117181
64.8597 0.964296 0.331238
221.57 4.34749 0.222209
549.339 30.7963 -0.280699
546.739 15.7633 -0.50191
554.656 33.0441 -0.583755
266.56 8.68175 -0.288912
516.541 49.3572 -0.520317
339.882 75.738 -0.31195
357.945 2.20344 -0.464499
454.757 86.0673 -0.436848
22.7924 37.3554 -0.433873
281.59 57.3124 0.478684
222.996 2.95254 0.561669
543.395 92.9166 0.17098
513.672 102.025 -0.216721
252.795 12.3248 0.350921
469.199 76.6206 0.0952519
426.819 2.54752 0.380884
417.308 12.0812 0.672308
87.018 19.1562 -0.521704
266.819 1.13751 -0.273999
300.129 2.36769 -0.324374
13.0193 8.33248 0.603554
4.32049 31.8473 0.314654
144.286 20.7878 0.331546
61.8231 46.1114 -0.211155
58.137 33.4696 -0.337324
343.88 26.2105 -0.491972
310.375 50.9801 -0.492539
529.658 71.253 0.126379
18.6861 4.90474 -0.28749
62.0553 7.68736 -0.136281
455.202 59.1379 0.15931
258.621 0.933775 0.488471
308.162 30.1033 -0.0843414
209.3 5.14822 0.477251
464.358 55.39 -0.169
361.049 18.2137 0.545971
516.384 47.6195 -0.435796
462.613 64.3347 -0.29296
478.941 50.9802 0.0924923
348.36 52.993 0.478174
93.5165 48.8774 -0.313109
408.304 63.732 0.0808506
524.292 26.2525 0.30776
211.985 35.4791 0.254502
29.1332 19.9019 -0.22627
294.894 14.9964 0.598727
97.0246 41.8921 0.568237
236.285 50.2246 -0.214073
350.652 3.48901 0.35324
545.226 76.7116 -0.498209
500.322 0.754975 -0.628086
291.544 4.00536 0.567376
263.322 28.0257 0.185774
381.526 71.4609 0.0294385
72.6953 8.78285 0.536233
175.174 48.8502 0.379642
534.427 64.8089 0.362653
414.403 78.1782 0.0647603
175.372 44.1545 -0.277775
140.392 50.5186 0.453574
553.107 68.9645 -0.389902
551.166 27.9871 -0.622394
459.333 4.4368 -0.630048
167.273 25.7405 0.105576
425.015 53.4169 -0.128552
426.54 54.5581 0.338494
342.45 6.94172 -0.173169
374.78 0.747827 0.296298
526.717 71.9839 -0.546138
76.6715 32.5833 -0.288082
468.18 52.0076 -0.510532
241.289 16.5858 -0.453632
9.01694 2.4171 -0.309522
111.491 47.1159 0.202021
59.0359 25.4376 -0.474346
506.767 87.5703 0.336953
540.136 100.761 -0.20518
161.024 31.557 0.196877
548.84 24.5197 -0.477542
39.9471 41.1221 -0.296664
81.6037 29.996 0.153623
480.198 17.5582 0.529569
336.8 25.5891 -0.539696
399.404 23.8346 0.123915
213.15 33.798 0.225992
473.31 5.20953 0.746343
555.399 28.3709 0.426875
25.3634 38.0405 -0.270937
238.134 8.37673 -0.32089
197.869 17.2605 0.358102
1.05123 36.3278 0.15981
200.888 16.4819 -0.426166
188.699 11.2654 0.126572
189.202 28.2856 -0.274414
122.201 30.8773 -0.127647
421.181 23.108 0.518322
149.858 17.0494 -0.42596
538.292 89.5734 -0.310774
156.003 3.63859 0.49931
41.7345 43.326 -0.346546
517.475 81.1704 0.426918
247.461 35.4877 -0.450652
479.451 60.8164 0.471154
540.351 63.4369 -0.57555
264.792 9.33353 0.199292
503.81 54.0307 0.334121
289.466 2.53165 -0.442956
342.04 44.6265 0.361615
482.908 46.6851 -0.650101
95.5744 12.7202 0.559856
374.565 5.20535 0.445482
519.107 41.2769 -0.234566
78.9706 7.76686 0.233248
248.493 16.0333 0.212607
346.503 25.1452 0.287271
555.416 3.28165 0.600379
333.041 1.80745 -0.666456
154.877 43.8724 -0.261449
528.174 23.7987 -0.502867
116.185 39.0576 -0.202393
231.199 38.5505 0.442136
333.424 35.8129 -0.225406
437.055 21.9913 -0.400823
323.375 10.2375 -0.585202
385.087 55.4107 -0.541146
529.361 84.2566 -0.397312
42.6828 12.6762 -0.134381
262.369 40.5917 -0.261007
324.854 47.8079 0.398052
336.033 32.1575 -0.309159
402.485 57.8889 0.406394
520.773 67.0568 0.255951
469.149 85.7534 -0.360015
200.91 36.5766 -0.336089
12.5347 34.7663 0.19596
463.014 95.2738 0.117736
394.324 51.6832 -0.469314
204.361 42.3033 0.0995005
489.695 73.8308 -0.122054
136.277 11.4557 -0.360671
311.421 35.1948 0.272467
381.563 73.6801 -0.155552
336.367 28.2777 -0.205185
524.496 83.7293 0.333492
349.009 9.44663 0.431313
43.5914 29.5819 -0.302304
391.771 67.2682 -0.372271
364.918 68.5822 0.385363
545.102 86.5616 0.265976
507.279 49.4486 -0.25504
416.757 29.7211 -0.170159
537.779 81.3261 -0.456526
258.55 2.16833 -0.539128
322.636 49.194 0.505194
24.269 45.3534 -0.300674
504.322 55.8861 -0.246251
461.036 24.0188 -0.60787
365.665 0.826379 0.684382
114.462 4.61557 -0.371865
357.083 67.7422 0.131325
11.4116 0.856646 0.321311
553.098 11.2553 0.238051
311.604 58.1157 0.424593
464.689 6.50301 0.550346
[...]
POINT_DATA 13483
TENSORS Strain_matrix float
-0.684598 -0.434285 -1.97944 
-0.481512 0.340347 1.01678 
-1.42565e-18 -3.92053e-18 1 

-1.82456 1.51469 7.05048 
0.386518 0.871076 7.19902 
-9.75121e-20 -9.84122e-18 1 

-0.184509 -0.137618 0.20513 
0.0875487 -0.0558804 0.437238 
-1.75802e-17 9.90023e-18 1 

-4.34221 -0.253857 -6.99187 
-0.572917 0.93827 -0.348219 
-9.13508e-17 7.48463e-18 1 

-1.04529 0.350142 -0.198029 
-0.219079 0.335461 -0.132757 
8.69054e-18 -9.18503e-18 1 

-0.366834 -0.398326 58.6819 
0.0628117 0.304625 -21.5549 
-5.04204e-18 8.09679e-18 1 

-0.239212 0.00712864 0.0236403 
0.00679585 -0.0354039 -0.255553 
-1.59162e-17 -2.14416e-18 1 

-0.482925 -0.374397 0.784561 
0.355391 0.0223938 -0.235094 
3.64686e-18 -1.18363e-17 1 

-1.56342 -0.868834 -1.22635 
-0.453964 0.563467 -0.382752 
8.76463e-19 1.22705e-18 1 

-0.869988 0.0396242 4.73883 
-0.6008 0.189089 3.31889 
-9.15543e-18 -4.0055e-18 1 

-0.198331 -0.0712358 -0.00975937 
0.0726159 -0.0618731 -0.104947 
-1.98546e-17 1.13938e-17 1 

-0.441231 0.170073 -0.22174 
-0.00165232 0.141829 -0.0509347 
1.29695e-17 -6.89201e-19 1 

-3.23105 -1.85403 -0.780769 
0.461453 0.801216 -0.545477 
5.76954e-19 1.03371e-17 1 

-0.603543 -0.247655 0.38471 
0.133198 0.123691 -0.0496627 
1.65072e-18 8.10355e-18 1 

-0.429269 -0.0767466 0.108695 
0.228334 0.19214 0.0679452 
-6.71112e-18 1.83757e-18 1 

-0.140126 -0.0602554 -0.469132 
-0.0172569 -0.0159708 0.14404 
0 3.61038e-19 1 

-0.146243 -0.192682 0.0658869 
0.17683 -0.0697548 -0.0251279 
6.17591e-18 -1.0454e-17 1 

-0.431292 0.0924794 -0.135656 
0.124562 -0.143428 -0.330915 
-1.32903e-17 2.2093e-18 1 

-0.637572 -0.359026 -8.79715 
0.118393 0.297077 11.8029 
1.94977e-18 1.46931e-18 1 

-0.263114 0.189406 1.60764 
-0.163723 -0.0561604 -0.898635 
-6.10049e-19 -1.09467e-17 1 

-0.259822 -0.497503 -0.131811 
0.192358 0.292144 -0.572744 
-1.49083e-18 -1.21601e-17 1 

-18.2203 -6.80408 30.762 
-0.341404 0.641172 -1.27118 
0 2.35095e-18 1 

-1.01463 -0.512268 -7.10988 
0.0236699 0.64628 2.88441 
2.68987e-18 2.62938e-17 1 

-0.973777 -1.3197 232.762 
0.081525 0.421767 46.9822 
-4.90569e-18 9.02054e-18 1 

-0.674861 -0.0340352 -4.13043 
0.232443 0.36855 1.17268 
3.61692e-18 6.13433e-19 1 

-0.0199337 -0.637481 -0.397568 
0.619823 0.211864 0.127903 
-1.51579e-18 1.45263e-18 1 

-1.63211 2.08082 10.5471 
-0.595856 0.726322 -12.153 
3.76589e-18 -1.01451e-17 1 

-1.16055 -0.0366106 -1.33075 
-0.23172 0.365902 -0.185618 
-2.79535e-18 -8.85801e-18 1 

-0.301406 -0.11895 -0.145377 
0.175436 0.10525 0.048925 
-1.0897e-17 -2.63603e-18 1 

-0.363631 -0.263783 -1.22073 
0.493495 0.147662 -0.0183265 
-3.70356e-18 -4.55823e-18 1 

-1.27578 -0.287006 -4.13089 
0.0687376 0.272407 -2.01976 
-5.8647e-18 -1.02932e-17 1 

-0.377181 0.067078 0.716181 
0.205996 0.19108 0.704068 
4.34562e-18 5.62097e-18 1 

0.425859 -1.04387 0.0379489 
0.775834 0.299576 0.656513 
6.95892e-18 1.0814e-17 1 

-0.591529 -0.0724289 8.52453 
-0.198282 0.40211 0.762345 
-4.24801e-18 1.52287e-18 1 

-0.0941649 0.148166 -0.0988912 
-0.205598 -0.0719277 -0.335653 
2.74688e-18 -1.28031e-17 1 

-0.531837 -0.0215836 -1.07365 
-0.100509 0.0134081 -1.37106 
-7.66374e-18 5.50645e-18 1 

-0.746959 -0.326076 -8.18624 
0.13739 0.384819 4.98115 
-4.08514e-18 -3.66438e-18 1 

-0.976818 -2.02582 -1.30347 
0.097871 0.376914 0.93764 
7.17337e-19 4.56487e-19 1 

-0.20199 2.13699 0.629699 
0.0633078 0.362745 -0.640795 
-4.03991e-18 -4.93424e-18 1 

-0.319591 -0.42172 2.80727 
0.493078 0.164406 0.696582 
4.47142e-18 -9.7077e-18 1 

-0.307651 -0.100362 -0.345594 
0.0992312 0.0323064 -0.405569 
-7.22483e-18 -2.03679e-18 1 

-0.19202 0.0366551 0.417109 
0.00165596 0.12835 0.543132 
-2.41335e-17 4.30305e-18 1 

-0.774914 0.0609337 -0.0761522 
-0.584525 0.505693 0.210448 
1.08431e-17 -1.53973e-17 1 

-0.198857 0.0611641 -0.131562 
-0.140213 -0.0281024 0.242087 
2.33084e-19 5.56072e-18 1 

-0.302644 -0.170467 0.106477 
0.324038 0.121956 -0.0012407 
4.79937e-18 4.11375e-18 1 

-0.259075 -0.144078 0.275899 
-0.0866403 0.0536489 -0.65423 
2.65055e-18 1.18873e-17 1 

-1.71744 -0.988488 12.2793 
-0.660921 0.422503 2.11646 
-3.18342e-19 1.57018e-17 1 

-0.150696 -0.0315208 -0.0514932 
0.0101754 -0.0891165 -0.0592155 
-1.68742e-17 -1.38402e-17 1 

-2.41754 -1.17144 -7.57377 
0.102408 0.556252 -1.72266 
1.6862e-17 1.32648e-17 1 

-2.46114 -0.167309 -7.86807 
-0.303566 0.894943 -1.08263 
1.59735e-17 2.00135e-17 1 

-0.282632 0.0625872 -0.192334 
0.0593716 0.114368 1.97461 
1.31291e-18 7.53948e-19 1 

0.0960016 -0.590796 -0.400083 
0.733732 0.242365 -0.689647 
-3.63834e-18 -4.84096e-18 1 

-0.311361 0.372221 -0.0528312 
-0.268462 0.247471 -0.279737 
2.41313e-18 7.05377e-18 1 

-0.684475 0.0887186 1.69808 
-0.0378666 0.110063 -0.331175 
1.64171e-17 -9.98621e-18 1 

-0.52105 -0.0487454 0.344695 
0.493994 0.0685173 0.38369 
-9.91335e-18 4.13056e-17 1 

-1.48833 -1.41943 -7.97547 
-1.81201 -0.0967406 1.79957 
1.1586e-17 -7.39257e-18 1 

-0.650383 -2.74069 1.10047 
-0.260565 0.208544 -0.809399 
4.43717e-18 1.11894e-17 1 

-0.241813 -0.152277 -0.551916 
-0.0232834 -0.0515448 0.391897 
5.03615e-18 -9.10583e-18 1 

-0.270025 0.124347 0.608897 
0.031696 -0.0292636 0.670589 
-1.39943e-17 3.2545e-18 1 

-0.441162 0.187098 0.99575 
-0.111175 -0.0184621 -0.483346 
8.0992e-18 7.81141e-18 1 

-11.89 2.94531 5.1182 
-0.728376 0.645497 -0.529537 
-6.62219e-18 8.37807e-18 1 

0.12538 -0.867618 -2.10052 
0.49301 0.276231 0.97356 
9.55582e-18 9.776e-18 1 

-0.227164 -0.288009 -0.156129 
-0.0435006 -0.110884 -0.33886 
-8.6704e-18 -1.44507e-17 1 

-2.05071 -0.937551 -1.00773 
-0.335084 0.139316 1.82037 
-6.10107e-18 -2.36295e-17 1 

-0.22959 0.0932138 0.325478 
-0.0285158 0.0753581 0.288888 
1.06746e-17 -4.16178e-18 1 

-0.481213 -0.386514 0.463459 
0.183126 0.227794 -0.178563 
-3.75127e-18 1.51516e-17 1 

-0.435713 -0.515001 0.198481 
-0.115408 0.0550589 -0.213442 
-3.52547e-17 -2.23652e-17 1 

0.0177237 0.720145 -0.0923498 
-0.52112 0.244521 -1.11622 
7.32662e-18 8.8312e-19 1 

-0.6804 -0.567907 54.5325 
0.371281 0.582839 -28.0071 
-2.13919e-19 2.55606e-18 1 

-0.656376 0.282462 -0.0912168 
-0.28781 -0.0292641 0.0141236 
-2.1076e-17 6.94603e-18 1 

-0.678391 -0.936712 -2.94991 
-0.0404316 0.265242 -2.20043 
6.51878e-18 -2.39178e-18 1 

-0.161414 0.0158747 0.0613663 
-0.0206984 -0.0534434 0.115001 
1.10312e-17 -3.29211e-18 1 

-2.07659 -0.355544 2.25886 
-0.171109 0.65672 -0.10554 
-2.68781e-19 1.26951e-18 1 

-0.307521 0.718786 0.940201 
-0.943593 0.444389 -0.311031 
8.97539e-18 6.73154e-18 1 

-0.221159 0.0682059 -0.451928 
-0.107028 -0.0317696 -0.0189144 
1.93387e-18 -8.35432e-18 1 

-0.219843 0.0121012 0.0452746 
-0.0119632 -0.0322753 0.187407 
2.16796e-18 -1.08185e-17 1 

0.209095 -0.903176 -0.135806 
0.778297 0.280885 0.319541 
-8.14102e-19 -4.22881e-18 1 

-0.53209 -0.160101 2.40173 
0.124341 0.277134 0.398302 
-8.06819e-18 -4.85874e-18 1 

-1.11838 -1.45116 -0.255363 
-0.256417 0.448101 1.13231 
7.41421e-18 -8.8077e-18 1 

-0.650322 0.263208 -1.62321 
-0.701458 0.378686 -0.471696 
-1.32717e-17 6.72037e-18 1 

-1.76038 -0.370826 0.481983 
0.407804 0.355223 -0.473121 
-7.41813e-18 1.32043e-17 1 

0.148082 -0.912102 -0.0464382 
0.417122 0.342258 0.484969 
4.15878e-18 7.24023e-18 1 

-0.175635 0.0475223 1.09091 
0.15 0.0664912 0.00590214 
-1.23811e-17 4.3563e-18 1 

-0.0907693 -0.147481 -0.338026 
0.0551233 -0.0643084 -0.047787 
9.39172e-18 1.28128e-17 1 

0.567764 -1.23026 -0.25461 
0.964895 0.943477 -0.425627 
-3.91961e-20 3.53745e-18 1 

-0.709877 0.162705 0.635886 
-0.0764601 0.291914 0.419302 
-7.67112e-18 -8.84276e-18 1 

-0.781366 -11.5837 0.805806 
0.023785 0.00893269 0.812277 
6.82218e-18 -1.11288e-17 1 

-0.121822 0.153581 0.0987041 
-0.166651 -0.110278 0.00958727 
-1.32681e-17 -8.92451e-18 1 

-0.46053 -0.254948 -0.987561 
0.461317 0.0567716 0.133886 
-3.21018e-18 4.10042e-18 1 

-0.289798 0.0404516 -1.33569 
-0.00973697 0.00280687 -0.164816 
-6.2855e-18 -3.46515e-18 1 

-0.499494 -0.223638 0.319722 
0.0898951 0.374181 0.02865 
-6.75042e-18 -8.50053e-18 1 

-0.620692 0.38888 0.26379 
-0.125068 0.144183 -0.0300785 
4.59164e-18 1.42608e-17 1 

-1.91168 -3.61768 -0.0626971 
-0.407446 0.405655 1.39248 
8.10352e-18 3.3194e-18 1 

-0.14767 -0.115563 0.220718 
-0.206557 -0.0158255 -0.347899 
7.3553e-18 -3.80635e-18 1 

-0.12943 0.161425 -0.111508 
-0.131842 0.0782968 1.03246 
-1.50992e-18 1.43351e-17 1 

-0.539464 -0.355452 -0.119093 
-0.0539077 0.370888 0.0845041 
4.0815e-18 -1.76617e-17 1 

-0.188349 0.229155 0.333017 
-0.230564 -0.00537619 -0.632918 
3.64341e-18 6.9556e-18 1 

-0.120806 -0.325991 0.0932197 
0.0987272 -0.0200622 0.193572 
1.42096e-18 7.0752e-18 1 

-2.23415 -1.38465 -2.75259 
-0.412721 0.197412 -0.926707 
-1.42004e-17 -1.10528e-18 1 

-0.37584 0.796874 1.26817 
0.745187 0.0913456 1.4088 
-3.15389e-18 -5.32219e-18 1 

-0.270904 -0.418381 -9.11503 
-0.174345 0.0871243 0.398675 
4.85458e-18 -7.29544e-18 1 

-0.523003 -1.04809 1.74176 
0.778121 0.475889 -0.969773 
1.68804e-17 1.11383e-17 1 

-0.450241 0.17307 -0.106316 
0.130716 0.0908646 0.810601 
2.78468e-18 -1.09807e-17 1 

-1.23695 2.58749 -4.24465 
-0.754298 0.765308 -1.31195 
5.66973e-18 2.81104e-18 1 

-0.922256 -0.147966 -0.621413 
-0.133959 0.161956 0.312361 
2.77622e-18 9.51848e-18 1 

-0.678721 -0.506997 0.271102 
0.145796 0.179947 -0.679623 
-5.2647e-18 -1.40938e-17 1 

-0.770145 -0.156176 0.836134 
0.332687 0.167343 -0.67005 
5.00121e-18 1.86851e-17 1 

-0.153305 0.148405 -0.158449 
-0.195574 0.00464642 -0.188064 
2.68619e-18 -5.6347e-18 1 

-0.315194 0.143496 -0.307636 
-0.154538 -0.110627 0.0501674 
1.01822e-18 -1.51759e-17 1 

-0.367768 0.220854 -1.26691 
-0.246066 -0.0153395 -1.47733 
-4.07458e-18 -1.41457e-17 1 

-0.687819 0.482018 6.73071 
0.126394 0.652611 8.0005 
-8.44998e-19 -2.68398e-18 1 

-0.524694 0.116081 -0.942475 
0.000934623 0.289509 0.818646 
-7.56571e-18 -7.52631e-18 1 

-0.350994 0.112946 1.44739 
-0.0885137 0.0386758 1.11045 
-3.76614e-18 -8.19753e-18 1 

-0.0561145 -0.953024 -0.487214 
0.605213 0.438674 -0.809445 
1.3706e-18 6.65718e-18 1 

-1.93007 0.0271108 -0.482878 
0.122466 0.564678 1.18023 
-2.81427e-18 1.29392e-18 1 

-0.137984 -0.0791303 2.52079 
0.0613536 0.0168153 -1.36686 
-1.12479e-17 -1.67312e-18 1 

-0.288287 0.140726 -0.210506 
-0.247164 0.101977 -0.282939 
-7.63565e-18 4.76061e-18 1 

-0.408596 -0.165288 0.103384 
0.285437 0.0970745 0.223061 
-3.27098e-18 1.46715e-17 1 

-1.66253 -0.796627 0.847543 
-0.11781 0.580578 0.246858 
-3.10844e-19 -3.69128e-18 1 

0.0198081 -0.532653 0.461741 
0.625097 0.214653 -0.0934846 
1.0586e-17 -1.81076e-18 1 

-0.954626 -0.277673 -1.10812 
0.848306 0.454479 0.558988 
-4.34535e-19 -6.95256e-18 1 

-0.482906 0.0494208 0.279352 
-0.248713 0.0747811 0.173677 
-1.43735e-18 -2.75492e-18 1 

-0.0306491 -0.640528 0.365399 
0.41458 0.194343 -0.587515 
-3.01891e-18 -1.19609e-17 1 

-6.59185 -3.06797 3.46551 
1.34478 1.24878 -0.470354 
-8.64913e-18 -1.42105e-18 1 

-0.243469 -0.0552692 -9.20564 
0.108345 0.0716137 0.972045 
-1.56785e-18 -8.25786e-19 1 

-0.647092 0.0241004 -0.317213 
0.229462 0.144427 -0.347424 
3.29691e-17 8.7469e-18 1 

-0.15234 -0.0957355 -0.15339 
-0.0412953 -0.0376877 0.0315394 
-1.54466e-18 5.25186e-18 1 

-0.317144 0.11392 -1.15529 
-0.0219967 0.166202 1.08488 
-8.87169e-18 -8.83689e-18 1 

-1.75526 -0.44974 1.79458 
0.332436 0.731428 1.06379 
1.31975e-18 9.31338e-18 1 

-0.407482 -0.0806093 -1.24416 
0.22977 0.112202 0.527876 
-2.16e-17 -2.85859e-18 1 

-0.154288 -0.412396 1.02231 
0.351419 0.127811 -0.345426 
-2.01116e-18 -4.02232e-18 1 

0.0473466 0.974487 0.177693 
-0.590882 0.478548 0.153702 
-1.06435e-17 4.46232e-18 1 

-0.761349 -0.101895 -0.802768 
0.0252997 0.292756 0.803917 
6.63673e-18 9.16699e-18 1 

-7.8525 1.87513 -6.67537 
-3.01543 1.04752 -0.0674338 
6.1185e-18 3.05925e-18 1 

-0.808471 1.84049 2.88994 
-0.287753 0.45963 0.82494 
9.70829e-18 2.7548e-18 1 

-0.653644 0.0207586 -3.58072 
-0.351801 0.466994 -0.707294 
-8.93196e-18 3.6325e-18 1 

-0.0769717 0.729577 -0.324113 
-0.534752 0.248462 0.937156 
-6.52388e-18 5.98431e-18 1 

-0.0689561 0.318236 -0.542414 
-0.297164 -0.0378621 0.335148 
2.32809e-18 9.76809e-18 1 

-0.618128 0.00883842 0.267853 
0.560481 0.0700467 0.348514 
1.5876e-17 -8.14692e-18 1 

-0.762287 -0.0935203 1.59346 
-0.0186433 0.129038 2.16524 
-1.46823e-18 -3.252e-18 1 

-0.470435 0.106718 12.8214 
-0.0497049 0.0210704 -5.77505 
8.41877e-18 -1.04861e-17 1 

-0.074881 -0.433272 0.0332011 
0.301553 0.0314055 0.0376549 
-1.1216e-17 -2.14489e-18 1 

0.211665 0.837531 0.532735 
-0.730419 0.406788 0.815545 
-4.34816e-18 -1.14425e-18 1 

-0.47325 -0.310086 4.54838 
0.202521 0.796531 6.475 
-8.63065e-19 -4.62938e-17 1 

-0.0687298 0.146433 -0.163739 
-0.164052 -0.0322748 -0.106174 
-3.01514e-19 -7.61323e-18 1 

0.393986 -1.01305 -0.822403 
0.650314 0.415099 0.10221 
7.42071e-18 1.42092e-17 1 

-1.52977 0.18886 -0.334688 
-0.116727 0.439882 -0.129736 
-3.30806e-18 1.20647e-17 1 

-0.182236 0.0009207 -0.596981 
0.0158654 -0.0668997 -0.637035 
-4.44882e-18 -2.60793e-18 1 

-0.747043 1.1617 -3.32077 
-0.387803 0.610301 2.92313 
-8.63913e-18 6.42098e-19 1 

-0.621562 -0.264176 1.46785 
-0.312904 0.264441 0.0749186 
-1.06677e-17 4.83887e-18 1 

-0.186406 -0.354376 8.45956 
0.35994 0.152503 -3.23712 
1.40642e-17 -3.20301e-18 1 

-1.08228 0.644086 -3.89846 
0.115753 0.382585 -0.218045 
-5.23202e-18 1.63501e-18 1 

-0.240538 0.0247471 0.156905 
-0.085417 -0.00876523 0.00140727 
5.1637e-19 -3.40968e-18 1 

-0.2085 0.0590117 0.342235 
0.092711 0.0141532 1.72123 
1.08673e-18 9.84845e-19 1 

-0.161296 0.00188015 -0.0522919 
0.00100648 -0.0651271 0.428234 
1.55531e-17 1.15493e-18 1 

-0.647664 -1.63022 3.47194 
0.366284 0.370337 1.35235 
-1.10158e-17 -1.44133e-17 1 

-0.0492741 -2.04019 2.4674 
0.56774 0.207226 -0.708363 
1.32857e-17 -9.20586e-18 1 

-0.225532 -0.0376525 -0.647816 
-0.0488632 0.0853558 -1.67231 
2.41148e-18 -1.12953e-18 1 

-0.662097 0.321497 -3.15211 
0.280566 0.67521 -0.165469 
2.61678e-18 -1.20193e-17 1 

-4.65222 -1.06431 -7.5231 
-0.0425739 0.580891 0.320449 
-9.09102e-18 4.4398e-18 1 

0.244583 0.625618 -1.12379 
-0.925497 0.253135 0.632399 
-6.12294e-18 5.28659e-18 1 

-2.75916 -0.386692 4.90177 
-0.151702 0.774036 -2.07224 
-1.49781e-17 -1.04015e-17 1 

-3.9283 1.306 -15.7784 
0.647789 0.326011 -0.167131 
4.84163e-18 -1.57993e-17 1 

-5.39704 -1.89353 -110.652 
-0.679269 0.682353 3.13962 
1.27726e-18 1.84059e-18 1 

-0.760734 0.39379 -110.262 
0.0221041 0.420408 -5.12451 
-2.49655e-18 -1.98665e-18 1 

-2.78938 0.896817 -0.837378 
0.876914 0.244212 0.335409 
1.2994e-17 1.21432e-17 1 

-0.0566994 -0.038512 0.0798768 
0.0540015 -0.0554488 -0.0865245 
9.82745e-19 -4.52658e-18 1 

-0.522678 -1.12338 0.846782 
0.0393179 0.331011 0.797013 
-1.93796e-18 8.24663e-18 1 

-0.410961 0.177265 -0.738264 
0.12481 0.0520489 -0.103955 
-1.0568e-17 2.25321e-18 1 

-0.257863 -0.0799525 0.43638 
0.0683732 0.016135 -0.327728 
-1.10696e-17 -6.60052e-18 1 

-0.305648 -0.0488434 -0.118609 
-0.137686 0.134405 -0.805731 
-1.28664e-17 3.2794e-18 1 

-0.0825362 0.126459 -1.17522 
-0.310957 -0.0391097 -0.511148 
-2.79051e-18 -1.39525e-18 1 

-0.32325 -0.0330111 0.605461 
0.0307911 0.215865 0.454998 
8.51728e-19 -4.42544e-18 1 

-1.93489 -1.19577 0.804522 
-0.0331926 0.688033 -0.491479 
-1.86301e-19 6.70683e-18 1 

-1.34648 -0.747427 3.71836 
-0.187503 0.499763 1.33387 
1.42577e-17 -4.61868e-18 1 

0.0159271 0.385864 2.43726 
-0.543698 0.292 0.689216 
2.19408e-18 9.20732e-19 1 

0.321548 -1.04858 0.0222394 
0.865109 0.692298 0.733541 
-5.16727e-18 5.5212e-18 1 

-0.226687 -0.177794 -0.166359 
0.133873 0.0206058 -0.356534 
-1.3372e-17 -3.7737e-18 1 

-0.371643 0.26528 -0.798562 
-0.307198 0.314089 2.8598 
-3.04157e-18 1.37594e-17 1 

-1.5314 -0.771444 0.220829 
1.05609 0.801907 0.345569 
-3.83518e-18 2.59052e-18 1 

-0.626828 0.109642 -0.590131 
-0.0677429 0.336574 0.566218 
-2.92352e-18 -1.13321e-18 1 

-0.917621 -0.40812 -0.0463283 
0.211427 0.288579 -0.176215 
1.58558e-17 0 1 

-1.07173 -0.0573934 1.71567 
-0.24895 0.334419 0.313961 
-2.08358e-17 -1.73806e-17 1 

-0.191571 -0.0697062 0.629125 
0.0289236 -0.00394787 -0.855819 
-6.82091e-18 -7.64503e-18 1 

-0.305017 0.741075 1.90823 
0.432798 -0.127971 -1.28956 
1.1065e-17 1.58742e-17 1 

-0.408414 0.078914 -0.900064 
-0.167811 -0.131962 0.228405 
2.27961e-18 1.21414e-18 1 

-0.575585 -0.674273 3.62918 
-0.341674 0.0907623 0.141799 
-7.19292e-18 -1.03398e-17 1 

-0.10816 -0.655435 0.0964645 
0.578919 0.292892 -0.627813 
4.19909e-18 2.46481e-17 1 

-0.335634 -0.26242 -1.1084 
-0.264213 0.0788958 -3.11092 
1.8783e-17 -3.37937e-18 1 

-0.565254 0.0886657 0.656384 
-0.453859 -0.0426077 -1.11663 
1.17136e-17 -8.67803e-18 1 

-0.127954 -0.658015 -0.167882 
0.494404 0.20847 -0.289489 
9.22041e-18 -1.82721e-17 1 

-0.867158 0.362924 0.390919 
-0.478312 0.50768 -1.5039 
-1.06632e-17 -1.27449e-17 1 

-5.77458 -0.639176 6.40594 
0.344666 0.62518 -1.0169 
-4.10474e-18 6.97805e-19 1 

-1.26705 -2.04944 -2.40769 
-0.19767 0.167136 0.601119 
-8.69049e-18 -8.33075e-19 1 

0.472086 -1.78285 0.560491 
0.929245 0.982604 0.300882 
-1.24534e-17 8.57447e-18 1 

-0.576848 0.403292 1.68587 
-0.332118 0.381366 -0.235891 
7.93037e-19 7.13734e-18 1 

-0.390595 0.367244 -0.0828869 
-0.517005 0.0267787 -0.0390971 
9.65954e-18 1.03986e-17 1 

-0.0357899 -0.866811 -0.60034 
0.561544 0.412736 0.419185 
-3.34438e-18 -1.35536e-17 1 

-1.18639 -0.477017 -0.26837 
-0.0059453 0.358795 0.0881954 
6.66505e-18 -2.14234e-18 1 

0.0510546 0.560432 -0.347033 
-0.771549 0.360172 -0.0224372 
6.32701e-18 1.13123e-17 1 

0.29712 0.194807 0.588669 
-1.0626 0.0601696 1.03404 
-1.46382e-17 -2.59657e-19 1 

-0.546358 0.230874 0.440681 
-0.178593 0.366421 0.593063 
5.25775e-18 2.7234e-17 1 

-0.308156 -0.603524 0.335384 
0.568318 0.128607 -0.351821 
-2.26082e-17 1.78982e-17 1 

-4.76411 0.251578 -22.2183 
-1.48982 1.25062 2.05852 
1.33319e-18 3.87557e-18 1 

-0.205531 0.0927596 -0.300904 
-0.0178253 0.0315599 -0.766636 
-8.48673e-18 -4.50473e-18 1 

-2.78428 1.82117 5.09907 
0.366417 0.712162 -0.279396 
-8.07336e-18 -4.17123e-18 1 

-0.14317 -0.856436 0.886064 
0.197527 0.0416362 0.709944 
-8.9651e-18 -5.4431e-18 1 

-0.226075 0.0512306 -0.263191 
0.259361 0.113264 -0.783294 
-1.385e-17 5.32694e-18 1 

-2.48467 -0.966013 4.23894 
0.322837 0.600949 -0.723249 
4.83293e-18 6.81004e-18 1 

0.51012 -0.866409 -0.0681923 
0.88053 0.412022 0.13679 
1.99836e-18 2.6253e-18 1 

-0.479885 -0.350506 0.736068 
0.134088 0.448926 -1.04181 
2.72575e-18 5.91545e-18 1 

-0.699839 -0.542474 4.31259 
0.232606 0.197697 -3.64254 
2.95144e-18 -7.85184e-18 1 

-0.219966 -0.203303 -0.373685 
-0.020042 0.0579535 0.00704014 
-8.11772e-18 7.03052e-18 1 

-0.534054 -0.116723 0.699469 
0.0874844 0.312949 2.08342 
2.86162e-18 -1.2232e-17 1 

-1.97499 -0.335367 -16.7616 
0.198012 0.514346 0.298162 
7.61621e-19 1.20995e-17 1 

-0.817914 0.344358 0.155901 
-0.399989 0.394771 -1.57004 
-1.70576e-17 3.54672e-18 1 

-0.347203 -0.452665 -0.691596 
-0.0167967 -0.0446973 -0.642471 
-4.77708e-18 7.27475e-17 1 

-0.413086 -0.962614 -0.451332 
0.633732 1.19923 -0.595407 
8.17141e-19 3.89999e-18 1 

-0.65306 -0.229183 -3.63494 
0.353339 0.231769 0.569375 
7.85932e-18 2.30029e-19 1 

-1.44337 -0.546689 96.5725 
0.10686 0.177479 14.1645 
-7.46231e-18 -6.15386e-18 1 

-0.458744 0.00859177 -4.2973 
-0.0644043 -0.010181 -1.24154 
2.58498e-18 -9.0152e-18 1 

-1.56486 1.07774 0.0621805 
-0.415571 0.319246 0.196604 
-9.67187e-18 1.22429e-18 1 

-0.290589 0.380572 0.106237 
-0.238909 0.0443239 0.0991992 
1.59694e-17 1.76768e-18 1 

-3.87263 2.6801 60.6555 
-1.35456 1.25855 18.0368 
4.93001e-18 9.14362e-18 1 

0.246866 -0.8688 0.103413 
0.965527 0.730242 -0.620766 
-1.09329e-18 7.2886e-18 1 

-0.217762 -0.253584 -0.0789686 
0.00565009 0.061058 -0.0937064 
6.46107e-18 -3.0367e-18 1 

-0.247915 -0.359055 -0.579986 
0.194541 0.0292472 0.599948 
-1.00272e-17 -1.72057e-17 1 

-1.03828 0.0626 -1.2217 
0.672711 0.393048 0.397418 
-1.51844e-17 -3.35809e-18 1 

-0.872661 -0.780932 2.25794 