# vtk DataFile Version 3.0
Output file generated by Yade's KinematicLocalisationAnalyser
ASCII
DATASET UNSTRUCTURED_GRID

POINTS 13483 float
649.816 28.5887 -0.442135
844.109 54.7969 -0.470449
126.829 6.04714 -0.4654
875.701 6.79531 -0.377632
529.604 7.55623 -0.303178
332.436 34.6531 -0.458515
165.293 6.78012 0.425103
607.241 10.0058 0.151364
526.92 22.1075 0.133291
782.102 12.9772 -0.463808
222.191 8.79102 -0.0999002
271.247 6.33398 -0.282281
701.381 29.9459 -0.137861
678.69 14.192 0.0874439
144.808 16.813 -0.442199
233.38 34.3047 -0.394072
229.806 12.913 0.273858
304.908 9.49444 0.388025
358.662 32.5985 0.435733
557.008 8.52167 0.346025
434.793 35.9894 -0.0985625
631.395 42.9322 -0.271315
873.848 39.1438 -0.467461
754.792 40.6419 0.470699
486.011 15.9133 0.29711
253.968 43.9955 0.123582
521.791 26.7865 -0.48297
625.254 20.0036 0.228938
47.6323 15.2669 -0.455938
777.279 31.8789 -0.341107
511.315 4.86165 0.321564
17.4524 22.7904 -0.286129
858.415 56.9675 0.218126
525.153 2.47543 0.483721
82.8839 43.949 -0.100451
554.22 29.9597 0.333351
563.646 16.5265 -0.416592
363.392 22.1033 -0.168373
567.405 25.3432 -0.318415
370.746 32.8747 -0.396009
254.533 14.498 0.301174
459.8 36.0992 -0.0698732
729.465 6.91812 0.141494
203.687 6.17557 -0.378626
58.7589 6.89076 -0.122669
72.5603 8.83824 -0.288147
747.046 8.63943 0.470345
24.8168 11.6931 -0.296932
653.311 45.3696 0.376313
732.103 24.0179 0.30237
182.347 32.1732 -0.284178
835.083 41.2056 -0.119111
37.2274 27.8532 0.115617
567.924 2.96454 0.317169
150.226 7.46501 -0.473356
634.823 33.431 0.365562
535.947 26.8507 0.113587
184.721 0.946905 0.260335
34.6017 2.37145 -0.321747
368.797 17.5288 0.26093
665.06 46.3011 0.138047
489.96 33.8444 -0.177414
422.838 1.0359 0.192596
759.399 7.6257 0.373556
28.0473 42.5981 -0.235665
271.14 30.1479 0.285711
782.292 8.68211 0.278772
722.646 46.2195 0.355385
442.341 8.56338 -0.481209
608.135 3.49064 -0.345093
813.491 29.6687 0.371244
138.287 7.61613 0.272012
529.917 25.2879 -0.125422
506.858 14.8261 -0.116797
311.429 16.5952 -0.3371
21.8851 13.507 0.255148
858.455 42.8959 -0.322631
351.853 38.9206 -0.278716
729.242 21.608 0.352422
746.873 12.6692 0.272585
863.047 13.149 -0.291555
493.39 34.2469 0.165625
97.8066 37.9316 -0.26331
741.322 35.3909 -0.227129
696.84 39.8858 0.0951932
881.941 47.9969 0.0983679
857.017 0.736279 0.509847
308.026 28.6108 0.434655
666.937 6.38648 -0.115186
25.7416 5.18614 0.458211
140.641 37.9437 -0.143851
545.546 14.2406 0.213805
851.133 31.7726 0.469207
206.95 28.4218 0.233651
47.2444 34.3993 0.266458
524.009 1.16164 0.123932
249.608 8.77972 -0.364883
818.322 44.953 -0.260233
839.165 33.2558 0.224889
383.142 20.4925 -0.263479
173.919 26.6094 0.43381
587.005 38.604 -0.434187
403.206 14.9774 -0.482158
439.492 29.2804 -0.0975946
401.52 4.37155 0.40774
585.033 10.6907 -0.100124
880.713 11.8908 -0.222455
85.1163 38.9084 -0.386053
355.851 4.76377 -0.176994
600.418 9.45198 -0.33285
382.066 43.1671 0.442424
27.3688 23.9314 0.460198
32.3374 5.74851 0.321677
608.136 32.6369 0.399147
539.004 24.3389 -0.146966
27.8967 36.5503 0.412997
98.884 30.5658 0.208041
345.183 15.744 -0.289469
644.804 18.6564 0.113488
506.387 37.4826 0.311181
800.591 7.63266 -0.396855
791.726 6.12927 0.190578
411.483 36.9237 -0.0951303
685.625 25.8616 -0.0932433
253.358 16.8142 0.487287
350.809 3.68283 0.463853
109.497 31.1153 0.322499
123.695 24.0523 0.266228
581.919 38.6693 -0.0788744
325.372 18.7406 0.476888
772.971 37.1103 -0.106104
726.887 45.7716 0.108037
513.073 20.3047 -0.383244
843.433 16.4452 0.379331
456.881 23.1145 0.241955
295.118 23.7988 -0.303031
729.506 34.3748 0.300628
296.475 28.8684 0.398113
619.213 12.0626 -0.181592
353.501 35.8466 0.184548
539.774 11.1979 0.466021
390.815 30.8983 -0.0842704
459.349 16.4297 -0.113286
338.562 41.4897 0.0328441
202.993 29.5247 0.11545
848.604 53.2789 -0.142973
877.491 14.0507 -0.322214
6.30977 12.1242 -0.441806
463.452 21.9327 -0.397337
40.9192 22.2253 -0.0922949
401.547 31.2336 -0.46566
421.393 24.3873 -0.241914
79.6661 11.7317 -0.485829
55.4909 32.9178 -0.429515
240.801 13.417 0.421012
666.857 39.212 -0.480008
621.96 20.7069 -0.491819
79.8238 20.8627 0.487125
755.983 45.1192 -0.404058
831.021 5.02282 -0.482401
714.894 43.0596 -0.594536
754.502 2.33332 -0.387601
591.498 26.1347 -0.411214
632.605 44.0066 0.450122
549.357 17.9587 -0.409652
873.56 4.38873 0.268605
238.436 24.6247 -0.12374
136.366 34.8056 -0.193526
263.83 6.5229 -0.365871
100.933 4.12109 0.265192
68.7317 9.96522 0.203558
294.352 35.837 -0.296585
17.8703 24.4932 0.360831
598.208 19.4215 0.394262
652.667 40.4875 0.245585
495.766 20.9781 -0.356709
866.721 45.9212 0.358993
435.202 8.54428 -0.0987137
466.664 36.0373 0.390058
576.824 3.43848 -0.180645
24.4608 23.427 -0.393534
621.903 4.46295 0.460477
587.269 4.29962 -0.29021
220.307 11.279 0.481607
455.095 16.0519 0.182478
332.831 6.31881 0.324912
415.131 18.8121 -0.321095
806.273 44.0695 0.100205
205.592 25.2857 0.420318
848.772 6.81189 0.335939
806.104 40.2971 -0.30677
410.397 10.0941 -0.179918
780.343 2.37403 0.420634
653.751 25.8412 -0.396993
807.96 18.3776 -0.4375
461.976 42.8401 -0.266376
533.748 12.2007 0.359455
499.266 43.9131 0.220501
477.833 8.63374 0.120965
717.971 41.1652 0.254402
715.162 36.0076 0.293532
205.215 38.5945 -0.333617
860.894 12.5944 -0.101438
634.349 44.3843 0.248095
12.2123 16.6657 0.170292
436.758 25.0008 0.332687
200.393 22.8835 -0.393795
99.5189 38.895 -0.201178
848.327 29.3626 0.3932
711.619 46.6177 0.244781
341.723 25.3087 0.346848
573.492 10.1359 0.319181
88.1208 44.2093 -0.16263
264.929 25.6892 -0.468102
600.425 23.9654 0.384423
523.137 18.1117 0.416634
281.164 0.889137 -0.342861
596.466 40.4564 -0.379396
575.077 40.4825 -0.465334
518.391 32.4281 0.394404
536.903 0.768928 -0.491143
765.896 18.513 0.359571
192.19 11.9111 0.154748
539.092 35.9071 -0.415738
609.19 39.7678 -0.110959
78.0096 0.948704 0.273135
269.369 4.64785 0.159191
876.815 16.1529 -0.179108
862.743 15.1744 -0.460689
882.796 19.4012 -0.541935
324.978 8.52279 -0.225762
814.884 23.33 -0.38613
436.736 40.9298 0.329909
482.136 0.814764 -0.398275
704.898 37.2735 -0.402109
29.1365 29.6695 -0.306589
353.813 40.8171 -0.457893
270.31 2.82407 0.314322
862.378 55.1432 -0.18628
776.491 49.1502 -0.237447
307.68 10.846 0.206335
723.458 29.2315 0.0855799
602.082 2.65808 0.273549
584.946 6.34656 0.419722
103.63 18.1693 -0.48963
324.846 1.04155 -0.224629
368.192 2.26395 -0.363794
14.965 7.46308 0.328856
4.69999 30.7953 -0.240474
173.554 18.6326 0.366109
73.3112 41.3084 -0.211063
71.6001 28.4592 0.317633
454.754 14.3161 -0.407959
393.787 34.6525 -0.460597
833.195 42.5631 0.10848
20.9083 4.01283 -0.275668
75.6847 6.83755 0.137251
676.549 37.9601 -0.146354
315.972 0.926551 0.324296
391.718 16.168 -0.0870382
252.514 4.62412 -0.379982
709.003 22.0733 -0.190706
485.461 8.32895 0.397473
817.408 21.1427 0.359595
684.77 29.0412 -0.287826
728.576 18.422 -0.0953784
451.849 26.5066 0.468186
109.649 44.4724 -0.307939
585.525 42.4003 -0.0778127
805.916 12.7771 -0.254582
255 30.1165 -0.241188
34.3807 16.833 -0.158769
360.885 13.6237 0.486655
115.51 40.0356 -0.468054
286.772 42.2406 -0.182237
457.135 1.08582 0.162919
857.376 37.2792 -0.44714
747.159 0.779246 -0.500045
356.467 3.10634 0.491739
321.804 26.2852 -0.149381
498.213 40.7699 0.213902
87.3774 7.88437 0.425433
212.034 44.473 -0.377612
840.467 34.5845 -0.388158
533.517 39.0963 0.0765058
214.483 40.7799 0.263276
172.556 41.9436 0.11491
882.19 38.4472 -0.409899
879.339 13.0964 -0.547045
656.979 3.50436 -0.451282
204.084 24.2721 -0.0997752
593.388 28.0756 -0.100528
595.413 27.6164 0.263774
439.911 5.59249 -0.134149
518.779 0.938292 -0.276374
835.293 44.916 0.492746
91.2664 30.5142 0.218244
714.978 18.7867 0.445744
294.339 15.388 -0.337947
10.5349 2.33141 -0.339647
134.847 36.5165 -0.188791
71.897 22.8675 -0.458914
764.807 37.0525 0.29488
865.401 64.1623 -0.169154
199.194 27.9895 -0.178687
872.773 13.8423 0.510389
48.6152 36.4155 -0.258928
97.6781 28.8168 0.149306
689.2 12.7483 -0.34811
444.532 17.9966 -0.503504
560.212 16.4376 0.112666
255.516 28.1456 -0.179173
674.445 4.57875 -0.39303
883.309 11.593 0.512912
32.1067 31.0966 -0.26809
289.884 7.67354 0.185794
238.333 15.0768 0.256369
1.0852 35.2982 0.149712
241.786 14.5014 -0.354962
227.219 10.919 -0.143227
229.992 25.9944 0.276856
143.245 27.6401 -0.117097
591.885 14.884 -0.313817
179.424 14.1054 0.339013
856.491 53.9778 0.215588
186.858 3.85239 -0.487773
51.1593 37.3356 -0.387721
810.037 52.9482 -0.426608
301.793 31.569 0.390457
736.777 23.6492 -0.480771
864.197 33.0275 0.508345
322.99 9.13752 -0.111368
802.183 31.0432 0.348693
353.198 2.617 -0.361899
447.943 23.8385 0.345176
733.697 16.1763 -0.423671
113.447 11.7556 0.447516
520.507 4.00023 -0.457164
821.284 19.6473 -0.174096
95.0129 7.66079 -0.197369
302.497 14.6535 0.178428
455.766 11.4831 -0.205515
873.082 2.71261 0.420725
427.984 1.94093 -0.503012
189.797 38.9905 0.300472
808.67 10.0229 -0.37836
138.188 35.9527 -0.192859
282.557 31.1893 -0.390212
430.817 21.4704 0.217542
621.853 13.8382 -0.339415
416.508 9.79003 -0.461532
491.867 27.0973 -0.441786
844.579 55.9659 0.399965
51.2075 10.8275 -0.0957934
321.164 38.2989 -0.26472
408.183 25.938 -0.399773
440.894 20.6466 0.243958
562.974 44.3021 0.356445
826.42 42.4363 -0.182906
721.524 36.5877 -0.365205
242.104 33.7921 0.391134
14.9732 31.0537 -0.149291
715.127 38.0312 -0.119177
549.61 42.5622 -0.481863
246.321 38.4742 -0.106549
744.473 30.2769 0.107763
162.531 9.16937 0.195832
394.698 21.8795 0.291969
500.009 41.8542 0.103307
445.591 19.2837 0.205505
840.483 55.9927 -0.290657
458.612 3.31833 0.424713
53.7246 25.106 -0.305373
507.039 31.1446 0.323836
468.609 40.6825 -0.365566
856.498 43.0532 -0.208746
799.116 30.2983 -0.236033
585.486 18.2052 -0.149011
846.346 44.6353 -0.442215
315.06 2.01474 -0.439179
408.121 28.9692 -0.454873
31.2185 38.2476 0.301718
805.69 32.4652 0.132729
661.729 19.6676 -0.488872
499.194 0.774091 -0.486112
135.634 4.498 0.278218
459.88 40.1872 -0.102283
13.0922 0.914784 0.338167
871.146 7.26276 0.0998615
[...]
POINT_DATA 13483
TENSORS Strain_matrix float
-0.0580414 -0.0169538 -0.295936 
0.0610387 0.0851095 0.424421 
0.000993108 -0.000196856 0.0535508 

-0.0706216 -0.131988 4.60442 
0.246014 0.188567 -0.508141 
0.0118988 -0.0495905 0.227213 

-0.0271852 0.0120254 -0.173906 
0.000476885 0.026419 0.051302 
0.0173982 -0.0061288 -0.227253 

-0.143684 0.2688 -0.682811 
-0.215471 0.0486736 -0.313758 
-0.00480427 -0.0133691 0.436738 

-0.0212154 0.0068281 0.0179162 
-0.0140187 0.00764711 0.00667499 
0.00217144 -0.00498161 0.0276545 

-0.0111144 -0.0161328 0.020187 
-0.0150869 0.00876021 -0.0356365 
-0.00188851 -0.000716461 -0.0342053 

-0.02481 0.000906333 0.0678577 
-0.00442007 0.00534942 -0.0217611 
0.00095178 -0.000124998 0.0337727 

-0.0152876 -0.0146468 -0.0151185 
0.0348535 0.00132016 0.0266897 
0.00299485 -0.00191855 0.0183983 

-0.0135233 -0.00695107 -0.331874 
-0.0363046 -0.00474992 -0.161364 
0.00255077 0.00141386 -0.0122316 

-0.0560685 0.000823377 0.157878 
0.0873227 -0.0963484 -0.248721 
-0.00121204 0.00543448 0.26399 

-0.0133769 -0.00170078 -0.0320309 
0.0020276 0.00240795 0.0404512 
0.000736343 -0.000504932 0.0204244 

-0.0230628 0.000574505 -0.0589446 
-0.0017328 0.00646087 -0.0152634 
0.0356845 0.0178798 0.369266 

-0.113001 -0.375162 -0.213977 
0.145601 0.159608 -0.192798 
0.0113077 0.015792 0.074273 

-0.0234406 0.0444504 -0.0656912 
-0.00989828 0.00590246 -0.0843586 
-0.0393151 -0.00123493 0.17708 

-0.0134405 0.0293903 -0.433735 
-0.0258704 0.000840247 0.183239 
-0.000680784 -0.000353248 -0.022285 

-0.0247374 0.0166522 -0.200723 
-0.0114424 0.0268938 0.0117901 
0.00453515 -0.00585413 -0.0150659 

-0.0138171 -0.00505841 -0.00668217 
0.00511832 0.00372248 -0.00123469 
0.00093885 -2.05175e-05 0.0154378 

-0.0301348 -0.0115959 -0.0156162 
0.00177907 0.0100638 -0.0212593 
0.0351509 -0.00115012 0.296704 

0.0138282 -0.0495572 -0.234268 
-0.0456046 0.0512279 0.24876 
-0.000771065 0.00853251 0.0104786 

-0.0137065 -0.0181615 0.0854233 
-0.0149793 0.00245765 0.100898 
-0.00251587 -0.00030865 0.0334152 

-0.00645239 -0.0164596 -0.114397 
-0.0299717 0.00182392 0.00971844 
0.00131405 -0.00233574 0.0250551 

-0.0942903 0.0544723 -0.249254 
0.0384077 0.0470247 0.0840054 
-0.00164545 0.00131542 0.0431944 

-0.129097 0.211623 -0.121033 
-0.0134507 0.139598 1.34764 
0.000516761 -0.0039194 0.0320404 

-0.0222581 -0.0751505 0.464496 
0.0666059 -0.0168733 1.85589 
0.00991078 0.00680996 -0.449212 

-0.00961953 -0.0252346 -0.0156244 
-0.00368696 0.0183101 0.113471 
-0.000874717 -0.000433641 0.00852648 

-0.0153941 0.00690597 0.0777664 
0.00817149 0.0239119 0.156355 
-0.0111884 0.00259435 -0.00347438 

-0.0132642 -0.0154762 1.58466 
0.018096 0.03052 0.578651 
0.000278652 -0.000616462 0.284942 

-0.0153739 0.0233289 -0.065491 
-0.0160047 -0.0241353 -0.167059 
-8.21428e-05 0.000486783 0.022729 

-0.0143561 -0.0132691 -0.0972379 
0.00261199 0.00901842 0.0141176 
-0.00111009 0.000179564 0.0287976 

-0.155495 -0.00868631 -0.518769 
-0.00582688 0.103385 -0.45607 
-0.00274054 0.00217801 0.0526219 

-0.00979643 0.0017466 -0.0088346 
-0.00565416 0.00294486 -0.01226 
0.000426058 0.000349434 0.00700288 

-0.0272942 -0.0183132 -0.104944 
-0.0122026 0.0265621 -0.0470948 
0.0110044 -0.0167198 -0.100374 

-0.158485 -0.31307 -1.69606 
0.491803 0.190237 0.968007 
-0.0203887 -0.0153846 0.237546 

-0.0192383 0.0034512 -0.115909 
0.00157939 0.0110713 -0.160415 
-4.43578e-05 -0.000985306 0.0327675 

0.0316355 -0.0456448 0.0938537 
-0.0253494 -0.00442888 0.00739706 
0.0260598 -0.0491187 0.150876 

-0.059362 0.0391432 -0.193021 
-0.0982843 0.0639197 0.347557 
0.0204219 -0.0253451 0.138996 

-0.00216262 -0.00209068 -0.770871 
0.00848195 0.00082845 0.22158 
0.00152631 -0.000352628 0.172492 

-0.028223 0.0374919 -0.0787352 
-0.0359166 0.0172744 -0.102276 
-0.00197067 -0.00118109 0.0297864 

-0.00396639 -0.00844859 0.0371847 
-0.00487444 0.00570857 0.00891919 
-0.00422453 0.0076077 0.0184764 

-0.010064 -0.0257801 -0.193801 
-0.00295996 0.0264212 0.0336195 
-0.000939897 0.000250733 0.0570578 

-0.020586 -0.0265902 -0.156908 
-0.0227956 0.0210962 0.084691 
0.0011722 -0.000224408 -0.000363493 

-0.0132587 -0.0657712 0.0104628 
-0.0418368 -0.028978 0.473257 
0.00454102 -0.00883547 0.0675536 

-0.0377819 0.0262543 -0.00777155 
-0.0253635 0.012065 0.00836185 
-0.00183889 0.00186446 0.0364748 

-0.0111085 0.00235171 0.0457558 
0.001193 0.00689171 0.00585425 
-0.00137576 0.000825482 -0.0161965 

-0.0157874 0.00114342 -0.00480589 
-0.00124469 0.00873893 -0.00407107 
-0.00111155 -0.000263237 0.00293851 

-0.0168391 -0.00387902 0.0380489 
-0.0107628 0.011659 -0.0193075 
0.000701588 3.37582e-05 0.0102179 

-0.0200592 -0.0301744 0.147373 
0.00140742 0.0204641 0.0078998 
-0.00178575 -0.00219429 0.0522055 

-0.0143046 0.0105243 0.000100586 
-0.00467392 0.0162612 -0.00517463 
0.00155849 0.00137799 -0.00968346 

-0.00879672 0.0829873 0.0104967 
-0.0767107 0.00353392 -0.0147753 
0.00025098 0.00392056 0.0204797 

-0.01205 0.103376 0.0184993 
-0.117962 0.0468998 -0.619752 
-0.00276274 -0.00053459 0.00646847 

-0.0379635 -0.0110323 -0.0508796 
0.0748614 0.0319486 -0.0973833 
7.8162e-05 -0.000461168 -0.00928657 

-0.0501305 0.0281343 -1.28135 
0.334254 0.113979 0.85005 
0.00249816 0.00382004 0.0422286 

-0.00474867 -0.00241693 0.00200218 
0.0018711 0.00125527 0.00902633 
-0.000525666 4.40082e-05 0.00589447 

-0.0129185 0.0127978 0.0121551 
-0.0150647 0.00925374 0.0743217 
-0.00271867 0.000246851 0.0194714 

-0.0280542 0.000422498 -0.0263097 
-0.00750178 0.0116689 -0.112505 
-0.00568098 0.00541961 -0.0196084 

-0.0203071 0.0339091 -2.24552 
0.0289015 -0.0380615 -0.975107 
-0.0106953 0.00725678 -0.0857658 

-0.0387693 -0.0557313 -0.222337 
0.117307 0.0806594 0.0178994 
0.00311731 0.00177261 0.0211874 

-0.0226302 0.0116522 -0.0867647 
0.00515217 0.0218346 -0.0140708 
5.45259e-06 -0.00885229 -0.0135446 

-0.0113873 0.00153218 -0.0274326 
-0.0032663 -0.00393031 0.00951832 
0.000459096 0.000887215 0.0196038 

-0.0214938 -0.000402858 -0.00682635 
0.00959771 -0.00303656 -0.00196032 
-0.000659739 -0.000956816 0.0300107 

-0.0380619 0.126741 0.0788339 
0.0615381 0.135804 -0.087049 
-0.001551 -0.00176059 0.0287236 

-0.0409443 -0.0394891 -5.04498e-05 
0.0130395 0.055548 -0.0072921 
0.000627601 0.000861417 0.0100922 

-0.0172536 -0.0305581 -0.0544562 
-0.00316464 0.00458835 -0.0185686 
0.00271095 0.0210439 0.0944401 

-0.0283162 0.0202966 -0.0050534 
-0.0184264 0.00739312 -0.219023 
-0.000431961 -0.00141727 0.061676 

-0.0340016 0.0249415 0.0344555 
-0.0202316 0.0311385 0.0677161 
-0.000920016 0.00452375 0.00179933 

-0.0140947 0.0325438 -0.0132292 
-0.00895323 0.0292786 0.0101965 
0.00207455 -0.000123482 -0.00139153 

-0.150966 -0.0225173 -0.376374 
0.135111 -0.0055946 -0.223727 
-0.0577679 0.0282477 0.0887698 

-0.0144669 -0.0661126 -0.21098 
0.142518 0.0135678 0.346672 
0.0419499 -0.0323357 0.382494 

-0.0133848 0.00343018 -0.0667986 
0.00137798 0.0110451 -0.0658822 
0.000479147 1.59374e-05 0.0238626 

-0.00443331 -0.00729473 0.0369269 
0.0014228 0.00122362 -0.00746717 
0.000383174 -0.000777903 0.00515066 

-0.21575 0.108561 0.198658 
-0.14348 0.291294 0.473137 
0.0610613 0.0217694 -0.0814511 

-0.0184575 -0.00754205 -0.0118597 
0.00645095 0.00471319 -0.0187947 
0.00172025 0.000162303 0.0225536 

-0.0378882 -0.00581739 -0.183494 
0.130548 0.0704974 0.268429 
0.00156983 -0.000430963 -0.0138783 

-0.0150916 -0.00188001 0.0216763 
0.000549909 0.0130128 -0.0135853 
-0.000934902 0.0001048 0.00984315 

-0.0149856 -0.000929455 -0.163463 
-0.00432479 0.00625249 -0.103776 
4.59563e-05 0.00113645 0.0513999 

-0.0169373 0.00367935 -0.00156269 
0.00735554 0.0105374 -0.011221 
-0.00152953 -0.000490397 0.00579914 

-0.597932 -0.0194384 -2.17056 
-0.0427148 0.452655 1.02886 
0.0454041 -0.0312776 -0.130458 

-0.0157018 -0.0124978 0.0754417 
0.00301436 0.0132032 -0.233127 
0.0218996 -0.00592542 -0.0768301 

-0.208141 -0.0584619 0.297987 
0.136917 0.179206 -0.503823 
0.00177058 0.00871362 0.0592913 

-0.0101763 -0.0244097 -0.493261 
-0.000711659 0.0121461 0.218978 
-0.0017249 -0.000221582 0.0561004 

-0.202511 -0.210005 0.0935039 
-0.0227057 0.124365 -0.0327446 
0.00247791 0.015185 0.186404 

-0.00804625 0.0192284 -0.0623138 
-0.0297222 0.0132765 -0.0256877 
-0.00087026 0.00032543 -0.00648834 

-0.00512505 -0.0207594 -0.0710594 
0.00424886 -0.0040423 -0.104249 
-0.00268283 -0.00061766 0.0789382 

-0.136937 -0.0615745 -0.122989 
-0.0313283 0.0873543 0.0950378 
-0.00325942 -0.00881768 0.0534868 

-0.00611944 -0.234636 -0.113091 
-0.111122 0.00996564 -0.0105563 
0.000602586 -0.00334265 0.0342806 

-0.497621 -0.065101 -0.642985 
0.0811443 0.250935 0.683106 
0.103221 -0.0624156 0.256815 

-0.140413 -0.404237 -1.16457 
0.0138762 -0.0779398 -0.136182 
0.000612973 0.048342 0.104636 

-0.0162782 0.0178605 -0.00268654 
-0.0448345 -0.0035488 0.177962 
-0.000746433 6.25333e-05 0.0127697 

-0.0461117 0.0343262 -0.0847119 
0.0119698 0.0367771 -0.0593538 
-0.0334857 0.056125 0.221546 

-0.0284198 0.0109327 0.0172358 
0.000232541 0.0125519 -0.154694 
0.000233491 -0.000434286 0.029126 

-0.0152442 -0.0199852 0.0276031 
0.000515509 -0.000977522 0.0423788 
0.00174436 0.00279814 0.00224232 

-0.0053439 -0.0952767 -0.0932123 
0.0414611 -0.0031043 0.0384911 
-0.0078753 0.0196038 0.0493127 

-0.21821 0.00448502 -1.89103 
-0.0133803 0.213503 0.826335 
0.017425 -0.00534523 0.383884 

-0.0388205 0.00100686 0.0608915 
-0.0216099 0.0154689 0.0318879 
-0.000920507 -0.00141522 0.0210835 

-0.0233192 0.019148 0.184827 
0.0152434 0.039846 0.442956 
-9.18495e-05 0.000120572 0.0393208 

-0.0155434 0.00304307 0.00126182 
0.000677862 0.0164962 -0.0249861 
0.000777456 -0.00241927 0.0139966 

-0.0225983 0.00836208 -0.0117417 
-0.00969305 0.0107138 -0.0112801 
-0.00100286 0.000295702 0.00470783 

-0.0889755 0.262057 0.563605 
0.123964 0.125448 0.429545 
0.000871714 0.00135735 0.00464482 

0.0460195 -0.295927 0.213792 
0.072016 0.00236711 0.0859851 
-0.00457593 -0.00376396 0.011629 

-0.0325097 -0.0106223 -0.123505 
0.0169835 0.0128945 -0.047129 
-0.000765165 0.000688385 0.0121329 

0.00418444 0.00660623 0.182627 
-0.00641269 -0.00194151 0.410198 
0.000292143 7.20431e-05 0.0200114 

-0.0255382 -0.0309298 0.138157 
0.048928 0.0428382 0.500668 
-0.000750826 8.74201e-05 -0.00395964 

-0.0272879 -0.0160109 -0.439828 
0.00684982 -0.00336333 0.194694 
0.00129996 0.00121711 0.259056 

-0.00415566 -0.0104801 0.0320578 
0.018364 0.00223844 0.0188712 
0.000318713 -0.000638316 -0.00237848 

-0.0125931 -0.0122138 -0.801074 
-0.0042565 0.00941564 -0.826875 
-0.000194704 0.000295337 0.00963066 

-0.0307076 0.0354216 -0.0289404 
-0.0527756 -0.000136067 -0.0274526 
-0.000552456 -0.0382569 0.163249 

-0.123502 0.0257217 -0.231682 
-0.0661665 0.0882348 0.115543 
0.010511 0.00905763 0.0135749 

-0.0217563 0.00372659 0.000494285 
-0.00351956 0.00946336 0.324893 
-0.000528757 -0.00126224 0.0395307 

-0.0223248 0.0159799 0.0517409 
0.00534506 -0.00252824 -0.0324209 
0.000962338 0.000623124 0.0260914 

-0.0140845 -0.00261259 0.0545657 
0.000908257 0.00258897 0.087173 
-0.00159698 0.000503185 0.0197058 

-0.0196451 0.0094972 -0.531866 
-0.00924788 0.016425 -0.895571 
-0.00265543 -0.00147787 -0.141073 

-0.0313425 -0.0448743 0.615484 
-0.00819082 0.0441269 0.174539 
-0.00127565 5.34959e-06 -0.00876094 

-0.0195554 0.00364343 -0.0322992 
0.00358399 -0.00268857 -0.00596644 
0.00150516 0.000265439 0.0265297 

-0.0225227 -0.0234599 0.0863968 
0.0123864 0.0267851 -0.01348 
-0.00192588 0.00376592 -0.11686 

0.0210533 -0.144623 -0.0827104 
0.0239351 -0.0231435 -0.0799175 
-0.0223694 -0.0175306 0.180175 

-0.0196039 0.0154803 -0.0403121 
-0.00659787 0.00634577 0.0440192 
-0.00256756 0.000104953 -0.0321901 

0.00148552 0.0782421 0.0588531 
-0.0273661 0.00849845 0.0574638 
-0.000466766 -0.00100216 0.00590688 

-0.0197942 0.00244141 -0.0281846 
0.00891086 0.0162858 0.0544607 
-7.39301e-05 0.00158261 0.0150605 

-0.0153414 -0.00818653 0.00430378 
0.00949843 0.0054965 -0.0187577 
5.80024e-05 0.000373902 0.0140555 

-0.00782589 0.00364391 0.20291 
-0.0165102 -0.00113047 0.116405 
-0.000676415 -0.000370323 0.00782167 

-0.0409943 0.00816005 0.0130841 
-0.0493516 -0.000900862 -0.0148732 
5.68295e-05 -0.00132325 0.0478152 

-0.156276 0.0326375 -0.316217 
0.169106 0.0466451 0.0136835 
-0.0253047 0.0176962 0.194879 

-0.0251838 0.00135352 -0.294122 
-0.0116918 0.00548196 0.115482 
-0.0326023 -0.0234621 0.307742 

0.0224255 0.0392348 0.184942 
0.136016 -0.00350411 0.23462 
0.00065397 0.0026892 0.0431006 

-0.0237481 0.00063615 -1.77723 
-0.00907642 0.0139947 -1.1882 
7.09549e-06 0.000247291 0.110118 

-0.0170904 0.00975 0.0313012 
-0.00193612 0.00707236 0.0511501 
-0.000645761 -0.000920238 0.0447171 

-0.0377516 -0.0274988 0.175117 
0.0222229 0.00956572 0.0981025 
-0.000324152 -0.00160611 0.00897636 

-0.036413 -0.0589528 0.0597874 
-0.0280393 0.0390394 0.19947 
-0.00168036 0.00086854 -0.00487952 

-0.00815698 -0.0842369 -0.0585335 
0.0826824 0.0144277 0.00657614 
0.000609678 -0.000663558 0.00664125 

-0.0173995 -0.00615229 -0.685065 
0.00184423 0.0097998 1.55721 
-0.000137974 -0.000416111 0.104071 

-0.323816 -0.201951 -0.760797 
0.118966 0.329968 -0.292187 
0.000751395 0.00083662 -0.00687335 

-0.0269459 0.0614329 0.0369122 
-0.0701274 0.0656372 0.0733183 
-0.00523536 -0.00643759 0.0191213 

-0.00373628 0.0163652 -0.032909 
-0.0104849 0.00347276 0.306339 
0.000807356 0.000428663 -0.011869 

-0.120295 0.11835 -0.187707 
-0.0533616 0.142142 -0.134762 
0.0916017 0.0340754 0.201947 

-0.0532056 0.0595907 0.323102 
-0.128824 0.0390827 0.00282991 
0.00147144 -0.00295188 -0.00837723 

-0.0405554 0.012671 0.292961 
0.0135292 0.0393761 0.0234149 
-0.00192752 0.00252955 0.00624063 

0.0271406 -0.0429233 -0.452933 
-0.119381 0.00822448 -0.0242446 
0.00711799 0.00826788 -0.0857383 

-0.0280075 -0.0372529 0.422476 
0.0376893 0.0233313 -0.104057 
0.000468409 -0.000137291 0.00874907 

0.000248253 -0.025442 -0.0230072 
0.0318848 -0.00778938 0.00749145 
0.00163064 -0.00309928 0.0162045 

-0.0175556 0.0228893 -0.277441 
0.0836189 -0.0454138 0.195264 
0.0228986 -0.00326124 0.0957752 

-0.0246004 -0.0151871 0.00564348 
0.0182888 -0.010881 0.0671563 
0.000314285 0.00772943 0.123161 

-0.0120869 -0.0395347 0.0825388 
0.0509656 0.0113537 -0.0143996 
0.000410734 8.70935e-05 0.00700995 

-0.0101478 -0.0111317 0.266932 
-0.00674959 0.00364573 0.136933 
0.00101222 0.000263212 -0.0095805 

-0.0192402 0.00966856 0.0692754 
-0.0181943 0.0213942 0.0473004 
0.000339526 -0.000621786 -0.000381664 

-0.0067591 -0.0165041 -0.0130403 
0.00591248 0.00659842 0.0494919 
-0.000288937 0.000346112 0.00976992 

0.00756319 -0.300204 0.0627656 
0.236148 0.0644427 -0.0215153 
-0.00209228 0.0134124 0.264609 

-0.129177 -0.0773583 0.375353 
-0.0293033 0.070655 0.23539 
0.00507093 0.028845 0.18518 

-0.0155496 0.00364824 0.0461321 
-0.0110545 0.00315251 -0.0792618 
0.000885143 0.000399671 0.0156378 

-0.013419 -0.00651099 -0.391633 
0.0374302 -0.0113428 0.30192 
0.00244781 0.000970665 0.0241182 

-0.0681521 -0.0143496 0.14892 
-0.0598166 0.0339279 0.0792994 
0.00249211 -0.00191752 0.00913804 

-0.0210245 -0.0160401 1.20942 
-0.0137719 0.0175319 2.35716 
-0.00063632 0.000122897 0.39143 

0.000102302 0.00216856 0.0479291 
-0.0727824 0.019783 0.00507606 
-0.000360102 -0.000956445 0.00785408 

-0.0321542 -0.0127695 -0.0589592 
0.00726508 0.0133313 0.0210232 
-0.00125602 -0.00100581 0.0935746 

-0.0242283 0.00640456 -0.248449 
0.00754435 0.0166075 0.734933 
0.00449109 0.00533308 0.0847787 

-0.0150896 0.01026 0.0632307 
0.00226961 0.00626163 0.126056 
-0.000373194 0.001108 0.0213266 

-0.0396647 -0.0639998 3.39103 
0.044494 0.0064802 -0.804089 
-0.00507674 -0.00263416 0.117101 

-0.0144867 -0.00190615 0.00772842 
0.0106413 0.00927569 1.55997 
0.0017451 -0.00248859 0.19445 

-0.0169388 0.00349473 0.0182161 
0.0110765 0.0208522 0.660325 
0.000510905 -0.000300432 0.027221 

-0.16758 -0.201615 -1.92071 
0.237031 0.275133 -1.82733 
0.00613651 0.0250974 -0.0632859 

-0.443033 0.140258 0.936588 
0.483056 0.369961 0.15179 
-0.0546974 0.034367 0.334711 

-0.0279687 -0.211971 32.6466 
-0.000685082 0.315678 -28.1819 
-7.93497e-05 0.00166822 -0.158179 

-0.0301573 9.35163e-05 -0.0668874 
-0.00684538 0.0106271 -0.0942265 
-0.0014317 -0.012687 0.0283037 

-0.0600139 -0.00878144 -0.175461 
0.101538 0.0725503 0.515061 
-0.00257556 0.00017971 0.0377958 

-0.0577615 -0.0407077 -1.47156 
0.0238042 0.229561 5.37912 
-0.00805131 0.00628614 0.132329 

-0.00760351 -0.052541 -0.12421 
0.0592725 0.0126375 0.0312587 
0.000472908 0.000111838 0.00752529 

-0.376055 -0.243964 0.0282419 
0.33587 0.321073 -0.223799 
-0.00701093 0.0245265 -0.00385327 

-0.0106045 -0.0201019 -0.00290995 
-0.000564109 0.01514 -0.036758 
0.000694349 -0.000168039 0.00716898 

-0.00231031 0.00534067 0.0235312 
0.0329352 0.00210534 0.043567 
-0.000475173 -0.000244218 0.00588588 

-0.0140338 0.00333673 0.0311575 
0.0033704 0.00778221 0.0314381 
-0.0195695 0.000615094 -0.450095 

-0.026633 0.00952257 -0.197537 
-0.000584723 0.034562 0.114095 
-0.000216111 -0.000821361 0.0335365 

-0.0130774 -0.00411585 0.00935297 
-0.00443641 0.0038443 -0.00340744 
0.00189637 -0.00214521 -0.00486953 

-0.036134 0.0120469 -0.0923661 
-0.0247006 0.0281975 -0.138778 
0.0071218 -0.000602222 0.0278125 

-0.0510934 -0.0169343 0.0375879 
-0.0286941 0.0454764 -0.0550539 
0.0320231 -0.00913816 0.105446 

-0.0737883 -0.0437072 0.113372 
0.011038 0.121071 -1.09613 
-0.00485765 -0.00885849 0.073725 

-0.01983 0.064712 0.00563568 
-0.0688628 -0.00191181 -0.00154905 
-0.000180338 -0.00341193 0.0307296 

-0.000979806 -0.00160678 -0.0509587 
0.00277654 0.00224014 -0.00840593 
0.000517603 -6.10695e-05 0.00635987 

-0.5968 -0.0701641 6.53031 
-0.445474 0.304716 -5.41375 
-0.00253511 0.011357 -0.0229298 

-0.0134919 -0.00619605 -0.00101217 
0.00648204 0.00627027 -0.000635725 
6.09829e-05 -0.00107439 0.00379249 

-0.0127689 0.0262182 -0.127696 
-0.0569135 0.0210872 0.0877103 
0.0031266 0.0013504 -0.0287045 

-0.0190622 0.00763272 -0.0359653 
-0.00567141 0.0130279 -0.0130933 
-0.00423113 -0.013633 -0.0353852 

-0.0379112 -0.0539563 -0.132113 
0.0206325 0.0378244 0.234554 
0.00131577 -0.000348998 -0.00546292 

-0.145813 0.114024 -0.0202706 
-0.142452 0.138135 -0.686963 
-0.0197008 -0.111684 0.886276 

-0.00440596 -0.00136752 0.00411588 
-0.00328059 -0.00632685 -0.00179111 
-9.716e-05 -0.000956434 0.0188154 

-0.0160153 2.5327e-05 0.0973275 
-0.00360747 0.00697008 -0.18389 
-0.00169769 0.00073952 -0.0372586 

0.0043246 0.00943242 0.149079 
0.0237655 -0.0443438 -0.0225698 
0.00095876 -0.00345324 -0.0201516 

-0.0231434 -0.00672604 0.026038 
0.00637414 0.00684343 0.0164282 
0.00290229 -0.00227401 -0.00404081 

-0.00737688 -0.00440993 0.0418318 
-0.00504016 0.00960531 0.051701 
-5.2646e-05 -0.000389992 0.00102661 

0.0215573 -0.235374 0.0207358 
0.289478 0.0585368 -0.0707264 
-0.00438772 0.0060236 0.00825581 

-0.0225788 0.00126937 -0.102455 
-0.00704519 0.0138946 0.0654899 
0.000299411 1.82422e-05 0.0131416 

-0.0293463 -0.0446176 0.369221 
-0.00746149 -0.0148893 -0.0208874 
-0.00301561 0.00365194 0.0984096 

0.0180559 -0.0332612 0.718745 
0.281219 -0.0691088 -0.684071 
-0.0395557 0.00715597 -0.0253884 

-0.0137389 -0.0163194 0.00689421 
0.0167397 0.00449339 0.0104694 
0.000689014 0.000923761 0.0123384 

-0.252064 -0.171845 -0.619941 
0.236433 0.162213 0.47325 
-0.0255081 -0.00653074 0.0820564 

-0.0377501 0.0181707 -0.150686 
0.112271 0.0541142 0.355922 
-0.00956654 0.0111506 -0.0781306 

-0.234902 0.232418 -0.425161 
-0.163729 0.210111 0.488196 
0.00215571 -0.00266081 0.125315 

-0.00285634 0.023802 0.221508 
-0.048968 -0.0178035 0.0868808 
-0.0652779 0.051727 -0.0240982 

-0.0123246 0.0234043 -0.0355933 
-0.031656 0.0153873 -0.0727468 
-0.0215046 -0.0105345 -0.027034 

0.00688643 -0.01156 -0.0422999 
0.0156742 -0.0313155 -0.012469 
-0.000649422 0.000456805 0.00471969 

-0.0198277 -0.000944577 -0.0297201 
-0.0118053 0.00798521 0.0284211 
0.00674581 0.0103406 -0.0203483 

-0.00863618 -0.02095 -0.00575248 