# vtk DataFile Version 3.0
Output file generated by Yade's KinematicLocalisationAnalyser
ASCII
DATASET UNSTRUCTURED_GRID

POINTS 13483 float
501.044 45.3094 -0.447082
608.316 86.6156 0.442432
111.421 6.16181 -0.439999
630.174 7.32471 -0.382221
437.982 8.47668 0.480508
294.492 42.9363 -0.455638
146.195 7.28765 0.467539
481.396 14.7764 0.199724
433.378 26.5608 -0.14777
577.323 18.6164 -0.608442
197.243 8.82288 -0.0890541
242.443 6.61318 -0.254995
527.378 60.809 -0.136791
521.996 25.3746 -0.101947
128.362 18.2986 -0.526952
206.402 37.1683 -0.416737
204.26 13.2433 0.285577
270.941 11.4939 0.472231
317.221 39.8477 0.456667
458.584 8.58767 0.369114
379.824 49.0618 -0.115019
488.767 52.7242 0.327546
631.365 58.0278 -0.509098
562.427 59.2892 -0.474983
406.195 19.8461 0.318272
224.486 47.7667 0.148076
426.667 36.6592 -0.468785
494.295 21.4317 0.262094
40.7082 16.8824 -0.458622
573.16 50.783 -0.333186
424.036 7.00455 0.557382
16.1529 23.3987 0.315581
622.773 87.9998 0.24343
434.77 2.16809 0.676315
72.1438 46.9344 -0.104448
443.675 40.949 0.370836
453.685 22.8069 -0.4585
318.787 23.8624 0.212882
453.212 37.2862 -0.367044
324.287 46.0955 -0.395951
226.989 14.5089 0.311229
386.258 48.9141 0.0793794
547.523 12.5789 -0.154943
180.041 6.33282 -0.42231
50.6214 7.25032 -0.101609
62.3474 8.93099 -0.237365
552.943 10.3236 0.686721
21.5302 12.5968 -0.338123
488.289 69.6957 0.383146
542.936 51.3425 0.334177
161.502 34.1259 -0.28579
604.231 69.5327 0.114258
31.7502 30.3402 0.119141
466.442 3.78957 0.66264
132.485 7.64889 -0.53236
493.949 43.4711 0.386262
432.667 32.2176 0.132725
163.482 0.953914 0.281128
29.9612 2.30953 -0.380874
322.852 19.2458 -0.249834
498.733 82.3411 0.131779
410.004 49.4513 -0.186827
360.644 1.04891 0.252951
561.179 13.22 0.701066
23.5987 46.1901 -0.255849
240.817 33.4079 0.29287
575.796 11.1475 -0.34881
547.804 89.1029 -0.353352
377.128 9.91185 -0.63023
480.022 8.02488 -0.430473
591.881 41.8397 0.469085
122.194 7.80818 0.272198
430.554 37.9427 -0.121789
421.958 17.743 -0.0930768
277.379 18.1546 -0.415385
18.877 14.3349 0.280458
616.357 66.5967 -0.31277
313.046 43.1352 0.276082
540.566 46.1523 0.356938
556.548 22.388 0.236095
623.168 19.0685 -0.236297
412.247 53.1347 -0.166307
86.1108 42.8811 -0.166275
551.345 67.7729 -0.221124
526.313 70.8286 0.096559
636.482 64.4425 -0.117448
617.672 0.690746 0.710358
272.308 33.0441 0.430241
526.749 6.11409 -0.172985
22.8634 6.35653 0.668611
125.649 42.1068 -0.0745193
448.893 17.8396 0.220861
614.62 54.384 0.498614
183.221 31.0116 0.22702
40.9046 39.0729 0.27256
433.614 1.12674 0.142655
222.52 8.49578 -0.470392
588.481 78.5387 -0.269152
607.497 52.2298 0.232044
333.159 28.4541 -0.263204
152.673 28.1131 0.434302
461.384 64.1967 0.399226
347.076 20.8993 -0.475084
374.315 39.873 0.108954
344.701 8.65641 0.433475
468.605 22.7085 -0.130196
635.792 11.3467 -0.363745
74.5772 42.0338 0.390468
308.939 6.14816 -0.194215
476.647 15.3021 -0.460803
335.798 58.633 -0.107127
22.3868 26.7085 0.460775
28.258 6.01529 0.315745
472.985 56.2415 0.434932
434.828 31.8249 0.170772
21.0694 41.2388 0.473852
87.2894 33.5493 0.217298
302.16 19.8022 0.332949
503.015 24.5356 -0.156837
419.127 57.8926 -0.336361
589.598 7.13292 -0.464585
581.195 6.34231 0.267292
359.12 47.5247 -0.0939955
521.306 46.1875 -0.12115
225.388 17.9224 0.549478
305.593 6.0629 0.610943
96.0639 33.2162 0.306641
108.984 25.1833 0.259627
457.736 59.9959 0.0741901
285.899 21.2879 0.478662
572.662 66.7712 -0.112117
554.961 86.2027 -0.103574
423.846 30.6554 -0.39116
617.935 36.1268 0.319187
384.527 30.2125 0.250012
262.17 26.1672 -0.318158
546.486 66.9919 0.288384
262.276 33.571 0.391614
489.765 13.8106 0.292789
315.682 40.9312 0.184445
445.906 13.9011 0.477277
338.339 39.4309 -0.0842894
386.777 21.9605 0.103002
301.3 47.9337 -0.452026
179.496 31.1915 0.11366
612.655 85.3128 -0.145913
634.128 13.5867 -0.32434
5.75495 12.9735 -0.428525
389.224 26.8277 -0.409405
35.6261 24.8495 -0.0992714
348.838 39.2902 -0.473701
363.142 29.8943 -0.273813
69.0739 12.0064 -0.532337
47.0227 37.2326 -0.437113
214.506 13.8153 0.472426
498.098 74.3136 -0.419681
490.621 22.7053 -0.527549
70.0219 21.3093 0.532238
563.164 63.5899 0.43693
609.769 19.4558 -0.579232
542.082 82.006 -0.491884
560.658 2.19738 -0.54493
469.522 42.721 -0.422554
489.289 54.3072 0.577542
445.653 23.3835 -0.503705
627.559 5.82181 0.440364
212.562 25.0777 -0.124658
122.45 37.8996 -0.197162
235.4 6.92347 -0.412423
87.9968 4.72407 0.290645
59.0347 10.9646 0.333977
263.223 39.7665 -0.29813
15.5745 24.9974 -0.386549
477.03 36.1869 0.438104
492.917 70.8456 0.206691
414.144 26.8003 -0.376179
621.584 68.6765 0.361653
370.66 9.27022 -0.146706
392.37 43.2102 0.403337
469.145 9.73346 -0.251725
19.7569 25.6458 -0.447071
490.719 5.96794 0.565529
472.865 16.1364 0.291245
195.627 11.3867 0.506672
385.054 18.8387 0.250776
293.593 6.30135 0.585074
356.335 21.8425 -0.385183
592.313 68.3389 -0.122719
182.911 27.0221 0.492391
612.605 9.95543 0.41893
595.686 67.4955 -0.331068
351.566 13.1528 -0.272592
572.384 3.59068 0.525487
503.599 40.7403 -0.389382
589.656 23.395 -0.357535
393.554 51.1203 0.301151
440.58 13.588 0.597065
412.404 64.0012 0.233997
401.49 11.4095 -0.205176
545.692 83.1398 0.254153
537.545 72.1968 -0.306763
182.626 42.3594 -0.38417
621.069 18.8084 -0.21849
490.536 53.4382 -0.294694
10.2619 19.2245 0.165992
371.164 31.0834 0.368138
178.124 23.548 -0.401688
87.5177 44.1385 0.262121
615.029 48.1622 0.439547
537.407 83.6185 0.245199
300.524 29.7757 0.341812
462.497 18.9512 0.343092
76.9832 47.8287 -0.170827
234.95 27.3541 -0.48691
477.749 41.358 0.381187
431.202 22.1309 0.436533
251.298 0.888362 -0.366574
465.426 70.4575 -0.399705
451.732 58.4369 -0.591297
424.102 51.9484 0.391644
443.794 2.21908 -0.661171
565.101 28.7638 0.538461
170.122 12.7416 -0.246295
432.444 58.2197 -0.423708
476.387 69.7768 0.151471
67.863 0.965143 0.313517
240.467 4.91966 0.171317
633.531 17.2084 -0.263501
622.733 21.0691 -0.558278
638.478 23.0406 -0.523485
286.581 8.62704 -0.272123
593.062 31.5832 -0.449706
380.604 53.8813 0.337747
404.326 0.833069 0.644422
531.955 71.5058 -0.419974
23.6951 32.1116 -0.298898
313.01 46.5393 -0.663182
241.395 3.0821 0.454607
624.787 85.4124 0.169757
573.39 81.2127 0.110982
273.17 13.0401 0.269711
540.904 58.9809 0.0844628
475.61 8.87337 0.40655
469.907 18.4567 -0.51861
90.0329 19.0295 -0.513432
287.164 0.959887 -0.232513
319.234 2.18674 -0.406133
13.0648 7.42055 0.479254
4.64313 34.4744 0.233071
153.89 18.9723 0.363995
63.3659 44.8637 -0.235076
61.0573 31.3706 0.294316
384.101 17.5179 -0.502128
341.783 42.3401 -0.525594
603.148 71.5471 -0.118239
18.7015 4.22385 -0.287234
65.5145 7.26572 0.193011
505.293 68.9171 -0.143406
278.881 0.936094 0.444209
336.174 22.1437 -0.0879839
225.078 4.64371 -0.372029
532.139 48.2394 0.188027
406.275 8.36414 0.553662
594.128 28.4846 0.356285
516.904 50.3549 0.337018
544.604 40.0528 0.104578
381.515 34.5465 0.523095
97.6561 47.6686 -0.318216
457.456 65.5002 -0.104226
591.543 12.912 -0.312335
227.892 33.9747 -0.253698
29.8541 19.2152 -0.168088
314.461 14.8632 0.613667
102.013 42.0313 -0.466213
255.793 45.7582 -0.240967
389.479 3.23103 -0.262636
617.392 58.3081 -0.418932
555.452 2.77238 -0.66037
309.151 4.27502 0.495824
283.42 33.4835 -0.144644
411.941 60.6622 -0.204032
76.3264 8.04066 0.487673
188.567 48.204 -0.380141
609.322 52.166 -0.360343
442.865 72.1135 -0.0680293
190.261 43.5073 0.306298
152.832 45.3393 -0.282052
636.545 52.9175 -0.407229
635.823 13.1663 -0.563595
518.953 4.90697 -0.538433
181.884 24.9427 -0.0873588
467.679 47.6652 -0.102553
471.505 47.0316 0.285521
375.109 6.56904 -0.147932
428.777 0.901427 0.426023
597.872 78.2386 0.465321
80.7166 33.3073 0.22266
537.952 37.9387 0.435092
260.753 17.2014 -0.311268
8.74738 2.41158 -0.31324
120.653 39.055 -0.183475
63.1567 25.1678 -0.472948
568.853 59.4483 0.306675
630.365 88.1151 -0.158998
177.075 28.5745 -0.182171
630.701 17.1233 0.554149
41.4913 40.9278 -0.257724
86.108 31.9458 0.154363
530.321 26.178 -0.44183
376.086 21.9456 -0.491258
452.137 23.8912 0.118584
227.837 32.0281 0.190949
520.605 12.7538 -0.64036
637.468 11.2115 0.586875
26.5345 33.099 -0.267235
258.238 7.99345 -0.27299
212.534 15.7184 0.290165
1.08973 38.723 0.157881
215.654 15.0013 0.387152
201.885 11.168 -0.116091
204.082 27.0786 0.282049
126.239 29.3608 -0.139537
472.557 29.339 -0.33076
158.873 14.7154 0.338664
620.491 85.351 0.215663
165.443 3.87541 -0.507936
43.8348 42.3085 -0.383809
583.433 72.0143 0.461215
267.813 34.7319 0.408245
546.608 49.5915 -0.490987
622.868 52.0747 0.521847
284.877 9.63476 0.175872
585.307 42.7712 0.354668
307.367 2.72531 0.673234
377.553 30.1186 0.384892
550.094 33.3287 -0.562101
99.6707 12.1678 0.54627
430.919 3.70577 -0.529925
598.084 28.3937 -0.228837
83.1305 7.72497 -0.376264
268.658 16.6016 0.206414
385.323 13.364 0.254867
628.691 2.96305 -0.482412
365.335 1.75807 -0.647629
168.003 41.0962 0.324863
594.523 11.0427 -0.506399
123.974 39.4251 -0.197998
250.233 33.8869 -0.374189
367.949 23.395 0.211597
492.019 15.711 -0.351754
355.266 10.5893 -0.506396
410.208 33.5803 -0.486063
608.684 88.1143 0.389454
44.0276 12.4577 0.133543
286.128 49.9528 -0.262491
353.667 34.1662 -0.363732
373.332 24.3392 -0.306609
442.562 55.2596 0.475971
600.096 71.4741 -0.195618
541.756 69.7482 -0.361821
214.45 35.6559 0.385137
13.0143 36.2308 -0.150811
539.553 72.1711 0.119195
445.832 62.5012 -0.46298
219.313 40.4524 -0.116893
551.644 55.2711 -0.120844
143.529 9.62999 0.23193
341.257 29.0256 0.2951
413.425 62.0434 0.121785
377.332 23.4067 0.204143
604.79 88.1839 -0.290767
388.619 6.28693 0.509991
46.6454 27.7628 -0.309349
417.26 44.786 0.336851
395.071 45.7991 0.358988
614.605 67.9725 -0.23008
584.43 46.3203 0.23801
468.844 33.3227 -0.144497
608.067 76.6755 -0.430077
278.565 2.17946 -0.506699
354.341 37.1939 -0.452701
24.5618 41.1951 0.360179
590.16 44.7184 -0.144688
510.267 32.5733 -0.479305
414.89 0.786935 0.63455
119.307 4.75051 -0.360139
390.572 52.459 0.100718
11.1361 0.897442 0.369145
626.331 9.20278 -0.107427
[...]
POINT_DATA 13483
TENSORS Strain_matrix float
-0.0462367 0.12243 0.183149 
-0.143646 0.0649925 0.680426 
-0.00496839 -0.00746867 -0.0869401 

-0.00158058 -0.0220677 0.799797 
0.0546861 0.000543681 -0.121998 
0.000820009 -0.00125277 -0.010644 

-0.0109087 0.0168052 0.0214266 
0.00910246 0.0221319 0.224302 
-0.00482863 -0.0301186 -0.158429 

0.00753179 0.0494479 0.0364468 
-0.0650055 -0.0127909 -0.0956296 
0.00331471 0.00381096 0.0191662 

-0.0123032 -0.0486464 -0.103076 
-0.0294352 -0.0554041 0.0714492 
0.0132588 0.00801559 0.0835547 

-0.0581677 0.0619694 -0.448405 
-0.158115 0.117293 1.68972 
0.00242295 -5.41122e-05 0.329749 

-0.0221426 -0.0480334 0.0914129 
0.0464707 0.0120952 0.504111 
-0.00042072 0.000588263 0.110574 

-0.000142288 -0.00689338 0.0564694 
0.0148424 -0.00471499 -0.110163 
0.0114019 0.00877048 -0.0229867 

-0.243727 0.0646235 0.0108071 
-0.285955 0.122254 -0.461879 
-0.0701743 0.0207544 -0.0309782 

-0.0212256 -0.0292013 0.728032 
-0.00672485 0.00603069 -0.332386 
-0.000100096 -0.000501509 0.0813432 

-0.00221566 -0.0128011 0.0247807 
0.00545666 0.00647706 -0.0115387 
-0.00226446 -0.00103133 -0.00278604 

-0.00126039 -0.024785 0.0066747 
-0.0129025 -0.0587448 0.130755 
0.00626794 -0.00425366 0.0595687 

-0.051029 0.118838 -0.254657 
-0.224383 0.0956246 -0.116777 
-0.00224981 0.00109669 -0.0335195 

-0.0116111 -0.0616492 0.0765457 
0.0522646 0.0441577 -0.0342828 
-0.0286222 -0.0339272 0.0779382 

-0.093203 0.0518636 2.83991 
0.0226135 0.0682626 2.0003 
-0.00172003 0.00442697 0.105106 

-0.100641 -0.00286994 -0.428661 
-0.0157262 0.0943673 0.603389 
0.00445615 -0.0028329 0.0886827 

-0.0022451 0.00597628 0.000559827 
-0.00458589 0.00473757 0.0069709 
-0.000136464 0.000128844 -0.00327847 

-0.0844243 0.0221135 -0.0323218 
0.10154 0.00551509 -0.0777413 
-0.0794383 -0.0824348 0.403399 

-0.410817 0.0297964 -4.21866 
0.568381 0.223756 3.11392 
-0.0233321 -0.0144028 -1.03381 

-0.00229034 0.0273869 0.029598 
-0.0291261 -0.00821782 0.0784552 
0.00354047 -0.00144831 -0.0162238 

-0.312506 0.800878 -0.130686 
-0.038222 0.330174 -1.49987 
-0.0485162 -0.0625299 1.01639 

-0.00582241 -0.0969263 0.0423577 
0.0258853 -0.0210966 0.0407075 
-0.00037592 -0.00322141 0.0217526 

-0.00995851 -0.0309701 0.0512395 
0.0433817 -0.00448438 -0.0264393 
-0.000440029 0.000612912 0.0858361 

-0.00304933 -0.0321171 0.266969 
-0.0208497 0.0233552 0.0178755 
0.00139985 0.00410834 -0.00217486 

-0.0899389 0.289161 -0.957676 
0.175563 -0.0338576 0.246234 
-0.013151 -0.00281135 -0.0883944 

0.0351581 -0.0977415 0.283134 
0.126955 -0.0184105 -0.14634 
0.00218211 -0.0109697 -0.00348127 

-0.208338 -0.363006 -0.484712 
0.212701 0.196643 4.13187 
-0.00480194 0.000227757 0.0770075 

0.0166599 0.0371023 -1.00508 
-0.087678 -0.067768 0.0260999 
-2.65056e-05 0.0821869 -0.0157999 

-0.0398632 0.0146214 0.296762 
0.0133769 0.030208 0.4168 
0.00727611 0.0121503 0.0297023 

0.0440434 -0.0018042 -0.216027 
0.00370574 -0.00868898 0.00871591 
-0.000529328 -0.000587671 -0.0110656 

-0.0556362 0.0976181 -0.0910969 
-0.0846096 0.0760831 0.0750607 
0.0141517 0.00834759 0.0161955 

-0.0559736 -0.109217 -0.224032 
0.208418 0.0619714 0.614835 
-0.00255961 0.0279501 0.110175 

0.0365611 0.0612685 -0.805299 
0.102424 -0.0308882 0.00622005 
0.00311149 -0.0180903 -0.121328 

-0.0399323 -0.0118606 0.245242 
0.000605289 -0.0309977 0.585949 
-0.0100099 0.0437272 -0.39529 

-0.00655554 0.0183023 0.0209946 
-0.0182228 0.0105099 -0.0275158 
3.10873e-05 0.000545461 0.00394703 

-0.080724 -0.0115215 0.524149 
-0.136643 0.0279909 -0.86819 
-0.000297428 0.00648121 0.064174 

-0.0886028 -0.177461 -0.705292 
0.185522 -0.00522194 0.728895 
-0.00905494 0.00187075 0.0111929 

-0.0417841 0.00133556 -0.076859 
-0.138195 -0.0325154 -0.171089 
-0.00666447 0.00328202 0.0438647 

-0.0387778 0.00471276 -0.109524 
0.00856686 -0.0042202 -0.061445 
0.00137479 -0.00321622 0.0476874 

-0.204589 -0.0834826 1.61463 
0.123925 0.231089 5.71743 
-0.0046462 0.00303948 0.0193077 

-0.0103602 -0.105076 -0.278652 
0.0792839 0.0133173 -0.192375 
-0.00213674 -0.0056455 0.199204 

-1.43628 0.459676 -0.323926 
-0.305046 0.707015 2.31014 
0.00252151 0.00959684 0.090072 

-0.148661 -0.128695 -0.134609 
-0.0736174 0.0911525 -0.266456 
0.0132615 -0.0307694 0.143008 

-0.0162788 0.0360399 -0.122496 
-0.0117038 0.000521224 -0.112004 
0.0495082 0.0349314 -0.29794 

-0.00747928 -0.0050518 -0.00389477 
-0.00555225 -0.000425107 0.00308638 
0.00143385 -0.00244579 0.0174354 

-0.00786259 -0.00153321 -0.00322375 
-0.000120857 -0.00491085 0.0339559 
-0.0103156 -0.00734703 -0.00523783 

-0.246063 0.0336738 0.859543 
-0.128384 0.136093 0.554471 
-0.00359898 0.00466635 0.362104 

-2.15225e-05 -0.0113083 -0.0693101 
0.0246957 -0.00672094 -0.00376108 
0.0019636 -0.00109026 0.0439201 

-0.0118652 -0.0496581 -0.0954311 
0.0347393 0.00330876 0.110601 
-0.000846014 0.00112646 0.00903602 

-0.00548998 0.0465933 0.0193133 
-0.0140631 0.0135532 0.0327352 
0.00105439 0.00279748 -0.052311 

-0.00277094 0.0435479 -0.246041 
-0.0196582 0.0173324 -0.137623 
0.0118609 0.0179928 -0.0528798 

-0.135841 0.34521 -1.20994 
-0.0974433 -0.0038923 0.364479 
0.00256612 -0.0177915 0.0875977 

-0.0040812 -0.0194789 0.0119158 
0.0102133 -0.00147056 0.062907 
-0.00357589 0.017917 0.159039 

-0.0875441 -0.0933815 -0.0628116 
0.0763607 0.0374915 -0.427747 
-0.00178559 -0.00979641 0.155946 

-0.0393695 -0.0788041 -0.058199 
0.0491565 0.00418804 0.243364 
0.0177723 -0.0178251 0.0761325 

-0.0929713 0.0718255 -0.921245 
-0.0616222 0.117158 -0.404431 
-0.001992 0.00400181 0.0164254 

-0.371988 -0.299719 -0.0555547 
-0.616138 0.0403189 -0.433516 
0.0163554 0.0224486 0.082833 

0.00177266 -0.0145944 0.103294 
-0.00135118 1.77601e-05 0.00895862 
-0.000463101 -0.0277079 0.0843216 

-0.0274576 0.0465497 -0.153849 
-0.0266453 0.0274772 -0.0884545 
0.000444562 -0.00165691 -0.0237825 

0.0197199 0.261624 -0.556743 
-0.0539626 0.112467 0.663471 
-0.0280047 0.0450031 0.060804 

-0.0764675 0.345558 0.626872 
-0.0466068 0.0564432 0.827961 
-0.00270295 0.00208984 0.0787309 

-0.255598 0.119047 1.46978 
0.0644388 0.206681 0.918056 
0.00048241 -0.00981123 0.0679256 

-0.0146944 0.0592592 -0.169368 
-0.0129065 -0.0177775 -0.422731 
0.0246393 0.111276 0.148656 

-0.0130481 0.00644438 1.4144 
-0.0179099 0.00283665 0.519721 
-0.00156146 0.00132904 0.138827 

-0.133964 0.0401823 0.30315 
-0.135695 0.0574285 0.148451 
-0.0455689 -0.0408018 0.262384 

0.0637066 -0.0961211 0.431145 
0.0623499 0.065332 -0.515739 
0.00121035 0.00127161 0.00816557 

-0.00686576 -0.00157706 -0.0057451 
-0.00877001 -0.00841113 -0.001182 
0.00168877 -0.000851717 0.0132634 

-0.0101927 0.00254029 0.0789477 
-0.0715795 0.00221585 -0.141257 
-0.0112803 -0.058842 0.923688 

-0.0571952 0.0292583 0.511749 
0.022785 0.0279378 -0.244265 
0.00522195 -3.09218e-05 0.571049 

-0.118977 -0.219164 -0.651171 
0.0325433 0.235058 0.171605 
-0.000578889 -0.0143746 -0.0676544 

0.0956975 0.263358 1.13573 
0.10604 -0.137154 -0.197915 
-0.00773958 -0.00312655 0.00458118 

-0.0308395 0.0314163 -0.0542075 
-0.0448826 -0.000337258 -0.0334997 
-0.00205572 0.0147247 0.0115168 

-0.0426193 -0.277024 0.227373 
-0.226057 0.0671752 -0.25728 
0.0260701 0.0162133 0.0249357 

-0.0147968 0.140477 0.0555984 
-0.170463 0.027948 0.210165 
-0.00127875 0.00742378 -0.0279108 

-0.117389 -0.0359085 2.40778 
-0.0369824 0.0347256 1.14663 
-0.0196769 0.0172239 -0.29878 

-0.0118657 -0.00478666 0.374983 
0.0140351 0.00395413 0.0677369 
-0.00781045 0.000456585 0.109052 

-0.0162788 -0.0441634 0.486316 
-0.00405063 -0.0161477 0.213734 
-0.00117182 -0.00049569 -0.0330886 

0.0529782 -0.2592 -2.18425 
0.254231 0.0461409 1.75037 
0.0543607 0.00417155 -0.219826 

-0.0137995 0.0568652 -0.0379892 
-0.0330341 -0.0215527 -0.462785 
0.00104333 -0.00187318 -0.15949 

0.0184861 0.0225351 0.00310186 
-0.0917001 -0.0335528 -0.00986771 
0.0014243 0.00272743 0.0362556 

0.010133 0.0178696 0.000991159 
0.0326116 0.00702672 -0.0135052 
-0.000758956 0.00120884 -0.0365926 

-0.178369 -0.226353 0.558209 
0.202727 0.133351 -0.0780954 
-0.000161679 -0.00354863 -0.00557263 

-0.00639606 0.00713625 0.0200145 
-0.00757857 0.00344843 0.00621664 
0.00100666 0.00101873 0.00447976 

-0.0174146 -0.0337872 -0.283695 
0.0122307 0.030268 -0.146432 
-0.00908632 -0.016741 0.0869515 

0.026359 0.118542 0.105981 
-0.218084 0.00361333 0.0505176 
-0.000472105 8.77332e-05 -0.0021401 

0.0137721 0.00489718 -0.0183882 
-0.00631166 -0.0221751 -0.041268 
0.000978283 -0.000310259 0.0282612 

-0.220872 -0.436383 -0.677239 
-0.0714665 0.206342 -0.422667 
-0.0104796 0.0710545 -0.303662 

-0.0807711 -0.23316 0.390044 
0.438248 0.0929049 0.223323 
0.00395396 -0.00152995 0.06453 

-0.0391438 -0.137034 -0.108093 
-0.0116312 0.0714103 -0.112316 
0.00552434 -0.00799198 -0.104686 

-0.0361312 0.0415288 -0.530623 
0.00792684 0.0024056 1.12429 
-0.000644705 -0.00332562 0.321562 

0.00247593 -0.0604932 -0.00173994 
0.0662785 -0.0142033 -0.0257967 
-0.00112269 0.00016613 0.00662881 

0.00427406 -0.695618 0.00516233 
-0.00499468 0.0507516 0.238748 
0.0542386 0.00275403 0.0247618 

-0.0388357 -0.0131423 -0.680104 
0.00455287 0.0288753 0.0395188 
0.00195907 0.00140099 -0.0148773 

-0.012347 -0.0147126 -0.00115732 
0.099744 0.00845522 -0.0683382 
-0.00260511 0.000875821 0.0296968 

-0.0658008 -0.0644655 0.568981 
-0.0114476 0.0886848 0.0579357 
0.00592357 -0.00669314 0.0178433 

-0.0329071 -0.00586349 0.00912662 
0.00021058 0.00408034 0.0128957 
-0.00307086 0.0123827 0.045493 

-0.00128626 -0.0015556 0.0855659 
0.00756084 -0.0203527 0.0441629 
0.00240311 -0.00359481 0.0791967 

-0.0059143 -0.00251605 0.0629445 
-0.000635156 0.00584999 -0.0272074 
-0.000150811 0.000652693 -0.00176383 

-0.0192254 0.00340035 0.171443 
-0.055591 0.0297185 0.107521 
0.00307562 0.00215144 0.0285321 

-0.0888608 0.102464 -0.0839902 
0.159758 0.0331948 0.0475529 
0.0344735 0.0231287 0.064071 

-0.0361637 0.0399069 0.0177442 
-0.0459748 0.0588994 -0.19312 
-0.00339045 -0.0042472 -0.0857162 

-0.037579 -0.26506 -0.913203 
-0.0308998 0.0670464 -0.477626 
0.0166046 0.0267287 0.456133 

-0.20252 0.418288 0.139373 
0.067468 0.217307 0.637489 
0.0389556 0.0394494 0.283493 

-0.0556669 0.355927 -0.226409 
-0.163169 0.0679426 -1.18655 
-0.00409192 0.0141477 0.0426318 

-0.0286416 0.288479 0.144851 
-0.422536 0.0839121 0.0399514 
0.00257013 0.00342218 0.388063 

0.0613524 -0.158227 -0.127575 
0.0944792 -0.087188 -0.143154 
-0.00937228 -0.00213919 0.0163396 

-0.0326229 0.0251237 -0.020724 
-0.0568772 -0.0202458 0.0203916 
-0.00298296 0.00346683 0.0278463 

-0.00224438 0.00721824 -0.097553 
-0.000812877 -0.00386044 0.127569 
0.00112611 0.00264971 -0.000827393 

-0.0215405 0.186687 -0.172027 
-0.285279 0.100702 0.07241 
0.0560581 0.0348924 0.181219 

-0.133727 0.0374249 -0.78674 
-0.168481 0.106356 -1.38537 
0.0109038 0.00530816 0.107417 

0.208753 0.0391971 -0.634349 
-0.376581 -0.00744615 0.304361 
-0.0963719 -0.0475723 0.419755 

0.0146854 -0.0511871 0.351196 
-0.0168636 0.000607457 0.0245377 
0.000615077 0.000785672 0.00391904 

-0.0316811 0.079816 0.0689861 
-0.0779429 0.0499153 0.0732745 
-0.0274621 -0.0483776 0.0552211 

-0.030171 -0.0666008 0.788353 
0.161281 0.0058463 0.237469 
-0.011445 0.00142089 -0.0819262 

-0.0252085 -0.307704 2.07429 
0.0297975 0.153362 1.10659 
-0.00362401 0.00594602 0.0051946 

-0.00636244 0.00232239 1.15516 
-0.128028 0.0462891 0.358435 
0.00213408 0.00146306 0.253499 

-0.00116495 -0.0481094 0.00899954 
0.0532486 0.00686367 -0.0242296 
-0.00218553 0.000986629 -0.00924698 

0.0175022 0.0271411 -0.0207937 
-0.0837708 -0.0825809 -0.178753 
0.0238034 -0.0216295 -0.0378659 

-0.246803 -0.205136 0.129428 
-0.0689607 0.281349 0.109809 
-0.0547139 -0.0198578 0.182223 

-0.0499687 0.0239261 0.728931 
0.0577566 0.0148162 0.366571 
-0.0103481 -0.0433465 -0.188386 

-0.00768826 -0.00128321 0.00868577 
0.00962912 0.00195618 -0.000565447 
-0.000323422 0.000574061 0.00481428 

-0.000276459 -0.00519095 -0.00265168 
0.00505353 -0.00287408 -4.14975e-05 
7.93184e-05 -0.000358043 0.00375322 

-0.129406 -0.187373 0.18246 
0.207785 0.165825 0.146603 
0.0505525 -0.0419658 0.553093 

0.00372203 -0.406092 0.6333 
0.131275 0.0236101 -0.571284 
0.00577292 -0.128542 0.299417 

-0.0354999 -0.0258589 -1.16481 
0.00565445 0.0241118 0.223438 
0.00210479 0.00175487 0.448303 

-0.400282 0.0300094 1.65431 
-0.066947 0.196318 -1.51612 
-0.0533974 -0.0200711 1.71503 

-0.00487925 -0.00114817 -0.00863498 
-0.0189834 0.00789299 -0.0357634 
-0.000487598 0.000313223 -0.00556241 

0.0091136 -0.0282093 0.0359364 
0.00850177 -0.0122968 -0.0142325 
-0.000102191 -0.000229156 0.00493547 

-0.0715347 -0.00905688 -0.0952854 
0.120076 0.0403562 0.185068 
-0.00727606 -0.0118241 0.30643 

0.0984235 -0.450704 1.4832 
0.376333 0.217777 0.0128404 
-0.00895248 0.00589765 -0.0324871 

-0.149337 -0.14769 0.233918 
0.0395254 0.183679 -0.236114 
0.0134057 -0.0326061 0.316872 

0.196424 0.122312 -0.476185 
-0.242069 0.00367628 0.250017 
-0.000452682 -0.0250707 0.596128 

-0.196097 0.179476 -0.0042854 
0.0145536 0.153994 2.38544 
-0.0200292 0.00334922 0.090122 

0.0193706 -0.0800176 -0.0805252 
0.0667957 -0.00981676 0.00508835 
0.001576 -0.00146842 0.00682789 

0.0100201 0.119901 0.234058 
-0.096143 -0.0111636 0.0380706 
-5.13473e-05 -0.000295488 -0.0121937 

-0.00859684 -0.029182 -0.0187827 
0.0145046 0.00550657 0.0134088 
-0.00023883 -0.000519123 0.00360742 

-0.00570044 -0.0331457 1.01901 
0.0401183 0.0217873 -0.0976342 
-0.00496261 -0.00355953 0.0406894 

-0.0525836 -0.0232567 0.446008 
0.0146532 0.0742699 0.961424 
-0.0026466 -0.00241179 -0.0913989 

-0.0558395 0.0429237 0.0574901 
0.0178943 -0.00636344 0.299525 
0.00742176 -0.0203509 -0.0264152 

-0.309832 0.0464724 0.69562 
0.527074 0.197703 0.676287 
-0.0473256 0.00881111 0.669169 

0.0702405 -0.22049 -0.569026 
-0.0444634 0.000339683 -0.23756 
0.00174547 -0.00202843 0.00581579 

-0.0374767 0.117074 0.0179605 
-0.130637 0.114647 0.032458 
-0.00256207 -0.00122863 -0.00212501 

-0.140815 -0.294657 0.315688 
-0.21374 -0.0137184 -0.230264 
-0.00896146 -0.0247605 0.0866514 

-0.0275134 0.226613 0.485225 
-0.259644 0.076079 0.232018 
1.82016e-05 -0.0301931 0.214449 

0.0273052 -0.0550117 0.206165 
0.0348056 -0.0666138 0.132731 
-0.00164344 -0.0149298 0.0115829 

-0.0301353 0.0434966 0.0972674 
0.0925049 0.0235459 -0.079112 
0.00458916 0.00802534 0.0437408 

-0.0705847 0.0127579 0.0150558 
-0.0504624 0.0277843 0.100177 
0.00724161 -0.00532809 0.0459117 

-0.0155047 0.0108806 -0.0457664 
-0.00893645 0.001858 0.00885375 
-0.00148847 -0.000343745 0.0257357 

-0.0164505 0.0864345 0.302886 
-0.0642718 0.0201193 -0.566952 
-0.000151617 0.00185777 0.00773078 

-0.00444638 -0.0723764 0.0826697 
0.0111556 -0.00489614 0.0486194 
0.00219737 0.00101333 -0.0290178 

-0.037154 0.141465 1.29957 
0.0362078 0.0322962 -0.0482657 
-0.00396687 -0.00214034 0.220903 

-0.287744 0.216255 1.37251 
-0.130271 0.308918 0.735943 
0.0102391 0.0179751 0.143633 

-0.0139287 -0.0092433 0.0874628 
0.00706249 0.00432242 0.083752 
0.00205999 -0.00287926 0.00287314 

-0.00605262 -0.0823168 0.546691 
0.0454735 0.0100423 0.490598 
-0.0143162 0.00868853 -0.0646822 

-0.0149403 0.00356133 -0.46217 
-0.0148435 0.0258425 -0.581309 
0.00304214 3.13102e-06 0.0579746 

-0.00901889 -0.0887672 0.0179598 
0.0822444 0.0107195 0.0223081 
0.000488267 0.0002928 0.0259977 

-0.0108966 -0.1562 -1.08612 
0.190694 0.0266567 -1.64002 
-0.0273445 -0.0208612 -0.46697 

-0.00524298 -0.0104006 0.867599 
-0.0105056 0.0222348 1.19039 
-0.000476016 -0.000671829 0.00728702 

-0.0464188 -0.0288318 0.156434 
-0.0132362 -0.00606142 1.77447 
0.00880931 0.019578 -0.207526 

0.0716784 -0.0536487 0.411611 
0.0380513 -0.318125 0.655357 
-0.0232666 -0.0358959 0.192674 

-0.066482 0.0299158 1.50946 
-0.0567193 0.0880609 -6.65507 
0.00143357 -0.0119515 1.0603 

-0.0110311 -0.0148517 0.0116644 
0.00352545 0.014365 -0.0406853 
-0.00415573 0.00185183 0.0125535 

-0.0553258 -0.140405 -0.91866 
0.246815 0.0322985 0.633465 
-0.00102131 -0.00237789 0.0309043 

-0.0455967 -0.0411024 1.52569 
-0.000557663 0.0405509 -2.48239 
-0.00038589 -0.000703318 0.0587528 

-0.170032 -0.0462846 -0.298204 
0.0586398 0.0435286 -4.45802 
-0.000389615 -0.00235478 0.153248 

-0.0311421 0.000810074 0.046005 
0.0263714 0.00910152 -0.0052966 
-0.00166099 0.00164449 0.0333829 

0.00157431 -0.0227944 0.00706085 
0.00181818 0.00439399 -0.0550004 
-5.39825e-05 -0.000292504 0.00661397 

0.0089773 -0.0218394 0.272852 
0.0554036 -0.00481171 -0.0492421 
-0.000253465 0.000184606 0.0207514 

-0.0190728 -0.00786659 -0.0138405 
0.0288651 -0.0125687 0.307745 
0.00213454 -0.00299994 0.0809391 

-0.00686602 -0.00266103 -0.00145847 
0.00180429 0.000496954 0.00529222 
-2.08843e-05 0.000685967 0.0059374 

-0.0275655 -0.0184606 0.100081 
-0.0126553 0.0104299 -0.0321916 
0.0178288 0.00217425 0.0520839 

0.0481661 0.290534 1.43617 
-0.0365767 -0.0424592 0.0518933 
-0.00191575 0.00121944 0.0386791 

-0.0696405 -0.230346 0.227702 
0.207336 0.197537 -0.245904 
0.0111381 0.00492136 0.028786 

-0.00934707 0.00918382 0.140405 
-0.0506693 -0.0151778 -0.317784 
-0.00261049 -0.00141209 0.0361753 

-0.00758599 -0.082731 0.0162429 
0.0855538 0.0119088 -0.0372473 
0.000244517 -0.000561649 0.00564517 

-0.0634353 0.0593594 -0.276075 
-0.00941731 0.142335 1.48973 
0.0015084 0.00298072 0.0239108 

-0.0035151 -0.0415905 -0.0217267 
0.0649737 0.0059943 -0.0406113 
0.000518868 0.00117035 0.00615152 

-0.0293447 0.0295429 -0.0188813 
0.00686681 0.00600928 -0.0174482 
-0.00069791 -0.00175071 0.0435108 

0.105271 -0.252108 -0.966627 
-0.0442847 -0.106084 1.23147 
0.0552007 0.032858 0.178438 

-0.105112 -0.470106 0.161954 
0.263222 0.209218 0.525169 
0.011074 0.00471445 0.0471518 

-0.0510736 -0.084658 -0.0458049 
-0.0038541 0.0926185 -0.124584 
0.0040956 -0.00348526 -0.0489545 

-0.0880936 0.144826 0.811659 
0.0272248 0.0480482 -1.01974 
0.00875871 -0.0152977 -0.145326 

-0.1654 0.0963404 -0.145673 
-0.109852 0.156955 -0.364487 
-0.0282641 -0.0133771 -0.0049814 

-0.00255535 0.00310793 -0.233969 
-0.00786853 0.00883456 -0.00715412 
-0.000382845 9.46227e-05 -0.0259187 

-0.156892 0.360811 0.00176093 
-0.288764 0.198769 -0.128616 
-0.0108492 0.00912376 0.0182556 

-0.0952658 -0.0996664 -0.400915 
0.149659 -0.00320015 0.201817 
0.0176127 -0.0328137 0.871739 

-0.343562 0.000268297 -0.0511426 
-0.0341693 0.242102 -0.763233 
0.107771 -0.0357028 0.352244 

0.0194061 0.0301272 -0.0340966 
-0.00229656 -0.0314623 0.10953 
-0.00118823 0.00302173 0.0176032 

-0.00839264 -0.00738496 0.0711109 
0.0332326 0.0344324 2.54436 
0.000313902 0.000849439 0.286706 

-0.0342936 0.0773922 0.717935 
-0.0931223 0.0255447 -0.849426 
-0.00775981 0.00337779 0.194111 

0.0386476 0.0559175 -0.125335 
0.00568231 -0.0658059 0.0676238 
0.00253444 -0.00128935 -0.0201807 

-0.0307415 0.205478 0.0211801 
-0.141269 0.122663 0.698429 
-0.0095702 0.0383441 -0.0181091 

-0.00104846 -6.54145e-05 -0.00655852 
-0.00795501 -0.00707153 -0.0117633 
0.00168267 -0.00143627 0.00916388 

-0.0543175 0.197261 -0.178448 
-0.180834 0.149679 1.36627 
-0.00794819 -0.00668928 0.0737194 

-0.0170616 -0.0326333 -0.0499568 
0.0644452 0.00752749 0.011536 
-0.00204844 -0.000232142 0.0163718 

-0.363376 0.336675 -2.33832 
-0.120296 0.342095 0.582793 
0.0553697 -0.0209352 0.442662 

-0.0357493 -0.0905891 -0.171092 
0.0992728 -0.00729888 -0.383568 
-0.00386256 0.00400411 0.0308947 

0.103214 -0.221779 0.0360143 
0.201612 -0.0507785 -0.197157 
-0.00766593 0.039639 0.0493587 

-0.0539135 -0.0776485 0.00441729 
0.1034 0.00881249 0.0812941 
0.00158912 -0.0096831 0.0756047 

-0.18209 -0.00954634 0.0405915 
-0.0190311 0.0495691 0.0738673 
-0.00713044 0.0395464 0.1494 

-0.135481 0.251588 -0.390493 
-0.139364 0.0897827 0.0320629 
0.00240094 0.00018704 0.0561802 

-0.0991818 -0.086978 0.422022 
0.0457829 0.0307158 0.729872 
0.0059825 -0.0208192 -0.000677219 

-0.0359149 0.0568507 0.00245255 
-0.044588 -0.0117685 -0.0608936 
-0.00195974 -0.00751125 0.0104666 

-0.00998731 -0.0832069 0.0226969 
0.0374536 0.0154359 -0.0385337 