# vtk DataFile Version 3.0
Output file generated by Yade's KinematicLocalisationAnalyser
ASCII
DATASET UNSTRUCTURED_GRID

POINTS 13483 float
615.864 28.9595 0.443514
763.962 67.7606 0.548369
121.02 6.19038 0.456848
795.859 4.26607 0.327824
505.602 7.84333 -0.251347
317.534 35.2392 -0.476933
157.762 6.94279 0.433189
578.96 10.1991 0.171407
502.642 23.377 0.15665
727.482 13.9711 0.646394
212.051 9.02521 -0.11338
259.204 6.32144 -0.25684
669.195 35.286 -0.148904
643.841 14.9127 -0.139651
138.025 17.1434 0.426836
223.127 34.5036 0.404826
219.368 12.9834 -0.287723
291.445 9.66782 0.390197
343.948 32.6082 -0.491883
530.799 8.63833 0.339058
415.195 36.7045 0.103598
599.887 47.3173 0.267032
790.688 46.255 -0.498365
706.524 44.302 -0.483508
464.03 16.0836 0.283985
243.07 44.405 -0.126227
497.461 27.7061 -0.53396
595.394 21.5253 0.23579
45.6084 15.6458 0.385771
728.871 49.2872 0.361924
488.482 4.89258 0.360589
16.5276 23.5963 0.321399
778.532 69.3683 -0.284403
501.252 2.5665 0.472781
79.0217 45.083 0.106714
528.442 31.3244 0.339203
537.285 16.7654 -0.408826
346.959 22.4135 -0.213122
540.287 25.6204 -0.321303
353.629 33.6571 -0.428551
243.358 14.6914 -0.375643
439.622 36.1258 0.0745825
686.367 8.85759 0.16336
194.138 6.25378 0.355379
55.9659 7.1349 0.0720155
69.0352 8.9654 0.284458
699.702 8.95847 0.574877
23.6732 11.6561 0.282689
621.454 45.7185 -0.387124
686.5 24.2623 -0.42404
174.152 32.6528 0.314308
764.602 54.8056 -0.176672
35.2766 28.2476 0.127906
541.313 2.97716 0.328532
143.271 7.46854 -0.5008
603.703 36.3608 0.470438
511.295 27.6527 -0.147324
176.58 0.942452 -0.265569
33.1125 2.41994 0.298237
352.295 17.915 0.259979
632.471 46.5104 -0.141503
467.833 33.8754 0.195866
403.607 1.03116 0.198899
710.115 9.84687 -0.391633
26.8055 43.2355 -0.234921
258.914 30.7089 -0.327669
727.671 8.07957 0.335615
685.726 56.298 0.38394
422.212 8.67417 -0.481882
580.039 3.5795 -0.316489
748.115 36.6046 -0.54648
131.787 7.7029 -0.322136
505.211 26.0473 0.138913
484.047 15.0622 -0.149089
297.57 16.7763 -0.342778
20.843 13.6812 0.242999
787.262 62.0009 -0.408839
336.454 39.2778 -0.286236
683.778 21.5083 0.433657
700.666 14.1586 -0.326736
784.485 16.356 0.331152
471.264 34.6317 -0.183224
93.4579 38.8734 -0.281747
695.223 38.5506 0.260017
663.122 42.8898 0.102125
796.73 52.2423 0.124259
781.681 0.694868 -0.726144
294.188 28.7416 0.477619
632.939 6.68751 0.0914574
24.5992 5.27919 0.542292
134.467 38.5835 -0.154201
520.411 14.7537 0.216746
778.549 44.4596 0.498392
197.817 28.9057 0.233245
44.7271 34.4406 -0.312923
500.096 1.29733 0.125722
238.622 8.88125 -0.371674
746.208 48.3995 -0.254319
763.714 42.0687 0.23369
365.863 21.1366 -0.261396
165.843 27.1491 -0.46381
558.455 39.393 0.492993
384.73 15.7348 -0.447714
419.525 29.7136 -0.10273
382.959 4.51682 0.409026
557.775 10.9261 -0.0963664
798.484 13.3442 -0.262969
81.254 39.8473 0.400577
339.765 5.00624 -0.208604
572.467 9.45224 -0.363601
365.111 43.9072 0.463033
25.7666 24.3451 -0.51697
30.7616 5.7562 0.327557
578.943 33.7386 -0.449942
513.099 23.7712 -0.184536
26.7456 37.0578 -0.426775
94.2353 31.2653 0.219644
329.536 16.0299 -0.27899
612.863 18.8776 -0.16971
482.848 37.9986 0.318333
743.212 9.03374 -0.508935
736.473 7.41679 0.263373
392.947 37.4234 0.104637
651.221 27.0999 0.0962819
241.765 17.0994 0.497682
335.139 3.89055 0.456006
104.729 31.6216 0.405623
117.783 24.1073 -0.274982
554.58 39.7501 0.0660955
310.788 18.8734 0.489701
723.638 49.577 0.099146
690.427 55.7239 0.112367
489.833 20.6086 -0.443773
772.867 27.1935 0.300517
436.15 23.2938 -0.247863
281.733 24.2083 0.292047
689.45 40.978 -0.397977
283.761 28.9483 0.38529
589.482 13.6055 -0.192048
337.623 35.9686 0.20086
514.681 11.1878 0.487195
373.194 31.8326 0.0962274
438.267 16.7477 -0.108317
323.537 42.4183 -0.397303
194.033 30.1258 -0.123444
769.099 67.5385 0.109868
795.609 14.5261 -0.324165
6.14342 12.5236 0.480452
442.368 22.4157 -0.424113
38.9713 22.579 0.0877374
383.173 31.5714 -0.396422
402.318 24.869 0.284988
76.1577 12.1013 -0.530517
52.6984 33.3727 -0.427747
230.009 13.5256 0.416449
633.882 38.955 -0.405449
591.809 22.7546 -0.49418
76.152 20.8701 -0.536085
707.285 48.5617 0.5981
769.635 2.53947 -0.635617
679.902 50.0005 -0.501834
706.249 2.36341 -0.568077
563.366 26.9227 0.385111
601.515 47.6213 -0.444517
523.66 18.6088 -0.4489
794.02 3.97739 -0.309878
227.701 24.6226 0.116091
130.067 35.5869 -0.203573
252.093 6.80341 0.404045
95.8949 4.45837 -0.279947
65.3154 10.2186 -0.2483
281.45 36.4871 0.298348
16.8401 25.3238 -0.358878
570.17 18.9428 -0.472373
620.729 40.6284 0.232109
473.181 20.8484 -0.396105
795.18 73.7944 -0.366915
415.258 8.63927 -0.108714
446.145 36.7131 -0.365711
549.919 3.46947 -0.187743
23.1766 23.9283 -0.419591
592.067 4.71057 0.446229
559.844 4.34025 -0.308988
210.282 11.5203 0.491222
434.407 16.5144 -0.206222
317.888 6.33438 0.360436
396.308 19.1899 -0.32191
735.624 44.404 0.109995
196.223 25.9442 0.431867
778.16 14.2386 -0.328005
736.514 39.5853 -0.375469
391.564 10.2885 -0.157665
726.06 2.41657 0.470595
620.04 26.2489 -0.393652
750.482 18.1884 -0.486579
441.193 43.1733 0.313518
509.252 12.7308 0.360223
476.315 44.5605 -0.225924
455.952 8.62969 0.126479
683.689 49.9998 0.264876
682.221 45.6044 0.301614
196.311 39.3298 0.348274
782.486 19.675 -0.0863823
603.981 47.9711 -0.241673
11.6345 17.1057 0.238707
416.85 25.4007 0.356306
191.275 23.2882 -0.418094
95.1259 39.7009 0.206947
775.695 42.5457 0.422661
676.006 53.9556 -0.227802
326.06 25.6905 0.346526
546.565 10.2018 0.31699
84.1602 44.9426 0.172828
253.148 26.0317 -0.473877
571.558 24.8648 0.47894
499.187 18.9215 0.45826
268.624 0.889644 -0.347595
567.731 40.9113 -0.37555
547.94 40.6105 0.492935
494.156 33.1159 0.401112
512.135 0.863882 -0.570754
713.751 21.2566 -0.480135
183.494 12.2767 -0.177905
513.509 37.6185 -0.455127
579.79 41.2083 0.150681
74.5237 0.974588 -0.277598
257.422 4.7159 0.181503
794.603 18.1695 -0.286561
785.147 17.8216 -0.569276
800.062 18.8316 -0.706263
310.398 8.60293 -0.230131
754.386 23.3791 -0.459402
417.051 41.518 -0.330058
460.207 0.804338 -0.405747
669.778 42.6336 0.498603
27.5411 30.7581 0.271062
338.513 41.3927 0.615571
258.29 2.86239 0.344138
781.683 66.3993 -0.248391
721.682 62.6671 -0.16559
293.967 11.0444 0.241051
684.763 35.3313 -0.0957805
574.332 2.65016 0.306587
557.598 6.49404 0.435312
98.6002 18.4676 0.499065
310.293 1.03728 -0.22718
351.077 2.24389 -0.371953
14.1709 7.6016 0.431897
4.45964 31.1773 -0.28265
165.482 19.1655 -0.403112
69.6436 42.3471 -0.208811
68.2406 29.4145 0.331658
434.082 14.6276 -0.442946
376.174 35.3421 0.484925
761.74 55.5492 0.138814
19.9171 4.02913 -0.267832
72.2092 7.00219 -0.133641
643.639 38.0118 0.181144
301.55 0.921314 0.369323
373.746 16.1257 -0.101078
241.145 4.61145 0.37181
668.835 26.3492 0.209465
463.465 8.34985 0.413649
757.839 21.9025 -0.632798
651.522 30.5986 -0.290967
682.999 19.6584 -0.147047
431.447 27.0788 0.527033
104.328 45.5712 0.302659
557.868 43.7378 0.0751343
748.74 13.3411 0.337427
243.638 30.5729 -0.242614
32.8274 17.146 -0.189164
344.634 13.8611 0.508708
109.764 40.7304 -0.464955
274.426 42.3855 -0.20689
436.402 1.6092 -0.309902
784.848 57.4137 0.410313
701.391 2.66424 0.659327
340.274 3.45884 0.566596
307.362 26.5748 0.15606
474.959 41.4882 0.226086
83.4668 8.20497 -0.463549
202.543 45.3606 0.377715
769.23 48.9182 0.363402
508.532 39.8308 -0.0965975
205.035 41.4425 -0.282495
164.73 42.7104 0.317703
798.204 47.4536 -0.39494
797.432 14.9088 -0.60062
624.202 3.2273 -0.62153
194.904 24.7804 -0.108238
564.305 28.6589 -0.100662
566.286 28.1206 -0.255672
419.856 5.68133 -0.139636
495.044 0.946827 0.362153
759.016 56.0589 -0.479201
86.8815 31.3018 -0.245798
673.138 23.0332 0.576183
281.086 15.4977 -0.369603
9.69241 2.33912 -0.349374
128.597 37.2437 0.196632
68.5997 23.1005 -0.505588
716.266 46.805 0.127472
783.912 74.2124 0.0928838
190.281 28.6637 0.190231
792.265 15.8257 0.349369
46.1701 36.6129 0.264511
92.9403 29.7177 0.184613
652.398 13.3505 0.592691
424.301 18.2887 -0.482193
534.014 16.8668 0.121538
244.146 28.5771 0.162331
640.007 4.14117 -0.502944
800.979 14.3596 0.526307
30.5314 31.8108 0.290215
276.918 7.69829 0.196631
227.683 15.1584 0.279788
1.07473 35.7774 -0.154153
230.989 14.5884 -0.373261
216.988 10.9804 0.117287
219.645 26.5163 0.267911
136.248 27.9802 0.125442
564.474 15.0071 -0.355045
171.243 14.2432 -0.361682
776.007 66.6246 -0.234688
178.609 3.82251 0.507053
48.3947 37.6801 0.434891
738.388 54.4314 0.476899
288.77 32.222 0.401577
693.139 24.2593 -0.40535
787.781 56.2396 -0.505939
308.423 9.21123 -0.106639
738.522 31.8505 -0.387785
337.207 2.52235 -0.419981
427.236 23.955 0.354612
689.064 17.6157 0.503121
108.033 12.36 -0.42456
496.957 3.82844 -0.554445
761.408 21.1129 0.205715
90.3768 7.69425 0.225512
288.933 14.7122 0.208433
434.863 11.8144 -0.204764
792.621 4.22432 0.556504
408.602 1.99955 -0.526543
181.377 39.0476 0.301952
750.564 10.3171 -0.397949
131.787 36.7534 0.200748
269.85 31.6977 -0.423019
411.273 21.7843 0.226323
591.79 15.6665 -0.305859
397.428 9.826 -0.495033
469.623 28.0376 -0.454543
765.048 67.5629 -0.425548
48.9837 11.1685 0.119498
306.962 38.5365 0.261253
389.767 27.5039 -0.352265
420.735 21.0136 0.242803
537.117 44.8129 0.356387
754.157 50.2925 -0.225277
686.808 44.9437 0.35322
231.666 34.148 -0.402182
14.1999 31.6814 0.150711
680.234 46.1386 -0.119933
524.288 42.3226 -0.304764
235.526 39.3312 0.128082
698.713 33.0352 0.135908
155.006 9.32096 0.220531
376.26 21.2994 0.349804
476.793 42.4445 0.110242
425.3 19.6568 0.22187
760.118 67.9435 0.290927
437.904 3.86562 0.512859
51.0645 25.4742 -0.333084
483.323 31.712 0.327803
447.543 42.0049 0.427585
780.859 60.2342 -0.236564
740.859 28.5154 0.23947
558.126 18.3825 -0.220804
773.012 60.7186 0.492165
301.109 2.20931 -0.46301
388.717 29.9234 0.468655
29.8238 38.9519 -0.302475
741.423 32.3946 -0.153175
628.595 20.3842 -0.507108
476.611 0.771799 -0.473875
129.297 4.51955 0.275895
439.076 40.4989 0.0989178
12.1532 0.908666 0.316114
791.86 6.74722 -0.110958
380.219 39.5505 -0.401542
[...]
POINT_DATA 13483
TENSORS Strain_matrix float
-0.162432 -0.0996131 1.72614 
0.0856602 0.106503 -0.0427411 
-8.07812e-19 -6.86019e-18 1 

-0.841652 0.620671 0.0447345 
0.324026 0.465143 11.1203 
4.09728e-18 -2.78062e-18 1 

-0.128898 -0.0195753 0.131972 
-0.0108552 -0.0335469 0.0124085 
-8.23786e-18 2.08428e-18 1 

-0.84892 0.354331 -1.10965 
-0.292376 0.386007 0.0545995 
3.11239e-18 1.03999e-17 1 

-0.335202 -0.0407307 -0.0357465 
-0.00108504 0.0548264 -0.453433 
-7.28155e-18 -1.11717e-17 1 

-0.0957523 -0.0379329 -0.32505 
0.0419786 -0.0172899 -0.0403375 
1.48162e-18 -6.27141e-19 1 

-0.0950557 -0.048855 0.0849974 
0.0131898 -0.0851522 0.061289 
1.84741e-17 -1.23161e-18 1 

-0.142628 -0.0209208 -0.0550972 
0.151249 -0.0484356 -0.0201017 
3.32083e-18 4.68556e-18 1 

-0.0883166 -0.0394785 -0.0589202 
0.0658463 0.0173695 -0.154307 
6.46428e-18 -4.44944e-18 1 

-0.467331 0.134976 0.247827 
-0.174922 -0.0978532 4.51289 
-1.06964e-17 -9.41076e-18 1 

-0.0761322 0.015674 -0.111214 
0.0116451 -0.0647993 0.0224869 
-3.45936e-18 1.01249e-18 1 

-0.104525 -0.0669693 0.211988 
-0.0363293 -0.0917682 0.081521 
1.579e-17 1.00049e-17 1 

-0.291778 0.623062 3.36875 
0.2056 0.153902 0.788122 
-1.4656e-18 -3.65839e-18 1 

-0.248962 0.0494574 0.225286 
0.0460453 -0.0253124 0.149048 
-1.88283e-17 -7.69351e-18 1 

-0.120446 0.0107101 -0.108498 
-0.00260138 -0.0568897 0.199403 
-2.64329e-18 -5.74089e-18 1 

-0.115283 -0.0430707 0.436064 
-0.0818595 -0.00877105 0.275584 
-3.6928e-18 -7.9575e-18 1 

-0.0869536 -0.0367684 0.123035 
-0.0084435 -0.0852105 -0.0610779 
7.99269e-18 2.81868e-18 1 

-0.172808 -0.0200069 -0.00702675 
0.0233714 -0.0696631 -0.0419332 
-4.44806e-18 -1.0558e-17 1 

-0.180323 0.0167485 -1.06158 
0.027468 0.00537429 -0.00934587 
-4.69308e-19 -3.22965e-18 1 

-0.119411 0.0086001 0.209714 
-0.0934529 -0.0460747 0.563247 
-7.31159e-18 -8.76322e-18 1 

-0.0946486 -0.0414892 -0.17249 
0.0797415 -0.0356152 -0.00402744 
-5.88412e-18 3.99974e-18 1 

-0.126504 -0.0797428 -0.496205 
-0.0308018 -0.0289798 -0.0503691 
-4.09375e-18 -1.79102e-18 1 

-2.28611 -1.82963 -6.08644 
-0.457338 0.174257 0.561957 
5.97252e-18 3.34038e-18 1 

-0.114429 -0.335413 0.151793 
0.256453 -0.0852326 -1.18534 
-1.69198e-18 7.05463e-18 1 

-0.0800228 -0.0345762 -0.240538 
0.0867809 -0.0317581 -0.0674895 
7.22967e-19 4.23385e-18 1 

-0.153866 0.0579622 0.038708 
-0.0443379 0.0459836 -0.0122498 
-3.38255e-18 5.95653e-18 1 

-0.106437 -0.0336583 0.860917 
0.0374296 -0.0192077 -1.84203 
2.11054e-18 -6.39119e-18 1 

-0.11713 0.0515325 -0.151701 
-0.0934746 -0.0277533 -0.0944993 
-1.52773e-17 -8.50558e-18 1 

-0.11123 0.0193706 -0.215427 
0.0643684 -0.0610723 0.540409 
1.69334e-18 8.08707e-18 1 

-0.220324 -0.501376 -0.223627 
0.512665 0.169749 -0.356978 
1.33629e-17 6.48538e-18 1 

-0.113229 -0.00712868 -0.223076 
-0.016937 -0.111604 0.168545 
7.79846e-18 5.94456e-18 1 

-0.16753 0.0257111 -0.0103292 
0.0186719 -0.0222674 0.0429814 
5.5167e-18 -4.90893e-18 1 

-0.486259 -0.657853 1.33244 
0.184173 0.229657 -0.486256 
1.11852e-19 -1.4345e-17 1 

-0.169661 0.0442826 -0.0736293 
-0.0475768 0.00791135 -0.0378184 
-1.05702e-17 -1.21451e-17 1 

-0.0495108 -0.00738465 -0.112542 
-0.0842892 -0.12945 -0.388841 
-5.49062e-18 -1.28934e-17 1 

-0.390415 -0.0276024 0.151096 
-0.152436 0.129382 -0.0832937 
6.21299e-18 1.48681e-17 1 

-0.111705 0.00825774 -0.605348 
-0.0069951 -0.0305884 -0.504281 
-9.94557e-18 -9.42212e-19 1 

-0.0123197 -0.17419 -0.0838026 
0.0924784 -0.190869 -0.148347 
2.25956e-18 -9.74437e-18 1 

-0.121332 -0.15139 0.0375716 
0.0838539 0.0605675 0.00704642 
3.3132e-18 3.77337e-18 1 

-0.0997526 -0.0165616 -0.722265 
0.00242955 -0.00753582 -1.55351 
-4.59519e-18 -3.8663e-18 1 

-0.142364 0.000558599 0.0112106 
-0.0512723 -0.0545469 -0.158945 
-6.48375e-18 -3.20845e-18 1 

-0.0888305 -0.0460761 -0.160881 
0.0723923 -0.0351318 0.444978 
-2.66875e-18 -1.66604e-18 1 

-0.494659 -0.269839 -0.665945 
0.153286 0.231646 -0.270968 
-2.05359e-18 8.21438e-18 1 

-0.125124 0.0344352 0.485646 
-0.0484178 -0.0511834 0.900948 
6.13509e-18 8.21915e-18 1 

-0.129976 0.0606008 0.0249028 
-0.00671142 -0.0393445 -0.0726977 
7.13534e-19 7.98266e-18 1 

-0.090206 -0.0234962 0.0960032 
-0.010508 -0.0521385 0.0597095 
-4.48836e-19 1.24178e-17 1 

-0.508165 0.153113 0.321599 
-0.100961 0.168685 0.0145875 
1.90619e-17 3.72639e-18 1 

-0.0631258 -0.029622 0.0169061 
0.00251359 -0.11806 0.0435724 
-2.54035e-18 -3.17544e-18 1 

-0.221791 0.178823 -0.0446187 
-0.171525 0.0424517 -0.0534809 
-1.61354e-17 5.62518e-18 1 

-0.491212 0.292151 -1.48366 
-0.245559 0.201105 -0.290304 
4.03548e-18 -4.01042e-20 1 

-0.115641 -0.0662238 -0.0428742 
0.0266006 -0.00256308 0.329736 
-2.53437e-18 -2.74308e-18 1 

-0.0230176 -0.614012 0.16466 
0.521259 0.114566 0.0298021 
9.10061e-20 -8.05875e-18 1 

-0.105038 -0.00150279 0.040093 
-0.0211537 -0.00517111 -0.0597124 
-6.87691e-18 8.87953e-19 1 

-0.133244 0.0437673 0.101503 
-0.02519 -0.0452338 0.0147751 
-2.90784e-18 -1.61828e-18 1 

-0.12195 -0.0128039 1.3479 
-0.0121513 -0.0620415 -0.503736 
2.63119e-18 4.12048e-18 1 

-0.224686 -0.126888 -1.0676 
0.0512261 0.0580099 0.274562 
6.06883e-18 -8.98852e-18 1 

-0.10791 -0.00465602 0.238871 
0.0332725 0.00821394 0.207654 
-6.56934e-18 -1.05109e-18 1 

-0.0937203 -0.258916 -0.188632 
-0.0009346 -0.119198 -0.115656 
-2.50055e-18 -5.12824e-17 1 

-0.0484185 0.00609142 -0.00382803 
-0.00401267 -0.129788 0.0508349 
-7.64717e-18 -6.30592e-18 1 

-0.093154 -0.0353413 -0.25659 
0.00957587 -0.00308012 0.0271024 
-8.01889e-18 1.93765e-19 1 

-0.184727 0.370226 -0.515479 
0.118775 0.105331 -0.223296 
1.86175e-18 2.08796e-17 1 

-0.080719 -0.112891 0.404751 
0.0510126 -0.0253551 0.169971 
1.89167e-18 -2.17462e-18 1 

-0.106844 -0.0863124 -0.281895 
-0.0103314 -0.0505407 -0.134157 
3.69069e-18 -1.37376e-17 1 

-0.244536 0.00734313 -0.482622 
0.197448 0.0890632 -0.0388728 
-6.89595e-18 8.33013e-18 1 

-0.120255 -0.0293787 0.011075 
0.013795 0.0256543 0.0894004 
-3.95087e-18 -8.61385e-18 1 

-0.240479 0.0298948 -0.168586 
0.00356041 0.0182816 0.0700199 
6.6946e-19 -1.7406e-18 1 

-0.502856 -0.201036 -0.0233159 
-0.0660851 0.113537 0.130749 
-1.20345e-17 1.11019e-17 1 

-0.211211 -0.245784 -0.26816 
0.208127 0.0672559 -0.0198102 
2.8854e-18 1.27329e-17 1 

-0.124566 0.00304268 0.066539 
-0.0631293 -0.0712922 0.100661 
-1.45968e-17 -4.14361e-18 1 

-0.15006 -0.00128753 0.0675683 
-0.0336214 -0.0566248 -0.00932816 
-1.48935e-18 1.48935e-18 1 

-0.487484 -0.548948 -1.69205 
0.5321 0.406804 3.16222 
-1.90061e-18 1.14207e-18 1 

-0.0818538 -0.0210237 0.0188263 
-0.0117772 -0.0601748 0.138383 
-3.64887e-18 -1.1489e-17 1 

-0.144636 -0.139999 0.159759 
0.0219397 0.0899391 0.0294087 
-5.52379e-18 2.17813e-18 1 

-0.101189 -0.0411151 0.0931844 
-0.0243504 -0.0388402 -0.306237 
2.9698e-18 -1.39277e-17 1 

-0.106584 -0.00350448 -0.479861 
-0.0184523 -0.0429548 -0.144984 
0 3.07897e-18 1 

-0.0821266 -0.0222906 0.00776846 
-0.057075 -0.058362 0.0465056 
8.2376e-18 5.84785e-18 1 

-0.639159 -0.307476 8.21196 
0.394617 0.00896932 1.14496 
1.02993e-17 1.23648e-17 1 

-0.114072 0.0426993 -0.619575 
-0.0320858 -0.0216736 -0.119338 
1.85345e-19 -1.03098e-18 1 

-0.759127 0.270972 0.918181 
-0.352512 0.257457 0.621105 
-3.27446e-18 5.43263e-18 1 

-0.283185 0.0326745 0.336882 
0.0290323 0.0844315 -0.0768655 
3.69127e-18 -7.96904e-18 1 

-1.04846 0.706053 3.20564 
-1.20047 0.446385 0.191018 
-3.27747e-18 4.17878e-18 1 

-0.0691332 -0.125912 1.00437 
0.0685757 0.0458563 -0.742682 
1.32236e-18 8.5666e-18 1 

-0.0602378 0.0507243 0.0555911 
-0.0380786 -0.0248875 0.282856 
-1.63534e-19 -2.22815e-18 1 

-0.776409 0.129493 0.335284 
-0.564617 0.457821 -0.553821 
6.86748e-18 -1.73566e-17 1 

-0.149974 -0.395737 -0.122327 
0.339301 0.0698261 -0.353711 
1.21273e-17 9.32869e-19 1 

-0.166238 0.538853 -0.344355 
-0.374085 0.209127 0.26731 
-9.55262e-19 -6.28881e-18 1 

-0.871768 27.3114 107.625 
0.0141766 0.4749 -1.41593 
9.02944e-19 -4.76432e-17 1 

-0.102356 0.106217 0.124729 
-0.0723677 -0.115924 -0.222945 
1.38378e-17 -1.51158e-17 1 

-0.35761 0.0680531 -0.372158 
0.19378 0.066783 0.0402126 
-1.03821e-17 -3.64284e-18 1 

-0.112191 0.0327497 -7.12369 
0.00567148 -0.0336715 2.77211 
3.53818e-18 -1.52766e-17 1 

-0.112736 0.00129664 0.20077 
-0.0677297 -0.0337036 -0.183899 
1.09476e-17 -7.03203e-18 1 

-0.237822 0.0550562 0.0780931 
0.0952041 -0.00276675 0.267884 
-2.24039e-17 -3.58898e-18 1 

-0.238549 0.180447 -5.73979 
-0.0741112 0.167057 0.3772 
-4.06945e-18 1.05541e-18 1 

-0.134051 -0.0262693 0.112646 
-0.0132955 -0.0211776 0.328064 
7.76795e-18 3.19889e-18 1 

-0.106258 0.0076993 -0.146643 
0.00884798 -0.00152229 -0.276964 
6.24041e-18 1.10272e-18 1 

-0.148266 0.116836 -0.079268 
0.00481409 -0.0141702 0.110213 
2.9918e-18 -2.38819e-18 1 

-0.109499 0.035912 0.0238896 
-0.0281331 -0.0360875 -0.191351 
2.73094e-18 -2.3144e-18 1 

-0.292375 -0.508476 -0.986219 
0.487684 0.244251 0.25473 
1.4793e-17 7.05361e-18 1 

-0.781181 0.820745 4.05814 
0.295673 0.377137 -0.241195 
-1.36215e-17 1.28387e-18 1 

-0.0884472 0.0409053 0.198761 
-0.0871488 -0.0417175 0.1103 
-1.00927e-17 1.04906e-18 1 

-0.111045 -0.0307144 1.70686 
0.00415359 -0.0181142 0.349696 
5.17434e-18 -1.12891e-17 1 

-0.316274 0.0596328 -1.29831 
-0.0384918 0.0802169 -3.04042 
-8.23461e-19 1.26682e-17 1 

-0.107381 0.00115775 -1.19438 
-0.0216131 -0.0319922 -0.0146238 
2.36348e-18 -6.19568e-18 1 

-0.106369 0.0535359 0.0809934 
-0.0461853 -0.0560388 0.0693607 
-6.58255e-18 2.95764e-18 1 

-0.11413 -0.00985284 0.154719 
0.0135096 -0.0855814 0.415551 
1.53731e-18 5.19137e-18 1 

-0.118739 0.0160711 0.176764 
0.0226195 -0.0513651 0.0452628 
-1.2535e-17 -3.80159e-18 1 

-0.727538 -0.391358 0.311228 
0.0626512 0.169822 -0.426876 
-3.28346e-18 9.33194e-18 1 

-0.0920114 0.045436 -0.339771 
-0.121845 -0.0258569 -0.356655 
-8.40245e-18 -2.03174e-18 1 

-0.136253 0.0648942 0.108771 
0.0619313 -0.108906 -0.0788888 
9.30731e-18 3.62742e-18 1 

-0.149107 0.0150425 -0.530291 
0.0114581 -0.0700024 0.172269 
-4.90513e-18 7.05882e-18 1 

-0.136452 0.0431343 2.67169 
0.0440632 -0.0414592 0.305499 
3.77483e-18 -2.0187e-18 1 

-0.114112 0.0187351 -2.02628 
-0.0113077 -0.0373871 -3.35951 
-9.96274e-19 6.33389e-18 1 

-0.0739502 0.0287117 -0.00794295 
-0.0217339 -0.112098 0.0385257 
-7.35718e-18 7.61361e-19 1 

-0.185254 -0.0563707 -0.39658 
0.120215 -0.011033 0.0118601 
-6.65461e-18 8.69978e-18 1 

-0.286815 0.0787175 -0.0283875 
-0.137843 0.151311 -0.567198 
-2.44279e-18 7.81692e-18 1 

-0.116885 -0.0118415 0.183463 
0.0248625 -0.00342715 0.0647756 
-6.76426e-18 -8.03998e-18 1 

-0.126509 0.0514786 -0.296815 
-0.0401182 -0.0382981 -0.0447449 
3.96312e-18 -6.03904e-18 1 

-0.126046 0.0482168 -0.118038 
0.0290901 -0.0465089 -0.0463255 
-6.03705e-18 3.37364e-18 1 

-0.175801 -0.014459 0.280043 
0.115773 -0.0645946 -0.193144 
5.59476e-18 1.82438e-18 1 

-0.125494 0.0289103 0.0464443 
0.0023138 0.00467903 0.21797 
-6.59771e-18 4.03194e-19 1 

-0.666308 0.0851186 -0.765181 
0.00281875 0.082436 0.419346 
-5.02938e-18 -2.78857e-18 1 

-0.280821 0.171356 -0.0749591 
-0.147019 -0.148752 -0.056252 
1.67335e-17 1.72494e-18 1 

-0.0890662 0.031788 0.00890552 
-0.0625704 0.000315529 -0.148676 
-1.32351e-17 2.82817e-18 1 

-0.480457 0.942543 1.11026 
0.276896 0.184197 0.057265 
-1.00515e-17 6.90033e-18 1 

-0.103924 -0.000667848 1.88808 
-0.00723123 -0.0537133 2.96093 
-1.64514e-18 4.26406e-18 1 

-0.106286 -0.0282796 -0.0656154 
-0.0348677 -0.115553 -0.0495142 
-9.16343e-18 -2.51788e-18 1 

-0.136974 0.022213 0.184044 
-0.0669508 -0.0269995 -0.0824932 
-2.49702e-18 -1.72e-18 1 

-0.240574 0.0359666 -0.341357 
0.0479585 0.0721228 -0.31953 
3.60224e-18 1.15225e-17 1 

-0.15476 -0.0881402 0.0968803 
0.140148 0.0099855 0.0155063 
1.03938e-17 -2.73477e-18 1 

-0.108937 0.00474295 0.499653 
0.00555655 -0.0553104 -0.727899 
-2.0476e-18 -2.50627e-18 1 

0.0542958 -0.582288 -0.293203 
0.543456 0.217973 0.0602841 
-1.6439e-18 -4.96672e-18 1 

-0.175576 -0.223626 0.160518 
0.107723 0.139879 0.0223358 
-5.25954e-18 -3.26418e-18 1 

-0.127956 -0.01511 0.215435 
0.00539899 -0.0225241 -1.11734 
-1.00758e-17 9.81777e-19 1 

-0.52018 -0.0449402 0.15576 
0.0516365 0.070602 -0.309449 
2.73484e-18 -1.45131e-17 1 

-0.144794 -0.0241817 -0.556874 
-0.0546781 -0.0197149 -0.111241 
-3.35308e-18 -3.29593e-18 1 

-0.15805 0.0998127 -0.278852 
-0.0206748 0.131235 -0.845078 
4.26873e-18 -9.43419e-18 1 

-1.8084 1.03563 -1.29758 
-0.526204 0.581627 0.63495 
-8.59179e-18 -4.40254e-18 1 

-0.118014 -0.026313 -0.993974 
0.0507683 0.00788273 -1.788 
-5.75139e-18 -4.33142e-18 1 

-0.140494 -0.180623 0.00942876 
0.174135 -0.00581471 0.0759498 
2.1969e-18 4.80367e-18 1 

-0.0616035 -0.0918118 0.0209921 
0.00846763 -0.0476619 -0.0830464 
-1.81021e-17 -6.54419e-18 1 

-0.154122 -0.011758 -0.0660358 
0.0208723 -0.0568802 -0.0227498 
1.5508e-18 -1.94958e-17 1 

-0.0970442 -0.0289271 -0.0670565 
-0.0213115 -0.040243 -0.0458991 
6.52334e-19 4.68865e-18 1 

-0.101517 -0.0372955 0.104443 
-0.011141 -0.0404838 -0.123317 
9.07512e-18 -4.19449e-18 1 

-0.0867933 -0.0600739 -0.0196929 
0.0547292 -0.0126661 0.0760995 
7.39898e-18 -6.76049e-18 1 

-0.0751898 -0.00467987 0.272899 
-0.0447917 -0.0353641 0.22494 
1.24358e-18 4.36819e-18 1 

-0.0499339 -0.884646 -1.05844 
0.34276 0.262513 0.823085 
-1.61059e-20 2.66017e-18 1 

-0.705543 -0.163019 0.381304 
-0.316725 0.236055 -1.03793 
1.33695e-18 -1.1992e-17 1 

-0.11164 -0.00643961 -0.715534 
-0.0328295 -0.107535 -0.255223 
1.11367e-17 -2.55067e-18 1 

-0.101692 0.00808206 0.0829197 
-0.0562709 -0.0289169 -0.494364 
-4.94113e-18 -6.86892e-18 1 

-0.129732 0.0257582 -0.345372 
-0.0648302 -0.0249675 -0.230079 
-5.07423e-19 8.1822e-18 1 

-0.120584 -0.0111453 -0.0948807 
0.0173497 0.0036051 0.569578 
5.35191e-18 6.54326e-18 1 

-0.200081 0.0690449 -0.210666 
-0.0289126 0.00334815 0.340297 
-6.32477e-19 3.98331e-18 1 

-0.113926 -0.0623529 -0.474468 
0.0308121 -0.065363 1.06384 
-5.50338e-18 -2.7377e-18 1 

-0.101609 -0.0362717 -0.369667 
0.0479242 -0.0192878 -0.319362 
1.1985e-17 -1.55181e-18 1 

-0.0827494 0.00842368 0.116935 
-0.0214932 -0.0649978 0.20219 
-3.66235e-18 6.9107e-18 1 

-0.392184 0.128442 -0.523513 
0.0862717 0.198805 -0.706327 
6.96635e-18 1.45807e-18 1 

-0.150904 0.0525046 0.702971 
0.0719619 -0.0482145 -1.23975 
-2.42053e-18 -1.58231e-17 1 

-0.11919 -0.00559127 -4.28916 
0.00772834 -0.00212353 0.517005 
-1.72482e-18 3.12967e-18 1 

-0.683271 -0.0173096 -13 
0.0582244 1.05579 26.9397 
-3.63282e-19 5.39414e-18 1 

-1.21817 0.0362452 7.71953 
0.118161 0.11232 -0.60596 
1.59101e-17 6.28547e-18 1 

-0.357777 -0.00870376 33.4258 
0.0839341 0.013488 36.0111 
-3.88896e-19 -7.17463e-18 1 

-0.405856 -0.321219 -0.272202 
-0.0202522 -0.0583737 -0.258691 
1.25725e-18 7.18428e-19 1 

-0.229897 -0.176362 0.829535 
-0.05729 0.257978 -0.952632 
-2.58147e-17 -4.72127e-18 1 

-0.025664 -1.89661 26.0573 
0.017262 0.738482 7.8283 
3.43469e-18 -1.01094e-17 1 

-0.247599 -0.178602 0.679786 
0.0779001 -0.0274627 0.458967 
1.6488e-17 1.97268e-18 1 

-1.13181 0.158369 -0.208823 
-0.197126 0.328802 -0.0534139 
2.1564e-18 1.45103e-17 1 

-0.0622421 0.0301415 -0.0359493 
-0.013053 -0.0700695 0.0125535 
-1.68086e-19 -3.89101e-18 1 

-0.130188 -0.00043296 0.080828 
0.0105265 0.00319747 -0.0688121 
1.79759e-17 1.19231e-17 1 

-0.110151 -0.0112939 0.522526 
0.0143134 -0.0827375 3.91515e-05 
-1.35382e-17 2.20981e-18 1 

-0.177251 -0.0307428 0.0181867 
0.0130061 -0.00177853 0.286063 
-8.10736e-18 -7.82502e-18 1 

-0.141364 -0.0232459 -0.100571 
-0.0311705 -0.017757 0.0757622 
-9.86691e-18 3.16325e-18 1 

-0.0784201 -0.031062 -0.0587153 
0.023739 -0.0184894 -0.0301225 
-9.85517e-18 -2.41425e-18 1 

-0.120996 0.0455052 -0.0656766 
-0.011298 -0.0134676 0.25161 
-1.10831e-17 -2.48556e-18 1 

-0.277582 -0.119669 1.45034 
-0.0656575 0.0481991 0.620041 
-2.01799e-18 -9.78422e-19 1 

-0.0660447 0.259529 -0.118792 
-0.210619 0.037865 0.143054 
-4.65923e-18 1.35703e-17 1 

-0.132543 -0.0282761 0.171507 
-0.0335063 -0.088792 0.0916714 
1.06852e-17 -5.62379e-19 1 

0.178339 -0.72215 -0.409534 
0.622095 0.219263 -0.044991 
0 2.72328e-18 1 

-0.116871 -0.0106092 -0.0178451 
-0.0142784 -0.0508657 -0.144843 
-1.03409e-17 -4.4108e-19 1 

-0.208111 0.0415569 -0.542704 
-0.0566547 0.0497672 -0.0600783 
-6.88207e-18 -3.57226e-18 1 

-0.16516 0.050104 -0.0688081 
-0.0128654 -0.0668013 -0.0387507 
-2.23747e-18 2.91844e-18 1 

-0.112173 0.0369379 0.150226 
-0.106469 -0.0138697 0.362961 
4.75787e-19 -5.68566e-18 1 

-0.448923 0.0369747 0.384923 
-0.20875 0.191045 -0.430632 
8.38571e-18 8.66523e-18 1 

-0.0850691 -0.00881273 -0.0569911 
-0.0381795 -0.0497359 0.0558452 
8.53546e-19 -5.35006e-18 1 

-0.102815 0.0213588 1.19788 
0.0113736 -0.071104 3.39468 
1.26266e-18 9.12352e-19 1 

-0.21421 -0.0539793 0.00141166 
0.124332 0.0452505 -0.183768 
-6.23468e-18 4.82391e-18 1 

-0.148225 -0.0196869 0.10638 
-0.0578084 -0.0479482 0.206653 
2.32439e-18 7.67049e-18 1 

-0.169125 -0.00436969 0.32113 
-0.0560116 -0.00252072 -0.0858192 
-4.42152e-18 -1.23741e-18 1 

-0.205052 -0.730516 -0.255683 
0.516824 0.340736 0.372006 
-7.02435e-18 4.6829e-18 1 

-0.132004 0.00916886 -0.2397 
-0.0722512 -0.0289112 0.369187 
-1.10724e-17 1.20635e-18 1 

-1.38526 0.123751 0.50058 
0.207476 0.474038 0.0926246 
-6.55868e-19 9.12512e-19 1 

-0.182944 -0.730814 0.339873 
0.462907 0.259775 0.383074 
1.32112e-17 -1.1277e-17 1 

-0.127196 -0.0941523 -0.0921352 
0.0715911 -0.0574324 -0.0966388 
-2.78817e-18 -5.67752e-18 1 

-0.714387 -0.495596 -1.17618 
0.252608 0.248127 0.761547 
-4.56729e-18 -1.58224e-17 1 

-0.174599 -0.0683643 -0.542586 
0.0020386 0.140361 2.57567 
-6.30904e-18 1.54346e-18 1 

-0.512621 -0.167085 0.409338 
-0.190269 -0.0419945 -0.364944 
1.61154e-18 1.53097e-17 1 

-0.129213 0.00306323 0.134789 
0.00430965 -0.00627154 -0.450263 
-5.87112e-18 9.61864e-18 1 

-0.119249 0.137427 -0.0884252 
-0.106772 -0.0335262 -0.12032 
1.40537e-18 1.67864e-18 1 

-0.0915031 0.0687098 -0.0691871 
-0.103532 -0.019673 -0.104798 
-1.47894e-17 5.2071e-18 1 

-0.10225 -0.0434481 -0.0940513 
-0.0475578 -0.0646794 0.289919 
5.38749e-18 8.8679e-18 1 

-0.287779 -0.10129 -0.601508 
0.242141 0.168076 0.400679 
-8.74788e-18 -9.78478e-18 1 

-0.239736 -0.168755 -0.470102 
0.0972984 0.0641451 0.556841 
5.21684e-19 -9.25613e-18 1 

-0.117263 0.0257467 -0.233757 
-0.0524129 -0.00342627 -0.120056 
1.32465e-18 -4.22454e-18 1 

-0.310962 0.442386 -0.398214 
-1.25233 0.657849 -0.391356 
-6.39854e-18 -1.28799e-18 1 

-0.171036 -0.164491 -0.1754 
-0.0556943 0.0330141 0.292975 
-3.05288e-18 -6.66083e-18 1 

-0.196689 0.0508993 -0.13303 
0.00995484 -0.0246629 0.0284267 
5.41694e-18 -2.2021e-17 1 

-0.0893901 0.0214264 -0.0964273 
-0.0541788 -0.00861598 0.0781872 
8.14087e-18 -7.26236e-18 1 

-0.0978356 -0.0226843 -0.371487 
-0.00725606 -0.0158922 -0.480913 
8.12926e-19 1.08475e-17 1 

-0.105171 0.038852 0.363931 
-0.00450957 0.0236422 0.00729035 
1.06266e-18 -1.25019e-19 1 

-0.11024 0.127561 -0.198638 
-0.118763 -0.0357279 -0.639044 
6.52769e-18 -6.35438e-19 1 

-0.0648343 -0.280261 0.156878 
0.158061 0.07478 -0.0459741 
-2.70903e-18 -6.02008e-19 1 

-0.0364817 0.0374703 -0.446698 
-0.0605633 -0.0247344 -0.197057 
4.26391e-18 6.64052e-19 1 

-0.135476 -0.0293847 0.270184 
0.0279498 -0.0406305 -0.396759 
3.04181e-18 -6.22733e-19 1 

-0.0695415 0.130189 0.0182717 
0.0295267 -0.112729 -0.518791 
-4.85044e-18 -9.05095e-18 1 

-0.0814642 0.0147635 1.20497 
-0.0419381 -0.0250118 -0.328009 
5.42985e-18 1.08007e-17 1 

-0.238891 -0.179814 0.153347 
0.123101 0.0862324 0.762774 
-1.07621e-18 2.28083e-18 1 

-0.109383 -0.0482346 -0.300836 
0.0623428 -0.0186662 0.452256 
3.20005e-18 1.59775e-18 1 

-0.13202 -0.0258727 0.0751745 
-0.00120067 -0.112668 -0.0225536 
6.71347e-18 -1.23537e-18 1 

-0.11024 -0.125773 0.606413 
0.0913524 0.00368213 0.421113 
3.31214e-18 -5.05042e-18 1 

-0.225177 -0.0689809 -0.76065 
0.0543467 0.0368137 -1.7987 
4.97991e-18 -3.8307e-19 1 

-0.117881 -0.0121483 -0.365943 