# vtk DataFile Version 3.0
Output file generated by Yade's KinematicLocalisationAnalyser
ASCII
DATASET UNSTRUCTURED_GRID

POINTS 13483 float
579.929 31.4357 0.450049
682.254 77.1031 0.545381
117.335 6.10292 0.490957
716.729 4.17515 0.341036
488.238 7.95052 0.369544
307.553 35.8534 -0.47998
152.231 7.39304 0.458892
548.296 10.2893 -0.145599
486.584 24.8885 0.149013
659.431 14.6435 0.703524
204.952 9.0213 -0.101999
250.734 6.32386 -0.251925
623.575 60.3756 -0.160692
600.958 17.7586 -0.127261
133.67 18.4465 0.550907
215.96 35.7201 0.440327
212.115 13.0957 -0.294001
282.288 9.8808 0.411445
333.429 32.8453 -0.496065
512.299 9.75055 0.462211
402.812 37.1956 0.0602421
567.353 52.9907 -0.301163
708.752 57.8936 -0.537122
641.546 60.9461 -0.47483
449.956 16.2356 -0.371394
235.632 45.2933 -0.126361
481.506 29.3279 -0.503491
562.578 23.6872 0.365349
43.6097 16.3214 0.361346
666.382 66.0575 0.373074
472.866 5.56144 0.333096
16.0992 24.4658 0.339431
696.564 80.5294 -0.278635
484.244 2.5561 0.472648
76.5566 45.4224 0.110155
509.661 34.7724 0.34712
516.623 19.642 0.586373
336.143 22.5207 -0.209421
520.87 30.5049 -0.35654
342.643 33.802 -0.446255
235.045 14.9269 -0.345467
426.135 36.3641 0.0836279
630.577 19.1812 0.178215
187.49 6.23123 0.380922
53.5694 7.34202 0.0745121
66.4427 9.01742 0.282019
632.111 8.46019 0.640336
22.5513 11.6267 0.271719
579.884 51.5717 -0.360487
631.863 40.4896 -0.369523
168.743 32.9781 0.3248
685.631 63.4115 -0.124285
33.5394 29.0546 0.123866
519.675 2.67048 0.456536
138.645 7.58955 -0.49393
567.496 39.4263 0.399178
495.404 29.998 -0.118392
170.326 0.944232 -0.271082
31.9544 2.43439 0.295985
341.553 17.9195 0.250231
587.549 54.6149 -0.168767
452.339 35.6671 0.19961
390.668 1.03005 0.203088
643.328 9.7669 -0.444564
25.5632 44.5624 0.23588
250.664 31.1142 -0.335926
659.4 8.69349 0.501368
637.322 83.3776 -0.344487
408.866 8.72552 -0.49881
549.119 3.43909 -0.472942
673.783 41.4513 -0.555191
127.853 7.77561 -0.330187
489.888 27.8869 0.132212
469.29 16.3073 -0.0950349
288.467 16.9432 -0.340691
20.0821 13.8348 0.243442
705.66 73.6174 -0.405099
326.3 39.6164 -0.290945
628.787 37.4601 0.446213
637.297 19.5164 -0.285896
705.112 25.1539 0.246299
455.728 36.2335 -0.177044
90.6139 39.0773 -0.289483
631.671 52.2946 0.225554
615.466 66.9298 0.110102
714.615 64.3802 0.131796
706.545 0.700752 -0.703749
284.997 28.8935 0.460299
594.743 6.27525 -0.160224
23.6052 5.23955 0.580661
130.381 40.4677 -0.175036
502.303 15.5377 0.212473
698.136 53.0324 0.501171
192.012 28.8089 0.259323
43.0032 35.1378 -0.32375
483.122 1.25818 0.13946
230.814 8.7314 -0.424819
669.75 52.4778 -0.265749
684.421 47.3342 0.23236
354.157 21.8442 -0.27823
160.42 27.5486 -0.471271
534.198 51.8355 -0.480219
372.497 16.1136 -0.449972
406.368 29.7492 -0.0947359
370.472 4.61252 0.372474
531.186 13.6987 0.152721
716.675 18.6971 -0.244657
78.4961 40.2025 0.388667
329.088 4.99854 -0.21582
542.999 9.35884 -0.451872
353.471 44.8436 0.457974
24.6314 25.9547 -0.448661
29.6332 5.78496 0.308633
546.978 38.4033 0.464457
494.583 24.3415 -0.126787
25.392 38.5863 -0.431565
91.4055 31.4562 0.216675
319.266 16.2785 -0.28839
577.427 19.5068 -0.125988
466.747 39.4516 0.30415
674.285 9.08947 -0.510812
667.647 7.59663 0.265006
381.309 38.5217 0.129036
604.58 40.1927 -0.103064
233.6 17.5247 0.481563
324.516 3.89896 0.456248
101.835 31.8201 0.40265
114.18 24.2168 -0.359834
530.649 50.898 -0.0790881
300.712 18.4943 0.582167
660.623 65.4414 0.161082
642.767 83.027 0.10073
474.023 22.2424 -0.447595
695.723 34.6059 0.334264
422.651 23.5118 -0.28158
272.374 24.6751 0.30874
627.657 59.5306 0.278153
274.999 29.2289 0.408305
556.715 15.8015 -0.198334
327.337 36.2835 0.200264
496.86 11.5462 0.507067
361.776 32.7957 0.0990471
424.53 16.8133 -0.0945063
313.556 43.0022 -0.431625
188.251 30.1557 -0.13061
687.292 77.4417 0.134355
714.83 19.5375 -0.314546
5.99469 12.9615 0.478596
428.636 22.5302 -0.425683
37.134 23.4123 0.0888711
371.69 32.3468 -0.440544
389.497 25.1784 -0.251363
73.5673 12.0931 -0.537383
50.8478 33.9171 -0.42941
222.574 13.6255 0.423829
592.2 48.6461 -0.384083
559.969 24.8888 -0.453472
73.6327 20.9634 -0.531477
642.436 65.1332 0.488849
699.234 2.31005 -0.630609
631.03 76.7493 -0.495654
639.244 2.18678 -0.613127
535.392 32.4668 0.406072
568.66 52.363 0.616667
505.329 19.7392 -0.420575
715.784 6.95027 -0.258155
220.68 24.7418 0.121978
126.098 37.2986 -0.224759
243.744 6.85708 0.401067
93.0015 4.49228 -0.285023
62.7547 10.3068 -0.258371
272.601 36.9331 0.314852
16.9919 25.9912 -0.335946
542.59 21.6723 -0.534058
581.735 44.3325 0.236984
457.943 21.5692 -0.433534
713.202 85.7173 -0.368475
402.027 8.73034 -0.113661
432.548 37.3881 -0.385516
527.301 3.47719 -0.199482
22.4025 23.8033 -0.42955
559.379 5.57544 0.432117
533.827 6.43603 0.556351
203.333 11.4937 0.512127
420.892 16.5164 -0.222382
308.124 6.34267 0.367897
383.784 19.4355 -0.314361
660.321 46.0581 0.165941
190.34 25.9542 0.432561
700.808 21.6938 0.360546
662.263 41.51 -0.412042
378.915 10.5125 0.181376
657.669 2.53709 0.483653
583.809 29.0886 -0.415229
680.507 17.8441 -0.406274
426.84 44.3455 -0.192098
491.5 12.8864 0.363788
460.571 46.3534 -0.231138
441.922 8.58866 0.12825
634.71 77.6593 0.270036
634.316 72.9895 0.106437
190.197 39.3146 0.415752
703.607 28.5261 0.119956
569.24 53.7131 -0.290529
11.54 17.42 0.262498
403.574 25.7041 0.359693
185.325 23.3736 -0.415598
92.2756 39.8805 0.216584
695.758 50.5664 0.425599
626.321 79.5667 0.221639
315.709 26.0973 0.342395
524.535 12.8543 0.416355
81.6217 45.373 0.178148
244.949 26.3379 -0.469669
543.87 28.3419 0.36425
483.162 20.4953 0.549956
260.115 0.881417 -0.34366
543.218 56.5728 0.276033
523.794 49.8847 0.456353
478.145 34.6889 0.399711
494.999 1.81626 -0.666282
645.854 22.426 -0.482341
177.254 12.54 -0.216847
496.184 40.5466 -0.472578
547.956 47.8515 -0.125526
71.8526 0.97604 -0.27887
248.999 4.73211 0.184369
712.994 24.7567 0.170464
705.838 26.6648 -0.662778
717.653 24.211 -0.580712
300.761 8.47626 -0.236385
680.598 27.1838 -0.504332
404.344 41.9613 -0.343254
446.254 0.791932 -0.441732
622.488 67.2483 0.393889
26.0996 32.1079 -0.303231
328.393 41.7671 0.646756
249.856 2.87416 0.359785
699.926 77.7601 -0.239019
657.43 78.5144 0.216932
284.731 11.3104 0.263548
623.801 54.027 0.0924243
543.959 2.624 0.329103
532.018 9.36327 0.448989
95.6946 18.621 0.500675
300.644 1.01514 -0.226825
340.255 2.23311 -0.378933
13.5208 7.59696 0.47529
4.36325 31.6219 -0.307407
159.838 19.5742 -0.410299
67.4971 42.9913 -0.263956
65.9248 29.7128 0.325596
420.54 14.6311 -0.458312
364.682 36.1857 0.49227
682.17 63.9147 0.203708
18.9847 3.95812 -0.281723
69.5809 7.02904 -0.133005
599.852 53.8524 0.141916
291.937 0.926001 0.3775
362.016 16.8126 -0.113969
233.093 4.63499 0.358273
612.48 40.0285 0.158608
449.318 8.34665 0.43136
683.523 24.8762 -0.378237
610.13 50.8169 -0.323635
628.17 35.7735 -0.175872
418.267 27.4449 0.515111
101.208 45.8191 -0.312969
532.482 56.2132 0.0652027
678.625 12.521 0.278783
235.411 31.2887 -0.258801
31.4545 17.7045 -0.199289
333.94 13.8436 0.517624
106.565 41.043 0.390638
265.639 42.773 -0.211323
422.815 1.65473 -0.351077
703.438 68.8857 0.401701
634.268 2.51224 0.662311
329.564 3.45583 0.574297
297.946 26.8517 0.164626
459.285 43.2843 0.236642
80.7316 8.20251 -0.475899
196.004 46.1883 0.387567
691.051 55.4639 0.395752
491.314 41.8189 -0.0695782
198.354 42.0623 -0.289288
159.594 43.2991 0.391708
716.311 59.7795 -0.377818
715.688 21.155 -0.537389
586.979 3.22654 -0.647831
188.997 24.7995 -0.111404
533.766 35.6305 -0.106909
536.888 33.269 -0.266427
406.575 5.73259 -0.137979
478.128 0.943704 0.38871
680.635 63.1813 -0.512878
84.0938 31.5631 -0.241635
617.508 38.186 0.47691
272.22 15.6817 -0.388671
8.7392 2.52187 0.351733
124.71 38.8704 0.220701
66.2431 23.0213 -0.564408
653.888 62.2281 0.338114
701.783 85.6347 -0.161018
184.515 28.7645 0.192858
711.52 23.4136 0.483787
44.5351 37.2987 0.264137
90.0773 29.9349 0.189009
607.331 17.5993 0.391409
411.1 18.4813 -0.489111
513.591 19.2482 0.156455
235.818 29.3259 0.189104
601.885 3.91272 -0.530221
719.139 19.8002 0.476393
28.9506 33.0595 0.296848
268.091 7.79464 0.203282
220.202 15.2293 0.290265
1.04128 36.1845 -0.160845
223.513 14.6684 -0.386934
209.775 11.0737 0.113873
212.565 26.8042 0.286011
131.386 29.1542 -0.130759
537.283 18.5216 -0.38952
165.399 14.4926 -0.368636
694.244 77.5114 -0.231091
172.348 3.81242 0.513608
46.698 38.3649 0.453554
660.771 54.5111 0.562509
279.546 32.9578 0.38362
637.439 36.9441 -0.561826
705.615 66.964 -0.491824
298.794 9.08113 -0.110769
665.87 34.1431 -0.349244
326.522 2.51176 -0.433001
413.821 24.1627 0.383669
632.169 29.2958 -0.513858
105.075 12.6558 -0.396841
479.952 3.82333 -0.572656
687.464 24.1744 0.21414
87.5532 7.7161 0.236379
279.851 14.883 0.216768
421.285 11.8184 -0.208736
714.583 6.05325 0.603364
395.587 2.0042 -0.535349
175.931 39.2803 0.306614
681.207 10.1449 -0.398572
127.786 38.5243 0.219017
261.333 31.9166 -0.393206
398.244 21.9357 0.231378
559.195 17.7382 0.398541
384.658 9.91653 -0.509994
453.633 29.5406 -0.420954
683.397 76.9986 -0.411487
46.9027 11.9241 0.16485
297.248 39.1661 0.271962
378.41 28.2793 -0.363664
407.475 21.1927 -0.263251
514.706 50.3303 -0.376813
677.121 56.1527 -0.232005
638.543 72.3139 -0.357261
224.07 35.3722 -0.392778
13.9375 32.3059 -0.211271
632.241 73.0774 -0.114546
504.952 48.5887 -0.462445
228.131 40.3441 0.134479
637.729 47.3559 0.141383
149.657 9.82319 0.261269
364.4 22.0528 0.348927
461.091 44.2478 0.118452
412.013 19.8936 0.232163
678.604 76.4428 0.315252
424.214 3.89024 0.542009
49.1309 26.0883 -0.340734
467.141 32.977 0.351811
433.395 42.7865 0.478564
699.607 71.2738 -0.266446
667.846 30.6467 -0.255997
533.014 24.2989 0.147747
691.854 71.2806 0.490171
291.52 2.22154 -0.468832
377.248 30.6457 0.452371
28.5221 40.279 -0.29781
668.541 35.353 -0.183988
591.454 21.3922 -0.51204
461.547 0.763763 -0.450561
125.19 4.61076 -0.347331
425.571 40.8119 -0.134466
11.2263 0.935156 0.299284
711.389 10.2342 -0.0783424
368.633 40.4156 -0.398538
592.069 8.03861 -0.510756
[...]
POINT_DATA 13483
TENSORS Strain_matrix float
-0.575321 -0.681345 -0.436528 
0.0509932 0.151158 0.236574 
-2.67257e-17 1.96152e-18 1 

-2.35886 1.66759 -15.6069 
0.0468117 0.642097 10.1365 
-4.73428e-18 -1.44254e-19 1 

-0.164436 -0.0299962 -0.207154 
0.0905665 -0.0320495 1.03537 
-1.2241e-17 1.89315e-17 1 

-1.63755 -0.314662 -1.99147 
-0.238875 0.941989 2.67288 
-2.17772e-18 -4.97765e-18 1 

-0.319018 -0.111004 0.126387 
0.00537585 0.0201769 -0.207176 
8.25997e-20 9.14103e-18 1 

-0.116048 -0.033317 -0.607959 
0.0407283 -0.00985674 -0.288187 
-5.51526e-19 -3.1222e-18 1 

-0.180501 -0.0567275 -0.64784 
0.0405344 -0.00340114 -1.0771 
-3.237e-18 8.17981e-18 1 

-0.320654 0.147725 0.219839 
0.107575 0.0390369 -0.563771 
-1.45463e-17 -1.4408e-17 1 

-0.372752 0.269274 -0.561446 
-0.158021 0.180434 -0.416023 
-9.73988e-18 -1.69445e-18 1 

-0.610721 0.0579987 -3.64427 
-0.136164 0.0084858 0.46338 
8.52645e-18 5.10231e-18 1 

-0.108929 -0.0189804 -0.154048 
0.030268 -0.0758222 0.0542699 
-8.25903e-18 6.15927e-18 1 

-0.118599 -0.0812973 0.223672 
-0.0318313 -0.0889926 0.0813661 
8.25852e-18 -1.557e-19 1 

-1.51092 2.82634 8.51146 
0.0111633 0.437555 2.83179 
1.07239e-17 -9.41718e-18 1 

-1.4859 -1.05515 0.99114 
0.422885 0.673758 0.199569 
1.02883e-17 3.88401e-18 1 

-0.24436 -0.0492069 3.48401 
0.0346218 0.0656394 -1.7206 
6.33575e-18 -1.78658e-18 1 

-0.215174 -0.0607857 0.452652 
0.0462105 0.0712906 0.723155 
-9.34392e-18 -1.02121e-17 1 

-0.107572 -0.0420786 0.138947 
-0.0102406 -0.077653 -0.054873 
-1.18415e-17 1.55236e-18 1 

-0.207907 -0.0196208 0.0078607 
0.0577793 -0.0710685 -0.0359212 
-7.78214e-19 -1.83109e-19 1 

-0.243437 0.0177282 0.432 
0.0166694 0.0386295 -1.85959 
1.20195e-17 -1.87165e-18 1 

-0.356662 0.142945 -0.527765 
-0.070377 -0.0233508 -0.352875 
7.11274e-18 1.90829e-17 1 

-0.184196 -0.0382265 -0.316701 
0.166164 0.0201207 0.0219875 
-1.06189e-17 1.65183e-17 1 

-0.351331 -0.149771 0.0865239 
-0.136986 -0.0260154 -0.117882 
-1.17569e-17 1.01987e-17 1 

-2.12579 -1.80646 -40.1458 
-0.236405 0.30296 -5.13886 
3.42114e-18 -6.50697e-18 1 

-0.717549 0.894498 -54.3146 
0.127558 0.772228 -31.0439 
-2.9169e-19 -3.77577e-18 1 

-0.152859 -0.0803145 0.797363 
0.0322906 -0.0469851 0.0572275 
-5.00635e-20 -3.30419e-18 1 

-0.272135 -0.0138869 -0.118057 
0.0140237 0.0903707 0.0710912 
4.67056e-18 2.8985e-18 1 

-0.157681 -0.0741315 9.054 
0.0272402 -0.0310789 1.55787 
-4.56916e-18 -2.81145e-20 1 

-0.521404 0.11542 -0.0533321 
0.430312 0.0813075 -0.711252 
-2.23828e-18 7.02459e-18 1 

-0.118126 0.0456749 -0.483925 
0.0799643 -0.0734645 0.43345 
3.66727e-18 7.61908e-18 1 

-6.58279 5.21997 -18.5259 
-1.47514 1.82383 -5.35151 
-1.3426e-17 -2.81947e-18 1 

-0.340161 -0.0335318 0.134715 
-0.0626401 0.0190206 0.0740278 
-1.02281e-17 -6.60563e-18 1 

-0.133681 0.154197 0.113985 
0.00245171 0.0919784 0.0129271 
-1.31181e-19 1.06476e-17 1 

-0.406766 -0.754789 1.35875 
0.2579 0.271354 -0.515956 
1.03256e-18 -4.81859e-18 1 

-0.196926 0.0242546 -0.0242723 
-0.0260924 0.0293255 -0.043309 
-3.89956e-18 2.15694e-17 1 

-0.0834649 0.0145862 -0.176554 
-0.0748692 -0.113278 -0.388503 
6.72096e-18 -8.81616e-18 1 

-0.424094 -0.376832 -0.102671 
-0.0752422 0.164487 -0.321394 
-6.27967e-18 1.08208e-17 1 

-0.346878 0.0245702 0.878334 
0.0272918 0.12483 1.20024 
5.48881e-19 -1.08291e-17 1 

-0.0771317 -0.118519 -0.424307 
0.130604 -0.105598 -0.384505 
-7.10483e-18 5.76281e-18 1 

-0.635146 0.74279 1.78243 
0.123836 0.216111 1.18641 
7.71446e-18 8.70531e-18 1 

-0.134107 -0.0230257 -0.331731 
0.04847 -0.00585046 0.126376 
-1.6555e-17 2.06436e-18 1 

-0.170949 0.000141424 -0.110296 
-0.0610385 -0.0334451 -0.18656 
2.69488e-18 -1.78916e-17 1 

-0.0872199 -0.102945 -0.252029 
0.0723578 -0.090376 0.429331 
-7.15198e-18 -3.86537e-18 1 

-1.59984 -0.910797 0.749395 
-0.257937 0.27318 -0.42106 
1.28932e-17 -3.80529e-18 1 

-0.146382 0.0617255 0.44148 
-0.0720496 -0.051744 1.00768 
-1.19006e-17 -8.2549e-18 1 

-0.147816 0.0940052 -0.0758192 
-0.0574093 -0.0303589 -0.0404033 
4.8686e-18 -7.36641e-18 1 

-0.0967784 -0.0167307 0.115962 
-0.0218944 -0.0462373 0.0767429 
-2.99353e-18 -2.39948e-18 1 

-1.59675 1.08279 26.3397 
-0.814566 0.701032 25.3181 
9.97341e-18 3.7921e-18 1 

-0.0806731 -0.0147221 0.0135289 
-0.0303921 -0.10765 0.0196267 
8.86216e-18 -1.77243e-17 1 

-1.13389 -0.282736 0.422138 
-0.117366 0.485769 -1.63549 
8.50225e-18 -1.35397e-18 1 

-0.659597 0.238806 1.97546 
-0.43271 0.20864 0.410215 
-8.14585e-19 8.67285e-18 1 

-0.135424 -0.0483726 -0.0429632 
0.0219768 0.000583963 0.32955 
8.02816e-18 -3.61833e-18 1 

0.257256 -1.06938 0.999103 
0.806752 0.484994 0.607373 
-4.69607e-18 1.04655e-17 1 

-0.138361 0.0206953 0.149439 
-0.061985 0.0133771 0.0337395 
6.38188e-18 -2.49117e-18 1 

-0.286843 0.274291 0.142071 
-0.161812 -0.017996 0.213493 
1.9977e-17 1.30326e-17 1 

-0.164437 -0.0216584 0.0959656 
0.0378903 -0.0592238 -1.42784 
-1.24337e-17 1.93e-18 1 

-0.519655 -0.0310928 0.726995 
-0.110653 0.0948645 0.598763 
-8.83341e-18 -1.52886e-17 1 

-0.566107 0.411328 0.34951 
-0.235044 0.381129 -0.0708168 
1.24918e-17 6.00652e-18 1 

-0.115179 -1.01686 -0.981605 
-0.00530928 0.0111703 -0.555626 
-3.36088e-19 1.63206e-17 1 

-0.0537802 -0.00137807 0.00863336 
0.00610335 -0.124081 0.0295006 
-3.5032e-18 -8.19898e-18 1 

-0.127799 -0.0236907 -0.469971 
0.0358245 0.047614 -0.176454 
7.00158e-18 4.52541e-18 1 

-0.758216 -0.386116 -0.506043 
0.745437 0.761886 0.347452 
1.11403e-17 -3.14768e-18 1 

-0.0865069 -0.156894 0.57056 
0.100457 -0.0182139 0.199197 
8.72045e-18 -2.70211e-18 1 

-0.12589 -0.0854094 -0.275661 
-0.0153228 -0.0570523 -0.103325 
9.60487e-18 -1.09896e-17 1 

-0.423438 0.202042 -0.284343 
0.220366 0.00145076 -0.0122619 
-3.52002e-18 -2.21441e-17 1 

-0.0823211 0.0217564 -0.0805555 
-0.0305343 0.00824002 0.2849 
1.66021e-17 1.09029e-17 1 

-0.252298 -0.0051753 -0.189715 
0.0448945 0.0333863 0.196129 
7.87758e-18 3.03499e-18 1 

-0.69217 -0.192569 0.0769532 
-0.118032 0.103464 0.0823139 
1.05257e-17 -1.43886e-18 1 

-0.0485389 -0.163848 -0.863099 
0.136403 -0.000731642 0.644585 
3.90885e-18 -3.64448e-18 1 

-0.14738 0.00326852 0.0041572 
-0.0730412 -0.0577418 -0.0228638 
2.93254e-18 6.07965e-19 1 

-0.314752 0.0543784 0.455019 
-0.211742 -0.110739 -0.530168 
2.98534e-17 -7.08061e-18 1 

-1.09527 0.280946 -1.67747 
0.734165 0.340698 -0.967242 
3.0867e-18 1.15751e-18 1 

-0.125683 0.0182612 -0.061894 
-0.0397845 -0.0482396 0.0789334 
2.3356e-18 -1.32805e-17 1 

-0.285657 0.32659 0.146655 
0.0639855 0.329615 -0.660832 
8.76698e-20 2.44344e-18 1 

-0.209208 -0.0813561 -0.119656 
0.00626954 0.0317523 -0.631014 
-1.53831e-17 2.61591e-18 1 

-0.124172 0.0241265 -0.204624 
-0.0369483 -0.0340314 -0.114539 
3.69298e-18 2.58516e-18 1 

-0.171844 0.0461565 -0.145608 
-0.0856191 -0.0251655 -0.0178631 
7.46388e-18 -8.55236e-19 1 

-0.820716 -0.0992666 11.3103 
0.306692 0.20949 8.1695 
1.36704e-18 -3.48809e-18 1 

-0.133573 0.0681856 0.0306417 
-0.0501397 -0.0139629 -0.18293 
-3.67592e-18 6.72306e-18 1 

-0.664852 0.233711 1.13713 
-0.458491 0.25661 0.501742 
-2.93522e-18 -4.22144e-18 1 

-2.89436 1.64273 0.118953 
-1.05891 0.906175 -0.944616 
4.51994e-18 4.11189e-18 1 

-0.918514 -0.0853586 4.60651 
-1.65464 0.418535 1.05576 
-1.9781e-17 -1.96629e-18 1 

-0.0189584 -0.121683 2.09558 
0.0115646 0.0515105 -1.20346 
-1.47642e-18 -1.32287e-17 1 

-0.0758852 0.0567457 0.0592096 
-0.0497952 -0.0281576 0.309717 
-7.46658e-18 2.26015e-18 1 

-1.39657 -0.139009 -0.610202 
-0.895145 0.42776 -0.500764 
-2.3141e-18 -5.21978e-19 1 

0.0609095 -0.745035 -0.189667 
0.585814 0.199235 -0.487573 
-1.10269e-17 -1.54248e-17 1 

-0.199124 0.475503 -0.148426 
-0.326801 0.167501 0.191557 
1.45751e-17 8.52344e-18 1 

-2.08243 26.6049 115.595 
-0.00708121 0.436691 -4.31467 
-1.26325e-18 2.79455e-16 1 

-0.106881 0.0395354 -0.0630853 
-0.0103376 -0.127165 -0.0277291 
5.00093e-18 -4.10333e-18 1 

-0.336148 0.0397065 -0.318594 
0.0471197 -0.0263601 0.155098 
1.07678e-17 -4.51552e-18 1 

-0.144201 0.0132089 -2.18951 
0.0109912 -0.0368561 2.38057 
1.10012e-18 9.60136e-18 1 

-0.14094 -0.012327 0.139551 
-0.106318 -0.025074 -0.15247 
4.23091e-18 2.73246e-18 1 

-0.327489 0.0183266 0.174681 
0.166473 0.0436734 0.252607 
3.90217e-18 9.77068e-18 1 

-0.812646 -0.0854615 38.8382 
0.1169 0.306103 -5.10342 
4.75716e-18 -1.40165e-18 1 

-0.136582 -0.0424301 0.119889 
-0.0278926 -0.0363338 0.417357 
3.87463e-18 -3.99803e-18 1 

-0.116843 0.0391912 -0.156811 
-0.0160035 -0.00301767 -0.31947 
-9.23304e-19 5.34544e-19 1 

-0.172267 0.188953 -0.1292 
0.0144123 -0.0314308 0.138884 
-1.34146e-17 5.16969e-18 1 

-0.165058 -0.00310352 0.165067 
0.00461898 -0.0248688 -0.455288 
7.76448e-18 -2.19601e-18 1 

-0.0471954 -0.74916 -0.590071 
0.714067 0.34869 0.114971 
1.62723e-17 8.81418e-18 1 

-1.91888 1.82213 3.59861 
0.44856 0.468831 -0.459834 
9.97694e-19 4.65112e-18 1 

-0.144165 0.101649 -0.200776 
-0.0679489 0.0159541 0.404047 
6.26782e-19 1.83476e-17 1 

-0.126837 0.00766644 2.01314 
-0.0167234 -0.0151099 0.219197 
-6.82395e-18 -3.21258e-18 1 

-0.235952 -0.2978 -2.26028 
0.365229 0.251338 -1.752 
5.91162e-18 -4.85087e-18 1 

-0.165757 -0.000764206 -0.419627 
-0.0218696 -0.00191698 0.557946 
-8.72156e-18 1.05055e-17 1 

-0.128138 0.0579977 0.126782 
-0.0251622 -0.0651084 -0.0379322 
1.80713e-18 -4.39319e-18 1 

-0.174832 -0.0168609 0.0596966 
-0.21805 -0.0867928 -0.118888 
2.84458e-17 -1.08809e-17 1 

-0.470074 -0.00936085 0.214499 
0.0952539 0.120273 -0.132431 
4.18558e-18 2.62135e-17 1 

-1.04553 -0.547564 -0.21113 
0.229671 0.348263 -0.387055 
9.39532e-18 2.32123e-18 1 

-0.112346 0.0849591 -0.35694 
-0.123668 -0.00803928 -0.350253 
-3.53709e-18 -1.86329e-18 1 

-0.15459 0.0791046 0.100705 
0.0650848 -0.110067 -0.0684446 
5.23154e-18 -2.00677e-17 1 

-0.307386 0.516173 -1.13139 
-0.299645 0.0779727 -0.695792 
9.83977e-18 -5.96946e-18 1 

-0.147646 0.0115568 2.61807 
0.075947 -0.0486125 2.55136 
-6.63908e-18 2.51191e-17 1 

-0.234753 0.041108 -0.438325 
0.0881086 0.0831134 1.33699 
-1.43614e-18 -1.79517e-18 1 

-0.0965295 0.0250756 -0.0010825 
-0.0157589 -0.097724 0.0118934 
-1.25139e-17 -7.9594e-19 1 

-0.369561 0.0586954 0.61443 
-0.0814285 0.210381 -0.64335 
-7.85922e-18 -2.55222e-17 1 

-0.289636 0.32908 -0.0961856 
-0.0950527 0.242011 -0.0598097 
-6.45539e-18 8.80971e-18 1 

-0.127768 -0.0134342 -0.209595 
-0.0208135 -0.00587797 0.14106 
5.73695e-18 -5.15155e-18 1 

-0.136483 0.0576484 -0.364171 
-0.0650417 -0.0367423 -0.0577418 
-3.01129e-18 4.32873e-18 1 

-0.158052 0.0636528 -0.129224 
-0.0147093 -0.0399522 -0.0462921 
4.5656e-18 3.4952e-18 1 

-0.238041 0.0901962 0.077381 
0.0405116 -0.110651 -0.0108275 
-6.19255e-19 -6.17626e-18 1 

-0.138382 0.0517972 -0.0309438 
-0.0091636 0.0133101 0.206235 
3.27491e-18 4.93871e-18 1 

-0.843299 0.274439 -1.05547 
-0.0883621 0.0982313 0.455951 
-8.34312e-18 3.92251e-18 1 

-0.264528 0.383428 -0.0174396 
-0.0763234 0.00189511 0.376616 
1.32188e-17 -2.30715e-18 1 

-0.0873359 0.00469978 -0.130388 
0.0108299 -0.00940429 -0.128138 
7.25181e-18 -1.94892e-17 1 

-3.15515 3.56324 11.2332 
0.337307 0.483078 -0.203619 
-3.84812e-18 9.29724e-19 1 

-0.159608 -0.00927688 1.11698 
-0.0499618 -0.051329 -2.46804 
-2.23003e-17 9.35024e-18 1 

-0.12041 -0.00100852 0.064591 
-0.0439391 -0.107967 0.361821 
2.59346e-18 1.15618e-17 1 

-0.13224 0.00214797 0.141364 
-0.054325 -0.0316277 -0.0760486 
2.22028e-18 -5.04655e-18 1 

-0.246525 0.177298 1.60649 
0.110448 0.0891657 -0.933205 
2.41246e-18 -2.14168e-18 1 

-0.0949653 -0.43285 0.643495 
0.369902 0.15454 0.0562275 
2.92864e-18 1.0374e-17 1 

-0.163851 0.05069 0.196271 
0.0540821 -0.0257732 0.786327 
-3.53772e-18 -1.5109e-18 1 

0.118532 -0.554604 -0.535102 
0.670863 0.214325 0.0455306 
-3.61437e-18 -5.16943e-18 1 

0.00816616 -0.0692978 0.11341 
0.130747 -0.0174233 0.205701 
1.83624e-18 6.1208e-19 1 

-0.152487 -0.0264081 0.376991 
0.0003385 -0.0553816 0.33114 
-2.39586e-18 -3.83949e-18 1 

-0.592381 -0.168797 0.184104 
0.163582 0.15809 -0.328068 
9.37232e-18 -9.943e-18 1 

-0.172446 0.0381313 -0.868452 
-0.10231 -0.0132742 -0.114129 
-2.96343e-18 4.84201e-18 1 

-0.196589 0.117792 -0.0305594 
-0.00700278 0.165774 -0.675154 
1.36395e-18 -1.14718e-17 1 

-6.11031 6.13541 13.5327 
-1.24841 1.63012 0.942571 
7.12244e-18 -4.79146e-18 1 

-0.144284 -0.0128623 -1.48315 
0.028366 0.0282778 -1.6278 
1.34766e-17 -3.64584e-18 1 

-0.35258 -0.151183 0.522188 
0.320844 0.23223 -0.402992 
7.53953e-18 -4.5152e-18 1 

-0.0849058 -0.0635812 0.0261115 
0.0394817 -0.0648121 -0.0127036 
-8.92335e-18 1.96117e-19 1 

-0.185392 -0.0389604 -0.1174 
0.0733037 -0.0478263 -0.00667314 
-5.50753e-18 -1.1784e-17 1 

-0.125378 -0.0170506 -0.073172 
-0.0734244 -0.0459569 -0.0877455 
1.04871e-17 2.73576e-18 1 

-0.122534 -0.0772578 0.125662 
0.0258654 -0.0353668 0.00339777 
5.00614e-18 -5.67282e-18 1 

-0.104351 -0.0384868 0.0730797 
0.0351642 -0.00194328 0.162957 
3.88389e-18 -2.04415e-18 1 

-0.100401 0.00194024 0.284233 
-0.0789445 -0.0315536 0.329303 
2.90447e-18 1.52753e-17 1 

0.105135 -1.02998 -1.21322 
0.435326 0.311059 0.860249 
-5.4188e-18 -8.60485e-18 1 

-1.19684 -0.128253 0.370764 
-0.390976 0.557127 -1.39931 
-7.42919e-18 1.11163e-17 1 

-0.126948 0.0298659 -1.16432 
-0.0919324 -0.094195 -0.522822 
-6.45206e-18 -7.93189e-18 1 

-0.116184 0.063816 -0.0062862 
-0.0584603 -0.0235324 -0.26761 
-8.44385e-18 1.06937e-18 1 

-0.136046 0.0482938 -0.311554 
-0.0819655 -0.0133543 -0.194385 
9.98752e-18 1.51984e-18 1 

-0.133858 0.0351812 0.818144 
-0.0036314 0.0183983 0.757828 
1.13593e-17 -6.42811e-18 1 

-0.187087 0.230564 -0.233587 
-0.0752516 0.139935 -0.448404 
-4.21766e-18 -1.33658e-17 1 

-0.127125 -0.04971 -0.554599 
0.0256915 -0.0584528 0.191674 
1.58664e-18 -2.42805e-18 1 

-0.115841 -0.0144187 -0.51913 
0.0232756 -0.016274 -0.370212 
5.31258e-18 -7.64663e-18 1 

-0.0949924 -0.0188813 0.0521087 
-0.00348213 -0.0801624 0.140122 
-4.70166e-18 -5.0778e-18 1 

-0.300488 -0.826815 -0.767881 
0.593278 0.492112 -0.644787 
-5.35954e-18 5.27579e-18 1 

-0.329031 0.0896123 -0.181338 
-0.00810511 0.144638 -0.219648 
-3.69536e-18 -1.06041e-17 1 

-0.138987 -0.0146437 -0.642772 
0.00821209 -0.000546944 0.584041 
3.64018e-18 -8.23208e-18 1 

-1.42045 2.99379 33.2943 
-0.104405 1.65792 18.2954 
7.39869e-18 7.2902e-19 1 

-1.73887 0.181163 42.963 
0.198499 0.356146 -0.968959 
1.35113e-17 1.36938e-17 1 

-0.810224 0.578312 39.5971 
0.102557 0.53775 -22.526 
3.19908e-18 -3.8471e-18 1 

-0.3786 -0.36572 -1.4785 
0.0249074 -0.0664051 -0.724946 
1.34159e-17 -8.64683e-18 1 

-1.06053 -0.638963 2.13627 
-0.265231 0.271476 -1.5183 
-1.27328e-17 -1.7363e-19 1 

-0.60853 0.127227 16.1596 
0.0599719 0.780779 32.4441 
-1.01633e-18 9.67583e-18 1 

-0.280311 -0.138062 1.31184 
0.306266 0.0839391 0.53784 
1.25355e-17 -3.03431e-19 1 

-2.10079 -1.22567 -1.88305 
0.103712 0.833363 0.718465 
2.02348e-18 -2.87957e-18 1 

-0.176774 -0.0300567 0.141855 
0.0451842 0.115172 0.0552054 
-1.1878e-17 9.76473e-18 1 

-0.165653 0.00901122 0.125292 
0.0795523 0.0100299 -0.0922052 
-7.84785e-18 -2.76716e-18 1 

-0.135453 0.00426946 0.071989 
0.0183733 -0.0728911 -0.147395 
5.47465e-18 -7.55417e-18 1 

-0.190602 -0.0270127 -0.0272965 
0.0185135 -5.78354e-06 0.237469 
-2.77656e-18 1.44003e-18 1 

-0.154746 -0.00686735 -0.120068 
-0.0417372 -0.00799459 0.0877446 
-4.1737e-18 1.1868e-17 1 

-0.0988973 -0.0591546 -0.268255 
0.0434497 -0.0177738 0.139213 
-6.98281e-19 1.17438e-18 1 

-0.147063 0.191888 0.493976 
-0.0652962 0.102427 0.499408 
-3.23956e-19 3.10998e-18 1 

-0.651479 -0.0820724 2.25077 
-0.214122 0.159034 0.659806 
1.9023e-17 1.98112e-17 1 

-0.518742 -0.398892 -0.230972 
0.0405906 0.143625 0.395574 
1.86029e-17 -3.28286e-18 1 

-0.157126 -0.176837 1.15413 
0.041915 -0.0514013 -0.131678 
-9.23399e-18 1.23164e-17 1 

0.183508 -0.7251 -0.39822 
0.631339 0.211512 -0.0256354 
-2.00246e-17 8.32705e-18 1 

-0.132299 -0.0226016 0.0028894 
-0.0172328 -0.0550837 -0.13031 
-2.04124e-18 -1.56127e-17 1 

-0.281151 -0.0710217 0.223998 
0.0436729 0.0949291 0.749519 
4.74245e-18 8.59863e-18 1 

-0.243788 -0.139726 -0.12338 
0.151056 -0.0731939 -0.145381 
-2.03627e-17 -3.9737e-19 1 

-0.275933 0.0606758 -0.767789 
0.14566 0.0451643 0.750224 
7.80779e-18 1.32254e-17 1 

-0.655687 -0.0258317 0.251634 
-0.0100411 0.197417 -0.0351153 
5.98445e-18 6.6577e-18 1 

-0.627965 -0.0707212 -1.45925 
-0.0342313 0.215127 -0.927623 
-5.58725e-18 -2.66412e-18 1 

-0.133978 -0.00200336 2.1972 
0.0266086 -0.0518717 0.0475234 
-4.42317e-18 -2.22429e-18 1 

-0.259927 -0.0297399 0.129315 
0.116183 0.0350486 -0.186359 
1.39589e-17 -1.09456e-17 1 

-0.183555 -0.0406381 -0.197378 
-0.0198573 -0.0399237 0.223265 
2.49428e-18 6.60251e-18 1 

-0.21941 0.00196778 0.372638 
-0.0760187 0.0289604 -0.224629 
2.66622e-18 -1.03879e-18 1 

-0.195785 -0.969193 0.64172 
0.667681 0.446251 0.317155 
3.61603e-18 -4.32911e-18 1 

-0.147708 0.0429621 -0.824375 
-0.0915268 -0.0316268 0.188895 
-3.9555e-18 -5.20879e-18 1 

-1.73789 -0.167889 0.0819449 
0.083095 0.672178 1.12712 
4.90441e-18 9.32713e-18 1 

-0.0614385 -0.959852 0.501178 
0.611177 0.369377 0.687425 
1.22907e-17 -6.65744e-19 1 

-0.195044 -0.0741388 -0.122578 
0.136871 -0.00300676 0.153777 
4.01023e-18 -1.55499e-18 1 

-0.980469 -0.535197 -1.08229 
0.0810203 0.456904 -0.629098 
-3.07396e-18 -3.30243e-18 1 

-1.41496 -0.127258 4.84588 
-0.035364 0.456048 0.310106 
1.51506e-17 -2.1102e-18 1 

-0.736214 -0.0625391 0.504084 
-0.415538 0.134643 0.479015 
6.96251e-18 1.76441e-17 1 

-0.400015 -0.0472014 -0.0521126 
0.058375 0.232646 -0.435884 
1.50105e-17 -2.43456e-17 1 

-0.118737 0.134945 -0.0820769 
-0.0880213 -0.052971 -0.0882239 
1.56137e-18 1.6939e-18 1 

-0.176516 0.0800928 -0.0851826 
-0.0784111 -0.0401115 -0.100072 
9.66627e-18 1.30625e-18 1 

-0.117648 -0.0579447 -0.110731 
-0.0561687 -0.0695264 0.202159 
-1.07723e-19 1.31422e-17 1 

-0.138738 -0.349395 -0.232689 
0.415321 0.122291 0.233642 
-2.81813e-18 1.00647e-17 1 

-0.419645 -0.388445 0.547512 
0.125904 0.233722 -0.492914 
-1.27235e-17 -8.98351e-18 1 

-0.316395 -0.0758592 -0.984792 
-0.0586446 0.118716 -0.524443 
-4.46122e-18 6.63154e-18 1 

-0.990396 0.467122 2.72904 
-1.25852 1.33119 -0.547693 
-6.43926e-18 2.0785e-17 1 

-0.942614 -0.361661 0.105592 
0.379099 0.468337 -0.669888 
-1.10452e-18 1.07879e-17 1 

-0.320668 0.123669 -0.233216 
-0.145987 -0.0307166 0.127205 
6.74344e-19 -1.06631e-17 1 

-0.0873076 -0.000662964 -0.0660944 
-0.0726318 -0.0205346 0.0318681 
-5.66609e-18 -4.3395e-18 1 

-0.112864 0.0169522 -0.407626 
-0.0199217 -0.0169814 -0.405643 
-1.59782e-18 -1.42472e-17 1 

-0.133847 0.0373908 0.456759 
-0.016957 0.0273492 0.0272796 
-1.7376e-18 -3.37546e-18 1 

-0.181368 -0.0607222 0.144133 
0.162912 -0.0470903 -0.928088 
5.36514e-18 -4.04142e-18 1 

0.0164801 -0.559331 -0.595077 
0.354092 0.0975092 -1.08662 
5.10988e-18 2.66345e-19 1 

-0.057631 0.0497881 -0.112473 
-0.047684 -0.01824 0.157787 
-5.81968e-18 2.02157e-18 1 

-0.519872 -0.109884 -1.57118 
0.237221 0.177006 -0.498676 
-6.10305e-18 1.83725e-18 1 

-0.0861315 0.173362 0.0251167 
0.00858678 -0.103278 -0.464161 
1.45512e-17 9.92913e-18 1 

-0.0931741 0.0307672 0.625596 
-0.0338728 -0.00644268 0.40866 
4.38448e-18 -6.33669e-18 1 

-1.14514 -0.636936 2.12414 
0.433389 0.69265 -2.3347 
-2.46822e-18 -1.48914e-17 1 

-0.329475 0.119481 -4.21892 
-0.0962136 0.0895613 -0.290124 
5.59752e-18 4.04927e-18 1 

-0.156994 -0.0225833 0.0403385 
0.00777482 -0.0723844 -0.285007 
-1.3514e-17 4.57885e-17 1 

-0.179655 -0.326921 -1.15747 
0.155327 -0.0167239 -1.57195 
-2.88593e-18 1.32586e-17 1 

-0.282139 -0.53344 -1.62166 
0.317041 0.190551 -1.87697 
-1.81164e-17 -1.79768e-17 1 

-0.142419 -0.0259422 -0.326977 
-0.0581626 0.000484629 -0.138868 
-7.45054e-19 5.21538e-18 1 

-0.213618 0.344689 18.9471 
-0.00607833 -0.158843 -0.846306 
-2.31357e-18 -1.96703e-17 1 

-0.277122 -0.240265 0.592885 
0.29636 0.0430373 0.125827 
4.87089e-18 7.40376e-19 1 

-0.127238 -0.021372 0.117782 
0.0711587 -0.0335033 -0.0913069 