# vtk DataFile Version 3.0
Output file generated by Yade's KinematicLocalisationAnalyser
ASCII
DATASET UNSTRUCTURED_GRID

POINTS 13483 float
601.859 29.8588 0.455604
722.61 73.8696 0.516869
119.356 6.23502 0.463033
756.237 4.15528 0.509312
498.034 7.88378 0.339199
313.449 35.5279 -0.480504
155.618 6.98699 0.443575
566.677 10.3253 0.179329
495.663 23.4933 0.179564
694.704 14.0408 0.659016
209.244 9.09863 -0.111911
255.608 6.32944 -0.253544
651.536 48.0918 -0.167697
625.948 15.4758 -0.138009
136.198 17.3949 0.353578
220.318 34.8713 0.36618
216.533 13.0086 -0.291044
287.544 9.8651 0.402514
339.5 32.73 -0.501744
522.847 8.56696 0.346404
410.117 37.0837 -0.0160525
586.54 49.252 0.265167
749.705 53.6314 -0.550281
677.667 52.5974 -0.435804
457.898 16.139 -0.368982
240.039 44.9201 -0.128865
490.736 28.1418 -0.503261
581.922 22.3679 0.242592
44.8537 16.042 0.38236
700.55 58.7876 0.342198
481.944 5.54773 0.326216
16.2653 24.2394 0.339255
737.307 76.6726 -0.279978
493.822 2.57544 0.46912
78.0137 45.2314 0.109015
519.579 31.371 0.330348
529.135 16.868 0.437736
342.244 22.4299 -0.211396
531.108 25.7722 -0.327731
348.867 33.5991 -0.422776
239.749 14.8619 -0.338166
433.739 36.2674 0.0767448
660.071 13.1974 -0.123247
191.601 6.27198 0.364604
54.854 7.17878 0.0729129
67.8457 9.00144 0.280919
667.096 8.8087 0.631268
23.3478 11.6067 0.288803
606.069 48.4195 -0.376193
661.791 33.5408 -0.376829
171.876 32.708 0.320612
725.852 60.0967 -0.125175
34.5006 28.5403 0.124351
533.203 3.0325 0.330745
141.33 7.476 -0.506737
589.559 37.5888 0.462749
505.133 28.6919 -0.124247
174.306 0.949167 -0.270797
32.7815 2.43623 0.292993
347.604 17.9136 0.264016
615.388 49.3226 -0.170716
461.561 35.0303 0.204527
398 1.02756 0.200467
677.807 9.80312 -0.455356
26.407 43.883 -0.235465
255.46 31.0166 -0.33002
694.634 8.18074 0.322396
665.871 70.8545 0.345809
416.427 8.72069 -0.483998
567.585 3.5348 -0.394094
712.979 39.3069 -0.510937
130.011 7.71485 -0.330786
498.672 27.111 0.136097
477.174 15.6075 -0.177531
293.645 16.9564 -0.346167
20.5162 13.5754 0.247944
746.357 69.459 -0.417137
332.304 39.4821 -0.281102
659.048 29.9261 0.486773
668.726 16.1775 -0.415265
745.88 21.8212 0.233968
464.914 35.5998 -0.183063
92.253 38.9506 -0.28612
667.148 44.4311 0.235282
644.072 54.1508 -0.0115251
755.595 60.0036 0.123806
744.62 0.728117 -0.726893
290.322 28.8965 0.482387
616.328 6.55533 0.0914827
24.3278 5.2696 0.557011
132.689 38.8774 -0.162952
512.61 14.6625 0.223553
738.879 49.6023 0.475773
195.397 29.054 0.236387
43.9657 34.7355 -0.320199
492.668 1.29854 0.129708
235.462 8.66343 -0.419915
709.635 50.1249 -0.264252
724.63 44.5657 0.220578
360.984 21.3676 -0.258054
163.596 27.1941 -0.467286
547.381 42.665 0.478816
379.568 15.9237 -0.457423
413.717 29.636 -0.0952483
377.609 4.62878 0.415843
547.53 11.8335 -0.200357
757.578 15.8068 -0.276415
80.1646 39.9748 0.402598
335.258 4.98033 -0.215339
560.483 9.23831 -0.495063
359.92 44.2105 0.457862
24.8262 24.5742 -0.511712
30.431 5.77304 0.325753
566.367 36.0604 -0.547103
505.328 23.8653 -0.162968
26.2366 37.7668 -0.431658
93.0348 31.3548 0.220295
325.182 16.047 -0.289086
598.612 19.7445 -0.140338
475.97 38.6012 0.305111
710.254 9.04005 -0.506562
703.435 7.4586 0.260228
387.892 37.7788 0.104815
631.748 32.5561 -0.111559
238.303 17.423 0.481775
330.674 3.87453 0.458912
103.499 31.6994 0.402701
116.222 23.9894 -0.308443
543.544 42.6649 -0.0888356
306.737 18.9007 0.506368
694.752 58.5069 0.139892
670.723 70.3191 -0.103242
482.885 21.1466 -0.449045
735.938 31.3992 0.300694
430.281 23.4242 -0.271657
277.845 24.3986 0.291692
664.118 51.7252 0.293021
279.934 29.1046 0.38485
576.69 13.722 -0.276688
333.375 36.1642 0.199548
506.916 11.131 0.496949
368.204 32.2144 0.0962955
432.291 16.8398 -0.102449
319.435 42.7003 -0.422113
191.635 30.2387 -0.125316
727.885 73.9647 0.104712
755.663 16.5505 -0.342546
6.08655 12.6801 0.469099
436.398 22.5624 -0.422781
38.1691 22.9194 0.0849223
378.2 31.916 -0.438109
396.901 25.0787 0.248601
74.9876 12.0993 -0.534946
51.8747 33.6532 -0.428996
227.154 13.4897 0.422856
617.828 42.1914 -0.396271
578.872 23.1919 -0.433821
75.0117 20.9008 -0.540546
678.387 56.4723 0.542995
735.29 2.4067 -0.552326
659.753 64.3471 -0.485835
673.652 2.1807 -0.622413
551.618 29.7741 0.39679
588.185 49.2744 -0.450175
515.82 18.5347 -0.449965
754.89 5.24747 -0.426427
225.192 24.5668 0.12046
128.224 35.9581 -0.212942
248.565 6.85299 0.399775
94.5402 4.47355 -0.282092
64.1373 10.2691 -0.254952
277.67 36.644 0.299989
16.8373 25.9029 -0.340244
559.026 20.1592 -0.521788
606.09 41.7333 0.231412
466.388 20.848 -0.419219
754.16 81.3348 -0.364147
409.507 8.69555 -0.109749
440.247 36.8508 -0.369176
541.57 3.50263 -0.194255
22.5462 23.7944 -0.449433
579.241 4.55404 0.460715
549.669 4.67163 0.304126
207.499 11.6067 0.49262
428.533 16.5117 -0.205943
313.649 6.32643 0.364998
391.019 19.3545 -0.314276
699.519 44.8424 0.148953
193.878 26.0428 0.430828
741.042 19.0079 0.337092
700.954 40.2392 -0.392358
386.162 10.4613 -0.153237
692.973 2.46113 0.47881
605.741 27.3494 -0.396675
716.704 18.1159 -0.401691
435.308 43.3113 0.335073
501.554 12.7336 0.363728
469.867 45.6556 -0.22529
449.802 8.66702 0.122062
663.509 64.9857 0.27395
662.811 60.4271 0.182965
193.903 39.5018 0.370941
744.481 25.2198 -0.0966495
590.337 49.2825 -0.264761
11.5776 17.2652 0.250318
410.981 25.6024 0.360914
188.925 23.3782 -0.419003
93.9134 39.7686 0.212728
736.317 47.2519 0.414279
655.046 67.3225 0.225031
321.687 25.8563 0.344368
538.321 10.3738 0.325824
83.1101 45.0884 0.175505
249.675 26.3577 -0.463886
559.763 26.2205 0.365628
492.021 19.3347 0.487891
265.005 0.887555 -0.347357
556.653 44.9004 -0.383819
536.541 43.1126 0.504782
487.321 33.4924 0.414162
504.765 1.66707 -0.665351
680.75 21.3735 -0.452777
181.133 12.3644 -0.180442
506.675 39.0209 -0.425799
567.071 44.1986 0.114271
73.3092 0.976366 -0.278255
253.855 4.73086 0.181801
753.952 22.2093 -0.169101
746.716 23.2934 -0.667325
758.571 21.2038 -0.581127
306.238 8.60834 -0.23048
719.572 23.8574 -0.480784
411.697 41.8479 -0.337815
454.011 0.798456 -0.421026
650.815 55.3714 0.494226
26.9 31.3588 -0.300346
334.373 41.6315 0.617726
254.72 2.87309 0.352375
740.626 73.7977 -0.235237
692.487 71.6463 0.144912
290.018 11.2953 0.253576
659.412 45.6479 -0.092403
562.367 2.50768 0.271681
547.494 7.78941 0.443008
97.2482 18.5358 0.49935
306.078 1.03825 -0.227916
346.527 2.23454 -0.376318
13.9295 7.54086 0.451751
4.42088 31.3947 -0.293552
163.231 19.2101 -0.407518
68.7215 42.5956 -0.210087
67.1917 29.6533 0.324137
428.209 14.637 -0.448814
371.14 35.7152 0.486262
722.463 60.7232 0.191087
19.6604 3.99992 -0.271924
71.0104 7.02523 -0.132232
626.781 44.4251 0.151878
297.372 0.935797 0.369497
368.859 16.406 -0.108708
237.823 4.60889 0.361583
643.98 33.6033 0.228856
457.222 8.31412 0.417419
722.816 22.8749 -0.574505
635.961 38.7847 -0.282349
658.518 28.1016 -0.198556
425.642 27.2994 0.517807
102.968 45.6914 0.303106
546.489 47.0177 0.0750235
714.75 12.5012 0.277867
240.127 31.1972 -0.260375
32.2363 17.4127 -0.193978
340.034 13.8121 0.514753
108.379 41.0032 0.156638
270.826 42.5604 -0.215101
430.498 1.64248 -0.331614
744.07 64.9066 0.390834
668.623 2.59171 0.658572
335.759 3.44126 0.573419
303.361 26.8272 0.150967
468.411 42.6513 0.230557
82.2017 8.21188 -0.471014
200.041 45.6361 0.377571
731.881 52.4813 0.402224
501.512 40.6476 -0.0804646
202.522 41.6065 -0.291184
162.49 42.8724 0.387365
757.277 55.3986 -0.379573
756.515 18.1541 -0.5426
608.422 3.36429 -0.640932
192.551 24.875 -0.107318
553.037 31.1441 0.133199
554.703 30.113 -0.30326
414.094 5.71939 -0.137368
487.627 0.978355 0.364254
720.809 60.267 -0.484803
85.6982 31.3677 -0.248388
648.312 31.0379 0.504135
277.267 15.5843 -0.375087
9.45498 2.3432 -0.347536
126.908 37.6059 0.215057
67.5795 23.1041 -0.53524
687.601 55.5223 0.248652
742.733 81.537 -0.160616
187.905 28.762 0.192504
752.148 19.9889 0.534855
45.4493 36.9199 0.265892
91.7356 29.8172 0.190349
633.41 15.2879 0.53776
418.607 18.4068 -0.475646
525.926 16.8644 0.128633
240.592 29.2514 0.189791
623.309 3.95937 -0.515108
760.062 16.7887 0.471247
29.8029 32.3357 0.288352
273.188 7.72977 0.198327
224.773 15.0866 0.28579
1.04723 35.9513 -0.158232
228.101 14.5272 -0.385559
214.153 11.0197 0.116616
217.066 26.6527 0.27374
134.403 28.2568 -0.125692
553.4 16.4966 -0.358305
168.961 14.2859 -0.365372
734.924 73.7602 -0.22771
176.301 3.85202 0.506781
47.6309 38.0019 0.445617
700.814 53.111 0.503129
284.94 32.3862 0.405011
667.643 30.9889 -0.52142
746.353 63.121 -0.509187
304.283 9.23212 -0.103481
703.719 32.762 -0.348146
332.709 2.50319 -0.432307
421.407 24.1025 0.369749
662.77 24.2083 -0.429258
106.572 12.4275 -0.429696
489.673 3.93057 -0.525177
726.662 22.7526 0.221711
89.0552 7.70778 0.231197
285.051 14.8624 0.210168
428.985 11.8444 -0.207756
753.765 5.41004 0.683637
402.967 1.99285 -0.532779
179.012 39.1324 0.304434
717.427 10.2188 -0.367267
129.986 37.0834 0.207609
266.247 31.7851 -0.388442
405.643 21.8304 0.229766
578.796 16.0083 0.414099
391.953 9.87817 -0.505064
462.745 28.9409 -0.417996
723.807 73.6477 -0.387182
48.165 11.7034 0.153036
302.973 38.7797 0.264107
384.853 27.8556 -0.357325
414.991 21.1394 0.238963
527.531 45.7543 0.356752
716.963 53.6379 -0.229839
666.97 59.5389 0.30135
228.534 35.051 -0.394408
14.0694 32.2026 0.151281
660.751 60.619 -0.119875
516.527 45.4331 -0.46978
232.468 40.0969 0.127415
672.758 39.04 0.108289
152.889 9.37334 0.230181
371.257 21.649 0.3373
470.268 43.5269 0.110138
419.537 19.8334 0.225639
718.552 73.1593 0.297092
431.95 3.88529 0.526973
50.2567 25.7869 -0.33557
476.282 32.0988 0.342662
441.511 42.1281 0.468552
740.15 67.3818 -0.267475
706.756 30.1319 0.299871
548.342 21.0087 -0.124793
732.328 67.6153 0.497273
296.926 2.24629 -0.45853
383.711 30.2354 0.460199
29.329 39.5354 -0.300731
706.548 34.0713 -0.141549
613.832 21.1025 -0.504863
470.383 0.771021 -0.474303
127.527 4.52842 0.273952
433.183 40.6648 0.100465
11.9044 0.901526 0.317364
752.618 7.89655 -0.106522
375.157 39.9328 -0.399675
[...]
POINT_DATA 13483
TENSORS Strain_matrix float
-0.184442 -0.070137 -0.359255 
0.094448 0.0399519 -0.628302 
1.45035e-17 -3.73955e-18 1 

-1.84546 1.71583 25.2189 
0.315675 0.570059 14.9747 
7.72474e-19 1.32331e-18 1 

-0.145128 -0.0202514 0.16013 
-0.0114271 -0.029201 0.0582775 
6.69176e-18 1.75194e-17 1 

-1.31499 -0.473109 -1.60172 
-0.265226 0.470233 1.13688 
1.50367e-17 7.51834e-18 1 

-0.306822 -0.0479972 0.0625567 
-0.0234324 0.0177948 0.145375 
-1.61032e-17 -9.00879e-19 1 

-0.106185 -0.0327189 -0.433435 
0.0398969 -0.015946 0.0720932 
1.67363e-18 2.87592e-18 1 

-0.112368 -0.0431508 -0.249048 
0.0114516 -0.0787865 -0.315827 
-6.30926e-18 -8.56433e-18 1 

-0.159103 -0.0763615 -0.0993548 
0.154762 -0.0400426 0.0253775 
-1.12056e-17 1.51797e-18 1 

-0.137113 0.048605 -0.65496 
0.086645 0.0423218 -0.374231 
1.46609e-18 -2.01587e-18 1 

-0.494142 0.0962294 -1.99329 
-0.101888 -0.0278769 -4.15993 
6.82758e-18 3.6588e-18 1 

-0.0831937 0.0145933 -0.149375 
0.0100056 -0.0633285 0.0283845 
1.71186e-17 9.33741e-18 1 

-0.111124 -0.0770767 0.218962 
-0.0345833 -0.0888854 0.081916 
-1.17339e-17 2.23421e-18 1 

-0.773592 1.47338 -0.491268 
0.30217 0.183392 1.18296 
5.40196e-18 4.35642e-19 1 

-0.569568 -0.315204 0.256466 
0.223425 0.367893 -0.015015 
-5.3298e-18 1.10812e-17 1 

-0.149649 -0.0208667 -0.166486 
0.0114759 -0.033949 0.019434 
9.10569e-19 5.72127e-18 1 

-0.137351 -0.127711 0.563113 
0.0667052 0.0266002 0.648035 
4.85741e-18 -9.71482e-18 1 

-0.0960305 -0.025597 0.123445 
-0.0183691 -0.0825027 -0.0581941 
1.08881e-17 3.29212e-18 1 

-0.191618 -0.0299913 0.00523846 
0.0597238 -0.0711561 -0.0199811 
-5.09047e-18 -5.36813e-18 1 

-0.232861 0.0226748 1.16851 
0.00888963 0.0480733 -5.48191 
-6.03402e-18 -6.974e-19 1 

-0.125797 0.0141818 0.199519 
-0.0932355 -0.0538695 0.583816 
-3.95726e-18 -3.77455e-18 1 

-0.176367 -0.0310785 -0.306526 
0.161579 0.0203708 0.0163503 
6.05313e-18 -7.97242e-18 1 

-0.197434 -0.0951301 -0.587567 
-0.165863 -0.0177171 0.059369 
-1.31909e-19 8.24434e-18 1 

-2.20829 -1.75123 -32.6604 
-0.277417 0.29785 -3.48775 
-4.9256e-18 -9.47302e-18 1 

0.021085 -0.551195 1.57823 
0.518143 0.0684953 -0.28694 
3.4034e-18 3.82565e-18 1 

-0.142043 -0.0477648 0.42285 
-0.021712 -0.0642279 -0.142096 
8.09369e-19 8.63326e-18 1 

-0.185645 0.083645 -0.00724705 
-0.0663221 0.0585698 0.0163091 
8.86987e-18 -7.07962e-18 1 

-0.105312 -0.0180638 2.53505 
0.0439395 -0.0144911 -4.14676 
2.18555e-18 4.191e-18 1 

-0.259789 -0.0515835 -0.186496 
0.208298 0.0509195 -0.155219 
1.22839e-17 6.39164e-18 1 

-0.11662 0.0238124 -0.484604 
0.0908182 -0.0745852 0.585644 
7.86145e-18 -1.23745e-18 1 

-2.58374 3.24249 -19.5593 
-0.784197 1.42053 -8.36639 
-4.6209e-18 5.08671e-18 1 

-0.292829 -0.0734025 -0.0715242 
-0.0518796 0.00760897 0.0349649 
7.99187e-18 -8.77324e-19 1 

-0.143075 0.0487811 -0.0186644 
-0.0288835 0.0800507 -0.00964005 
-4.03301e-18 -1.5488e-17 1 

-0.404701 -0.72277 1.53882 
0.22885 0.27122 -0.653444 
-3.88221e-18 -4.09961e-18 1 

-0.183387 0.0394798 0.0406124 
-0.0469652 0.0280382 -0.202158 
1.2664e-17 -8.5758e-18 1 

-0.0610327 -0.00563636 -0.124982 
-0.0894926 -0.129952 -0.397327 
1.01865e-17 -1.3354e-17 1 

-0.439755 -0.116627 0.058884 
-0.230799 0.169876 -0.207492 
7.81908e-18 9.93235e-18 1 

-0.185576 -0.035438 0.0221717 
0.0431518 0.0150126 -0.203716 
-8.00311e-18 -8.2473e-18 1 

-0.019489 -0.205231 -0.175169 
0.110815 -0.186944 -0.246265 
-8.49068e-18 -4.24534e-18 1 

-0.393562 -0.156603 0.54914 
0.21701 0.161516 0.16331 
-2.11152e-18 -1.95316e-17 1 

-0.134308 -0.0238263 -0.489323 
0.0287637 -0.0245223 0.45138 
3.93341e-18 0 1 

-0.15708 -0.000961452 -0.0792839 
-0.0498091 -0.0357477 -0.161776 
-4.83699e-18 -4.48269e-18 1 

-0.0877312 -0.0428447 -0.13936 
0.0616684 -0.0475472 0.483752 
-1.75463e-18 -8.47691e-19 1 

-1.19654 -0.0739262 -1.64832 
-0.0890098 0.497652 0.463256 
1.72936e-17 2.54476e-18 1 

-0.136668 0.0493608 0.384036 
-0.0575681 -0.0471318 0.945772 
-1.04562e-17 -2.09959e-17 1 

-0.129014 0.0772769 -0.0015412 
-0.0327 -0.0315452 -0.0513844 
4.839e-18 1.97145e-18 1 

-0.0930881 -0.0247083 0.115981 
-0.0160791 -0.0479993 0.0573745 
4.47534e-19 -1.67825e-18 1 

-0.725448 0.437531 6.64648 
-0.429425 0.168093 6.84705 
1.13877e-17 -7.72724e-19 1 

-0.0665803 -0.0468345 0.0175631 
0.0250244 -0.126328 0.0453397 
-1.00138e-17 7.16775e-18 1 

-0.487648 -0.144415 0.124731 
0.0955276 0.163119 -0.126872 
2.82053e-18 7.78625e-18 1 

-0.803715 0.261892 2.73607 
-0.334013 0.264793 0.426174 
-1.76204e-19 -9.08112e-18 1 

-0.125694 -0.0641278 -0.00634217 
0.030561 0.00116615 0.308107 
-1.38945e-17 -2.11949e-18 1 

0.187786 -1.01219 1.00868 
0.76986 0.460668 0.605215 
9.52195e-19 4.41472e-18 1 

-0.114437 0.00347092 0.142639 
-0.0307923 0.00739397 -0.0183856 
-9.7644e-18 7.08474e-18 1 

-0.158649 0.0514694 0.097495 
-0.0110207 -0.037626 -0.032612 
-3.80344e-18 4.7543e-19 1 

-0.135744 -0.0188278 1.82565 
-0.0157007 -0.0503923 0.494084 
4.91845e-19 2.73344e-18 1 

-0.258651 -0.102867 -0.600696 
0.00117223 0.0434936 -0.0480662 
5.70598e-18 -8.3578e-18 1 

-0.358705 0.142743 0.583224 
-0.160549 0.196946 0.323159 
1.2304e-17 -9.19609e-18 1 

-0.102434 0.143643 -0.276529 
0.00149062 -0.0984824 -0.29668 
-3.74969e-18 -1.14696e-17 1 

-0.0524826 0.0025968 -0.00613773 
0.000791342 -0.127245 0.0611959 
-6.36199e-19 -5.85469e-18 1 

-0.102609 -0.0492344 -0.254843 
0.0157399 -0.00255121 0.0283071 
8.69275e-18 -2.58713e-19 1 

-0.563101 -0.146645 -0.146828 
0.500416 0.621526 -0.0073985 
-5.78306e-18 -8.40285e-18 1 

-0.103867 -0.137187 0.267174 
0.037035 -0.0342657 -0.0337026 
1.23041e-17 -4.24279e-19 1 

-0.113359 -0.0844759 -0.271453 
-0.0132218 -0.0539144 -0.134178 
6.98915e-18 2.09334e-17 1 

-0.364135 0.110294 0.0778613 
0.184399 0.0316782 -0.343626 
-8.38047e-18 1.75731e-17 1 

-0.134991 0.0199001 0.0308151 
-0.01674 0.0297866 0.0022026 
1.66036e-18 4.34836e-18 1 

-0.245925 0.0158251 -0.15692 
0.0275865 0.0299454 0.222988 
-6.67934e-19 -3.05341e-18 1 

-0.512741 -0.12247 0.0020201 
-0.0801552 0.11871 0.120062 
-6.53872e-18 4.59754e-18 1 

-0.0514484 -0.224947 -0.148301 
0.192617 -0.0404774 -0.250648 
-8.40481e-18 -4.24618e-18 1 

-0.133147 0.00529053 0.0496925 
-0.0662438 -0.0650286 0.109437 
6.79588e-18 3.06564e-18 1 

-0.272863 0.0736974 0.0851058 
-0.21735 -0.081998 -0.49985 
-1.93781e-18 6.70734e-18 1 

-0.601572 0.0622131 -0.272878 
0.573952 0.289862 -1.71187 
8.61429e-18 5.06346e-18 1 

-0.0933768 -0.0201311 0.0302121 
-0.0115418 -0.0600372 0.141479 
-7.81874e-19 1.31941e-18 1 

-0.172461 0.112672 -0.232985 
0.0479947 0.0854005 0.398808 
2.63541e-18 4.50216e-18 1 

-0.121123 -0.0456263 0.098467 
0.013558 -0.0292922 -0.202377 
6.61469e-18 1.96489e-18 1 

-0.113646 0.00772551 -0.453536 
-0.0292504 -0.042913 -0.120313 
1.20832e-18 -2.35344e-19 1 

-0.0957637 -0.0428564 0.00827677 
-0.0460807 -0.0635506 0.0472034 
8.83037e-18 -2.22148e-18 1 

-0.573057 -0.166989 -2.21943 
0.387391 0.107099 -0.459477 
7.13022e-18 2.44769e-18 1 

-0.109425 0.0581442 -0.586088 
-0.0318514 -0.0167014 -0.173046 
7.0871e-18 7.22698e-19 1 

-0.869345 0.19354 1.37832 
-0.353804 0.244846 0.675529 
9.97542e-18 4.08981e-18 1 

-1.71477 -0.171538 1.67318 
-0.51785 0.555011 -0.815893 
9.56283e-18 -4.83811e-18 1 

-1.02408 0.0815234 3.41796 
-1.71161 0.525225 0.652925 
-1.57064e-17 4.27017e-18 1 

-0.0284327 -0.125506 2.09183 
0.0181621 0.0542896 -1.15422 
-4.6869e-18 -1.63023e-18 1 

-0.0689652 0.0517789 0.0564245 
-0.0400667 -0.0263872 0.286528 
-9.70759e-19 1.37524e-18 1 

-1.10634 0.344111 -0.676313 
-0.908886 0.515861 -0.556022 
8.81344e-18 2.11231e-17 1 

-0.00658116 -0.614743 -0.0868341 
0.53933 0.176786 -0.372108 
-7.35139e-18 1.01232e-17 1 

-0.168126 0.523224 -0.160993 
-0.347469 0.171152 0.213024 
-1.70406e-17 4.49801e-18 1 

-1.5309 10.6808 106.032 
-0.00597621 0.688111 -0.902891 
-4.24163e-18 -3.30194e-17 1 

-0.106329 0.110319 0.120482 
-0.0742179 -0.121639 -0.20315 
-1.96448e-18 1.62755e-18 1 

-0.382748 0.0787166 -0.347873 
0.15982 0.0448881 0.00683777 
-6.19102e-18 -1.85443e-17 1 

-0.127971 0.0138645 -2.60318 
0.0135584 -0.0262249 -0.142376 
-4.38248e-18 3.16212e-18 1 

-0.125321 0.0254652 0.209559 
-0.0757028 -0.036101 -0.164062 
-6.62823e-18 -3.84086e-18 1 

-0.263318 0.0625183 0.0653345 
0.0976567 -0.00607015 0.277311 
4.30979e-19 -5.81822e-18 1 

-0.421386 -0.123541 0.926989 
0.0455194 0.350886 6.41288 
-8.69493e-18 1.77162e-18 1 

-0.140694 -0.0387304 0.15365 
7.97279e-05 -0.019167 0.310725 
1.31177e-17 2.84326e-18 1 

-0.111903 0.0194874 -0.156508 
0.00379114 -0.00226114 -0.316384 
-3.67195e-18 1.26645e-17 1 

-0.156812 0.176655 -0.0973908 
0.00600485 -0.0201501 0.113693 
4.67699e-18 -7.02763e-18 1 

-0.146485 -0.00635238 0.118436 
0.0114571 -0.03235 -0.447722 
1.7685e-18 1.67025e-17 1 

-0.0787335 -0.700711 -0.730921 
0.681627 0.336598 0.180818 
1.28123e-17 1.82501e-18 1 

-1.71873 1.94519 2.78544 
0.408085 0.451802 0.181821 
-3.69613e-18 -1.11058e-18 1 

-0.101066 0.0393778 0.202893 
-0.0805484 -0.0356182 0.193852 
-7.61102e-18 -1.18473e-18 1 

-0.115763 -0.0301344 2.17369 
0.0027156 -0.0153451 0.340312 
-1.41351e-18 3.32691e-18 1 

-0.328778 -0.0236145 -2.14999 
0.0278057 0.111201 -2.90882 
-2.10352e-18 -7.47917e-19 1 

-0.147288 -0.00309986 -1.13017 
-0.00958094 -0.0189061 0.49009 
1.12653e-18 -3.21025e-18 1 

-0.12329 0.0490748 0.124843 
-0.0252993 -0.0645422 -0.0382474 
-1.19856e-17 1.24972e-19 1 

-0.153523 0.0185166 0.159956 
-0.0171576 -0.0492719 0.837625 
2.04708e-17 1.26826e-17 1 

-0.21569 0.0713314 0.0858351 
-0.0349405 -0.102622 -0.252023 
1.31414e-17 -1.11094e-17 1 

-1.01147 -0.620067 0.00151275 
0.202248 0.324859 -0.559888 
3.75188e-18 7.03478e-19 1 

-0.107238 0.0533087 -0.353105 
-0.13216 -0.0182413 -0.348986 
-4.24367e-18 3.24265e-18 1 

-0.144965 0.065573 0.104515 
0.0667098 -0.11344 -0.0743913 
6.48741e-18 2.32955e-18 1 

-0.262457 0.114513 -1.88548 
-0.0698289 -0.0212973 -2.71438 
4.33548e-19 -1.05308e-17 1 

-0.129212 0.0316602 5.18565 
0.052197 -0.0568582 0.0389074 
-1.63051e-19 9.82297e-18 1 

-0.139278 0.0175081 -2.99956 
0.0255297 -0.0263595 -1.53125 
4.56002e-18 -1.87031e-18 1 

-0.0833901 0.0221948 -0.00810412 
-0.0226337 -0.10657 0.0373183 
-4.80172e-18 -2.28326e-18 1 

-0.315483 0.0961817 -5.69612 
0.0273583 0.0644219 1.09914 
1.43835e-18 -1.08675e-17 1 

-0.265209 0.173076 0.254489 
-0.192979 0.194374 -0.384652 
-1.39279e-17 1.174e-17 1 

-0.13486 -0.00792629 -0.202164 
0.00186001 -0.00489043 0.147212 
-1.95268e-18 1.67373e-18 1 

-0.132188 0.0549351 -0.309722 
-0.0446983 -0.0389588 -0.0459591 
-9.40366e-19 -7.14678e-18 1 

-0.145826 0.0639125 -0.127917 
-0.00388059 -0.0425614 -0.0525107 
-1.29584e-17 -3.05653e-18 1 

-0.222982 0.0148709 0.272285 
0.208653 -0.0744811 -0.0794541 
-5.25331e-18 -7.35464e-18 1 

-0.120788 0.0601613 -0.0525634 
-0.0464693 0.0223031 0.51188 
-2.76523e-18 4.47874e-18 1 

-0.747027 0.242562 -0.807956 
-0.0692092 0.0945243 0.481338 
2.00177e-19 -6.63444e-18 1 

-0.251677 0.309194 -0.0490363 
-0.0756802 -0.0352935 0.275559 
1.1497e-17 -3.84628e-18 1 

-0.0945866 0.027597 0.00806364 
-0.0667226 0.000710907 -0.157263 
-1.87503e-17 1.3458e-17 1 

-2.32765 2.12539 -2.17763 
0.419824 0.372485 -0.107279 
1.0791e-17 -4.36778e-18 1 

-0.142781 -0.0160108 1.1181 
-0.0351084 -0.0565052 -2.44982 
3.81566e-18 -1.93911e-18 1 

-0.111764 -0.0261084 -0.0708075 
-0.0407327 -0.122235 -0.0247884 
1.14132e-17 -4.61888e-18 1 

-0.134695 0.0229667 0.136521 
-0.0666306 -0.0252374 -0.0858116 
-5.40114e-18 -2.69142e-19 1 

-0.300845 0.0407948 0.0931379 
0.111834 0.066419 -0.523627 
1.73401e-17 1.26306e-17 1 

-0.139052 -0.246423 0.0582632 
0.213906 0.0534921 0.0532759 
-7.05872e-19 1.76468e-18 1 

-0.122039 0.00832036 0.416056 
0.0198975 -0.0536247 -1.77371 
1.3559e-18 -1.1854e-18 1 

0.0981837 -0.542986 -0.23202 
0.619619 0.155596 0.0431394 
-3.93953e-18 -8.09688e-19 1 

-0.089409 -0.0407592 0.122598 
0.0550862 0.00497243 0.158582 
6.56394e-18 7.57197e-18 1 

-0.14348 -0.0128461 0.0153475 
0.0046127 -0.0215727 -1.2592 
5.57921e-18 9.74626e-18 1 

-0.511545 -0.193758 -0.0516526 
0.191486 0.139597 -0.318383 
-2.37774e-18 -4.544e-18 1 

-0.161564 -0.0246562 -0.696408 
-0.0851125 -0.0298679 -0.132675 
1.2232e-17 -5.26683e-18 1 

-0.188976 0.082185 -0.353187 
-0.00108589 0.171934 -0.774439 
9.17404e-18 -3.57044e-18 1 

-3.48201 3.1422 -2.86926 
-0.854329 1.34032 -1.06689 
0 7.84336e-18 1 

-0.121283 -0.0204574 -0.969063 
0.0494859 0.00913919 -1.78186 
6.47115e-19 -6.37004e-19 1 

-0.237104 -0.180268 0.0197429 
0.227589 0.0338089 0.0187437 
1.61383e-18 -8.98654e-18 1 

-0.0729109 -0.0717123 0.0296411 
0.0300169 -0.0490141 -0.0566366 
-4.52741e-18 -1.01328e-17 1 

-0.166247 -0.00989136 -0.0872683 
0.0189399 -0.0607231 -0.0143831 
-6.07459e-19 -1.10482e-17 1 

-0.104765 -0.0392463 -0.0667154 
-0.027794 -0.0487438 -0.0550958 
-4.23603e-18 9.45542e-19 1 

-0.113771 -0.0517577 0.108912 
0.00470688 -0.0321546 -0.138042 
1.76728e-17 1.09883e-18 1 

-0.0960372 -0.0459576 0.0639228 
0.0420965 -0.00398839 0.151915 
2.96129e-18 -2.85024e-17 1 

-0.0804754 -0.00966014 0.278641 
-0.0381661 -0.0330159 0.212669 
-1.21026e-18 -5.976e-18 1 

0.0524235 -0.937061 -1.03072 
0.40904 0.2824 0.798887 
1.27603e-18 -9.38099e-18 1 

-1.46044 -0.268565 -0.0347916 
-0.326198 0.484275 -1.09931 
-9.42269e-18 -2.38259e-17 1 

-0.115321 0.017863 -0.55591 
-0.0768183 -0.0931719 -0.464676 
1.55845e-17 1.06491e-17 1 

-0.103172 0.0202014 0.0862952 
-0.0484514 -0.0319373 -0.47515 
2.71144e-18 1.29724e-17 1 

-0.129421 0.0302819 -0.231341 
-0.0721093 -0.0201741 -0.179293 
1.03458e-17 -1.22268e-18 1 

-0.122798 -0.00488599 0.261242 
-0.00143536 0.00334357 1.03899 
2.40831e-18 -6.2658e-18 1 

-0.191585 0.184801 -0.0296878 
-0.0496672 0.0531683 0.297701 
9.60486e-18 -5.21153e-18 1 

-0.120868 -0.0559158 -0.363537 
0.0267775 -0.0617573 0.993412 
-1.01126e-17 2.22339e-18 1 

-0.110335 -0.0334828 -0.444134 
0.0410658 -0.017148 -0.333408 
4.40204e-19 5.0242e-18 1 

-0.0848578 -0.0134796 0.0231137 
-0.00649942 -0.0854275 0.148187 
-8.17832e-19 -5.03281e-18 1 

-0.469538 -0.347894 -0.68628 
0.518186 0.347626 -0.314765 
-2.19365e-18 8.7746e-18 1 

-0.261487 -0.0447739 -0.13634 
0.0898252 0.143384 0.161382 
-1.46951e-18 1.74257e-17 1 

-0.132688 -0.0109129 -2.06205 
0.00748319 0.00124455 0.93753 
-6.25453e-18 1.08509e-18 1 

-0.830195 1.25424 32.6275 
0.298204 1.20844 23.6111 
-1.25884e-17 7.14234e-19 1 

-1.23655 0.407024 -0.0911404 
0.271867 0.238339 -0.141659 
-6.68323e-18 -1.66037e-17 1 

-0.153684 -0.156955 -16.3204 
0.346476 0.0207293 4.39106 
4.67068e-18 -2.8365e-17 1 

-0.376647 -0.374548 -1.55927 
0.0200499 -0.0735412 -0.792276 
1.43475e-17 -1.08866e-17 1 

-0.626048 -0.379318 2.68847 
-0.147845 0.420629 0.16286 
-1.04849e-17 -1.32881e-17 1 

-0.258974 -0.453506 -2.1055 
-0.0300297 0.609527 -0.539017 
-1.13561e-18 7.15104e-18 1 

-0.246819 -0.273487 0.551089 
0.04849 -0.0540437 0.241868 
7.79194e-18 -8.07023e-18 1 

-1.58998 -0.294319 -1.12427 
-0.384794 0.558359 -0.0163927 
-1.26594e-17 6.50079e-18 1 

-0.143224 -0.0433221 0.276555 
0.0456449 0.104865 -0.151688 
3.51876e-18 5.18287e-18 1 

-0.140787 0.041321 0.105962 
0.012164 0.0101957 -0.0922443 
3.45815e-18 1.32465e-17 1 

-0.124981 -0.00253981 0.278407 
0.0179733 -0.0748524 -0.0213962 
4.13169e-18 1.08211e-18 1 

-0.184054 -0.0316415 0.0130666 
0.0128226 -6.15058e-05 0.256153 
1.46805e-17 -6.26612e-18 1 

-0.147712 -0.0179602 -0.122184 
-0.0301421 -0.0091014 0.088334 
-2.4958e-18 -2.94685e-18 1 

-0.0841753 -0.0232721 -0.0609744 
0.0222099 -0.0193135 -0.0199235 
-4.02695e-18 1.05827e-17 1 

-0.164972 0.121678 -0.102916 
-0.106214 0.071399 0.597018 
3.34057e-18 1.12488e-17 1 

-0.430035 -0.200767 1.71142 
-0.0599646 0.0870764 0.285754 
-3.65504e-18 9.34484e-18 1 

-0.258705 0.238033 0.121689 
-0.107271 0.0361983 0.367652 
-6.25698e-19 -1.06369e-17 1 

-0.147583 -0.0903332 0.259111 
-0.00910311 -0.0768497 -0.10047 
-1.02948e-17 -5.25537e-18 1 

0.190482 -0.729003 -0.385306 
0.616529 0.204849 -0.0282863 
-3.99823e-19 1.51933e-17 1 

-0.120982 -0.0287112 -0.00258479 
-0.0074698 -0.0480445 -0.144413 
-4.21202e-18 3.03905e-18 1 

-0.250302 0.0266831 -0.224142 
-0.0339136 0.058652 -0.106561 
1.84369e-18 -9.80328e-19 1 

-0.218971 -0.0634304 -0.138876 
0.0857542 -0.0599636 -0.201532 
6.95644e-18 3.68282e-18 1 

-0.185743 0.0461115 0.29633 
-0.0489541 -0.0127355 0.0216963 
2.84751e-18 2.08992e-18 1 

-0.461828 0.0268416 0.507377 
-0.221885 0.179358 -0.329811 
-7.30858e-18 1.32956e-17 1 

-0.435898 -0.265761 0.110725 
0.0516335 0.212631 0.0583312 
2.98758e-18 7.66378e-18 1 

-0.11133 0.00639921 1.48538 
0.00860617 -0.0558515 0.281444 
3.89321e-18 6.76684e-19 1 

-0.220987 -0.0639803 0.104989 
0.143779 0.0414635 -0.190046 
8.61024e-18 8.95269e-18 1 

-0.162152 -0.0106355 -0.0829374 
-0.0540623 -0.0435483 0.248213 
1.92576e-17 -1.46466e-18 1 

-0.200024 -0.00715519 0.367196 
-0.0655824 0.0209083 -0.12583 
-2.9241e-18 7.13195e-18 1 

-0.223332 -0.877883 0.65811 
0.570069 0.354803 0.273285 
3.4363e-18 1.11179e-17 1 

-0.137114 0.00364526 -0.682184 
-0.0535233 -0.028091 0.235781 
7.8452e-18 -5.0925e-18 1 

-1.37172 0.214126 0.458083 
0.0775804 0.527461 0.515425 
-1.20752e-17 1.43036e-17 1 

-0.0887019 -0.835231 0.426546 
0.578885 0.300886 0.48157 
1.52634e-17 2.06403e-17 1 

-0.155191 -0.0539554 -0.00676534 
0.0788936 -0.0548885 -0.0632318 
-2.28197e-18 -1.99672e-18 1 

-0.762281 -0.650989 -0.912495 
0.250717 0.297198 0.297049 
-4.55896e-18 9.94266e-18 1 

-0.227876 0.013928 2.09493 
0.0197062 0.14725 2.68497 
-9.53794e-18 -7.92667e-18 1 

-0.693694 -0.124347 0.545471 
-0.315329 0.234215 0.238321 
9.84039e-18 -1.76392e-17 1 

-0.163384 -0.00921458 0.0328565 
0.00238439 0.0209408 -0.389675 
-4.39173e-18 1.32292e-17 1 

-0.118722 0.168651 -0.0936115 
-0.13668 -0.0469777 -0.111459 
2.12763e-18 5.59954e-18 1 

-0.0985989 0.0742009 0.0178128 
-0.10051 -0.0423805 -0.0444663 
-1.55364e-18 3.36622e-18 1 

-0.114836 -0.0425154 -0.110783 
-0.0544377 -0.0590453 0.310768 
-5.76381e-18 -1.33537e-17 1 

-0.196612 -0.292453 -0.301536 
0.377657 0.110652 0.307946 
-2.52722e-18 2.77285e-17 1 

-0.391205 -0.249494 0.540316 
0.0819988 0.241509 -0.376489 
2.31905e-18 3.14448e-19 1 

-0.128509 0.0108554 -0.56055 
-0.0380102 -0.00917064 -0.213274 
-5.84942e-19 1.72404e-18 1 

-0.709811 0.304086 1.65174 
-1.43311 0.921719 0.639888 
-2.60799e-18 5.60718e-18 1 

-0.242868 -0.0270252 -0.755712 
-0.0900636 0.187483 -0.564603 
8.607e-18 2.40581e-17 1 

-0.251354 0.0929831 -0.172688 
-0.114298 -0.0387081 0.137788 
6.99939e-18 1.08433e-17 1 

-0.0830496 -0.0187446 -0.13616 
-0.0715442 -0.0195509 0.0196768 
1.04555e-17 2.54529e-18 1 

-0.0997 -0.0192394 -0.384076 
-0.00949129 -0.0148302 -0.479784 
3.75249e-18 -2.83972e-18 1 

-0.118783 0.0343021 0.421773 
-0.00654154 0.0246169 0.0294274 
1.01118e-17 -4.92213e-18 1 

-0.146991 -0.0018299 -0.03735 
0.102049 -0.0522784 -0.721279 
4.74894e-18 -1.9046e-18 1 

0.0289772 -0.445445 -0.396211 
0.390934 0.138862 -0.445181 
1.08584e-17 2.0038e-18 1 

-0.0476945 0.0566413 -0.0655036 
-0.0591425 -0.023317 0.127203 
2.59788e-18 -1.20831e-19 1 

-0.219075 -0.0451817 -0.604358 
0.0902975 0.0251117 -0.69233 
1.36351e-17 1.59621e-18 1 

-0.0796576 0.142142 0.00798054 
0.0230555 -0.110757 -0.518324 
-1.37141e-18 -1.17171e-17 1 

-0.0877334 0.0319965 1.2389 
-0.0453136 0.0010858 0.284409 
-8.27223e-18 -1.88311e-18 1 

-0.344367 -0.345904 1.27036 
0.160783 0.2812 -1.17562 
1.2319e-18 -2.70263e-19 1 

-0.151062 -0.0340455 -0.331104 
0.0345608 -0.0271195 0.396611 
-8.43861e-18 -1.04238e-17 1 

-0.139509 -0.00372497 0.0724914 
0.00233527 -0.095329 -0.0939184 
5.91388e-19 -5.86423e-17 1 

-0.151909 -0.155169 2.61219 
0.0591897 0.0464345 2.34099 
-2.02957e-18 7.73169e-19 1 

-0.215188 -0.180521 4.2911 
0.180774 0.114646 1.03001 
6.76337e-19 -7.96476e-18 1 

-0.0989133 -0.0293218 -0.260282 
-0.0200877 0.00688582 -0.0346891 
-1.21394e-17 -3.36478e-17 1 

-0.166714 1.57184 39.9565 
-0.000573186 -0.0507594 -7.44337 
1.68249e-18 3.23968e-18 1 

-0.224911 -0.245026 0.51641 