# vtk DataFile Version 3.0
Output file generated by Yade's KinematicLocalisationAnalyser
ASCII
DATASET UNSTRUCTURED_GRID

POINTS 13483 float
618.355 29.1466 -0.514874
755.677 74.0325 -0.443295
120.091 6.09802 -0.468372
796.527 5.59062 0.559177
504.12 7.74161 -0.25904
316.192 35.3119 -0.474169
156.582 6.94263 0.447788
577.798 9.9746 0.168813
501.253 23.2182 0.137432
731.25 16.7307 -0.580818
210.963 8.99139 -0.103796
257.869 6.33739 -0.256906
665.603 31.3569 -0.301489
644.218 15.5755 0.106275
137.243 17.3755 0.418717
221.901 34.6307 0.398237
218.4 12.996 -0.293156
290.172 9.68255 0.390091
342.798 33.027 -0.524255
529.574 8.6044 0.337352
413.632 36.8563 -0.116642
600.386 44.6088 0.302858
791.77 56.868 0.483256
705.533 53.3718 -0.427097
462.612 16.0918 0.316875
241.698 44.4347 0.141314
496.068 27.812 -0.487814
594.67 20.2406 -0.261785
44.57 15.6688 -0.399068
724.757 35.8709 -0.3414
486.96 4.96681 0.318731
16.0246 23.5818 -0.33039
771.556 67.4928 0.278005
500.031 2.59684 0.483755
77.7797 44.8653 0.105528
526.912 30.799 0.409567
536.164 16.7457 -0.390677
345.399 22.8101 0.192474
539.608 25.4943 -0.319681
352.68 33.4589 -0.467669
241.738 14.6554 0.324387
437.744 36.1811 0.0716157
688.977 6.87727 -0.0928223
193.027 6.2644 0.340691
55.174 7.00901 -0.122128
68.4301 8.96745 -0.272145
705.513 9.36428 -0.549735
22.8256 11.9562 -0.292797
620.6 47.0159 0.365098
692.32 23.9526 0.362132
173.159 32.626 -0.310172
750.766 62.6652 -0.150842
34.4516 28.3681 -0.118103
540.051 2.97948 0.326998
142.501 7.1428 -0.496189
603.736 33.7927 0.443752
509.495 27.6109 -0.165925
175.502 0.933283 -0.270414
31.9785 2.34373 0.341429
350.577 17.9399 0.286038
631.702 49.2795 0.142667
466.248 33.6736 0.171433
402.571 1.02979 0.199219
715.456 8.49768 -0.515964
26.606 43.6847 -0.235062
257.409 30.8148 -0.327283
731.643 10.0461 0.226704
674.476 52.5132 -0.348536
421.147 8.69245 -0.485527
578.82 3.49431 -0.356005
756.974 39.541 0.448135
131.016 7.68348 0.283597
503.537 26.5028 -0.137115
482.658 14.6329 -0.179718
296.318 16.7856 -0.338761
20.0911 13.894 -0.274374
778.515 56.7384 0.365192
335.072 39.2651 -0.28529
689.791 19.2806 0.469923
705.385 13.2582 0.251799
785.387 13.7813 -0.300058
469.578 34.4491 0.187467
92.4291 38.9133 -0.265922
692.754 43.9179 -0.210102
662.935 40.9453 -0.105298
798.957 61.4533 -0.127237
777.998 0.73129 -0.572676
293.073 28.9237 0.469898
634.578 6.32886 -0.115516
23.9254 5.52033 -0.602693
133.332 38.6767 -0.169857
518.583 14.6564 0.234227
772.844 50.9462 -0.433067
196.497 29.1365 0.242279
44.1233 34.5365 0.299096
498.9 1.36088 0.138819
237.114 8.91556 -0.368799
758.216 48.8731 -0.291276
779.424 47.7294 -0.238897
364.593 20.8737 -0.261688
164.798 26.9964 -0.477056
558.585 38.4883 0.430229
383.741 15.6668 -0.458961
417.803 30.0471 0.147478
381.871 4.51792 0.410472
556.596 10.8974 -0.104887
798.679 15.7168 0.254203
80.0288 39.8441 0.394331
338.451 4.95909 -0.212274
571.202 9.3084 -0.368249
364.016 43.7746 0.462271
24.9125 25.1027 -0.45667
29.8162 5.892 -0.296004
579.555 32.8545 -0.40312
512.364 25.151 0.149615
25.9224 37.4617 0.432051
93.4233 31.2817 -0.22995
328.304 16.1007 -0.25234
613.564 18.8891 -0.1686
481.571 38.0793 0.320426
746.864 7.74614 -0.359467
739.152 6.32398 -0.224021
391.801 37.4053 0.102389
650.585 27.8767 -0.110097
240.377 16.8103 0.454181
333.823 3.8588 0.461052
103.918 31.8076 0.415018
117.076 24.3538 -0.268454
553.801 38.6118 0.074641
309.615 18.9819 0.483797
723.102 42.2058 0.118112
678.096 52.2668 0.0864079
487.876 20.806 -0.367621
784.811 30.4903 0.248087
434.917 23.782 0.241424
280.109 24.5783 0.291052
693.277 31.4326 0.292517
282.146 28.7642 0.377019
589.165 12.363 -0.197157
336.21 35.9821 0.205026
513.124 11.3725 0.494227
371.775 31.5371 0.0949193
436.918 16.8329 -0.095717
322.347 42.4214 -0.430112
192.775 30.2146 0.138081
762.089 72.1989 0.149693
796.682 14.973 0.420369
6.06553 12.7655 -0.464295
440.76 22.5996 -0.402662
38.1031 22.7531 0.0699937
382.141 31.369 -0.467312
401.389 24.9745 -0.282972
75.5164 12.0506 0.498777
51.8089 33.3599 -0.455695
228.48 13.4983 0.452296
633.617 41.6029 -0.378678
591.205 21.1818 -0.456051
75.4245 21.0066 0.509989
708.995 56.6862 0.39766
759.755 4.94423 -0.660235
680.214 41.8846 -0.515172
710.251 1.81714 0.647126
562.988 26.8948 -0.464249
601.719 45.4673 -0.463185
522.294 18.0862 -0.407624
794.026 3.77965 -0.45557
226.486 24.8139 0.112562
129.119 35.4628 0.184895
250.747 6.67893 -0.39669
95.0688 4.4535 0.278693
64.749 10.1873 0.201807
280.014 36.0937 0.320358
16.2533 25.5112 -0.355517
569.135 18.6922 -0.488048
620.641 41.4084 0.233944
472.087 20.967 -0.40208
784.834 69.1764 0.385003
414.237 8.67569 -0.112618
444.379 36.3101 -0.362585
548.699 3.45816 -0.18414
21.9261 24.6478 0.384043
591.959 4.5776 0.453534
558.623 4.33419 -0.312104
209.18 11.4984 0.492172
433.169 16.3581 -0.230637
316.604 6.31181 0.364506
395.332 18.9957 -0.331848
744.491 48.4109 0.133055
195.243 25.9789 0.415727
772.982 7.73633 -0.318256
744.71 44.296 0.478394
390.524 10.2727 -0.155851
730.238 0.866861 -0.485275
621.623 26.4723 0.431328
749.808 22.3635 -0.620749
439.536 43.1343 -0.274665
507.263 12.6504 0.385346
474.745 44.3418 -0.222464
454.659 8.77408 -0.134515
683.881 41.3654 0.280621
680.623 37.4464 0.372765
195.39 39.3916 -0.332649
783.322 13.606 -0.226179
603.352 45.5429 0.244898
11.2082 17.6774 0.178299
415.659 25.5664 0.382499
190.245 23.5362 0.406556
94.1027 39.7811 0.202892
787.184 44.1457 0.423686
677.328 48.2671 0.23842
324.836 25.7444 -0.351295
545.383 10.2148 0.315074
82.9176 45.1403 0.1675
251.671 26.2019 -0.49237
572.17 24.0536 0.369851
497.663 19.0217 0.462768
267.33 0.885929 -0.345053
568.052 40.2595 -0.389498
547.048 40.4949 -0.480694
493.024 33.4244 0.405921
511.108 1.69113 -0.659568
717.924 21.6242 -0.526975
182.332 12.3847 -0.206606
512.231 37.4398 0.465553
580.48 40.9009 0.143574
73.7492 0.963165 0.269529
256.075 4.7832 0.177693
794.786 18.4837 0.315973
785.177 15.8092 -0.537784
799.341 21.4833 -0.492496
309.136 8.63269 -0.237368
753.909 29.5479 0.424928
415.339 41.9082 -0.378962
458.863 0.80608 -0.40568
669.355 38.3922 0.443994
26.6997 31.094 0.326747
337.095 41.9584 0.548799
256.925 2.91251 0.344561
775.772 64.3678 -0.176394
725.69 57.2208 0.238269
292.694 11.0537 0.24105
686.291 30.235 0.122476
573.093 2.60277 0.313658
556.394 6.4888 0.438108
98.0018 18.5941 -0.587146
309.007 1.0416 -0.227829
349.858 2.26213 -0.364164
13.6964 7.51001 -0.465786
4.40786 32.2456 0.285112
164.378 19.0246 -0.375219
68.8358 41.9782 -0.21598
67.3735 29.0543 -0.331982
432.895 14.5065 -0.453699
374.715 35.2939 -0.479366
748.005 64.6881 -0.138793
19.4389 4.03329 0.268759
71.4691 6.98125 0.129142
642.395 40.0582 -0.179506
300.285 0.923977 0.369922
372.618 16.1381 -0.100959
239.741 4.67535 -0.375362
671.457 23.4339 0.175879
462.072 8.37876 0.418868
757.561 28.8576 -0.379725
649.511 31.1985 0.302365
688.324 17.7851 0.19955
429.569 27.5078 0.555708
103.794 45.3344 0.309234
557.33 42.254 0.076132
750.235 15.8881 0.265507
242.124 30.6594 -0.279814
31.9198 17.4289 -0.201199
343.179 13.7808 0.5169
109.247 40.9222 -0.460065
272.912 42.2935 -0.215731
435.238 1.61992 -0.324431
775.096 53.5381 0.388224
703.661 0.775068 -0.722111
338.964 3.42069 0.570581
306.236 26.699 0.147867
473.548 41.2231 0.219955
82.6405 8.28073 0.46761
201.397 45.6597 0.377643
758.567 56.9144 -0.377707
507.375 39.8546 -0.0960262
203.877 41.747 -0.299344
163.843 42.5822 0.387111
798.551 55.6624 -0.521784
797.263 16.1018 -0.694483
625.05 3.5296 -0.541952
193.747 25 -0.0936507
564.915 28.2204 0.116965
566.8 27.6831 -0.279275
418.8 5.69969 -0.137827
493.966 0.928138 -0.296173
746.207 65.3743 -0.466509
86.1575 31.5232 -0.25471
677.117 19.7147 -0.523484
279.785 15.5442 -0.367721
9.24331 2.37629 0.335586
127.626 37.3518 0.192548
67.8912 23.129 0.52655
716.577 46.6314 0.31957
775.959 78.9774 -0.106296
189.004 28.7915 0.191861
792.101 13.9388 0.533582
45.4439 36.6339 -0.264504
92.2547 29.6263 -0.183705
653.773 14.3724 0.509594
423.273 18.6164 -0.518953
532.839 16.8316 0.120754
242.649 28.6731 -0.193034
641.902 4.25013 0.513273
800.715 15.8075 0.440339
29.6242 32.0398 -0.27746
275.647 7.72082 0.195927
226.271 15.272 0.244832
1.0722 36.8389 0.148004
229.527 14.719 0.392195
215.843 11.1166 0.10377
218.361 26.6793 -0.282041
135.494 28.081 -0.148239
563.169 15.0473 -0.365184
170.244 14.2485 -0.356525
770.018 66.3916 -0.244297
177.523 3.77536 0.517533
47.743 38.2151 0.421952
750.555 55.6083 -0.456878
287.086 32.0207 -0.400153
699.954 23.1749 0.488435
784.453 52.5808 -0.475301
307.212 9.26934 0.104909
745.249 36.0847 0.39653
335.896 2.50015 -0.424289
426.351 24.5061 -0.378343
693.575 15.4504 -0.510191
107.06 11.857 -0.475537
495.669 3.83077 -0.542703
760.441 29.184 -0.198611
89.5222 7.70211 -0.23102
287.638 14.7571 0.200298
433.685 11.7793 -0.214428
794.642 2.40174 0.557004
407.575 2.00067 -0.525932
180.405 39.1123 -0.324803
752.54 13.2406 -0.293392
130.865 36.6348 0.188809
268.402 31.538 -0.410448
410.28 21.8108 0.214165
591.623 14.2879 -0.343708
396.384 9.82569 -0.499534
468.164 27.641 -0.373188
757.204 73.6583 -0.232482
47.8164 11.0209 -0.115455
305.833 38.6681 -0.267623
388.619 27.3139 0.366529
419.84 21.0523 0.262112
535.434 44.3794 0.356307
766.704 50.1924 -0.237907
685.98 36.2175 -0.427318
230.507 34.5126 -0.392984
13.553 32.9104 0.178056
679.125 38.6871 -0.149274
522.947 41.2902 0.476804
234.074 39.6751 -0.122137
700.391 40.538 0.128084
153.806 9.33134 0.237635
375.289 21.3205 0.320635
475.347 42.2611 0.110883
424.298 19.8962 0.226931
751.547 75.8649 -0.291036
436.707 3.86902 0.525598
50.1294 25.3805 -0.318638
482.175 31.8454 0.332379
446.138 42.5144 0.362217
772.787 60.3752 -0.239415
742.835 34.7338 0.277821
556.95 18.6204 -0.207364
762.621 64.4318 0.440647
299.843 2.21354 -0.461998
387.377 29.8805 0.516289
29.1659 39.1835 -0.303469
747.267 37.0529 -0.142227
629.562 19.7994 -0.455689
475.157 0.762785 -0.484673
128.453 4.55565 0.271235
437.681 40.5839 -0.116569
11.6707 0.888834 -0.321833
792.234 6.97546 -0.171531
379.049 39.3608 -0.408045
[...]
POINT_DATA 13483
TENSORS Strain_matrix float
-0.165822 -0.0384359 0.795883 
0.0860274 -0.0332195 1.3918 
7.04343e-18 2.33555e-18 1 

-0.377311 0.02134 -64.4872 
0.0941735 0.126705 18.5788 
2.85125e-18 1.3045e-18 1 

-0.123818 0.00100281 0.339665 
0.0194651 -0.00831213 2.13059 
-4.68043e-20 -3.18269e-18 1 

-1.03516 0.0369565 1.00566 
0.0512045 0.0230047 0.280724 
4.10897e-18 8.57216e-18 1 

-0.347659 -0.164245 -0.0213266 
0.0494282 0.0407989 -0.362402 
1.49466e-17 7.57133e-18 1 

-0.100794 -0.0151424 -0.778503 
0.0204579 -0.0136878 -0.218599 
-3.80691e-18 -2.94357e-18 1 

-0.115674 -0.0155855 -0.0376779 
-0.00613578 -0.0615441 -0.170949 
-6.91169e-20 -4.22477e-18 1 

-0.113007 0.013367 -0.0792431 
0.0772104 -0.0624106 0.024701 
-2.31481e-18 -1.41667e-17 1 

-0.10276 -0.0767274 -0.763848 
0.140964 0.0418969 -0.0625858 
3.01287e-18 -4.01716e-18 1 

-0.543231 -0.0351494 -0.676516 
0.200241 0.116079 0.830158 
-1.2458e-17 -1.82313e-17 1 

-0.0769294 0.0183021 -0.207908 
0.011042 -0.0642378 0.119376 
-4.65513e-19 -1.16909e-17 1 

-0.107948 -0.0431715 0.193206 
-0.0787504 -0.0914405 0.0657211 
-7.92934e-18 1.00706e-17 1 

-0.308671 0.249553 -0.487974 
-0.17379 0.153261 -0.121697 
-2.87825e-19 1.4871e-17 1 

-0.170743 -0.124306 -0.00801005 
0.116911 0.0319866 0.117893 
2.03553e-18 8.72369e-19 1 

-0.163258 0.00655638 -0.399918 
-0.0203935 -0.0295975 -0.192824 
-9.83909e-19 1.1069e-18 1 

-0.116388 -0.0677964 0.478304 
-0.0387367 -0.00738527 0.282729 
-1.37129e-17 -4.1753e-18 1 

-0.0851641 -0.0132403 0.0888086 
-0.00892588 -0.100926 -0.0696723 
-8.40447e-18 -8.25992e-19 1 

-0.17268 -0.0205477 -0.00641989 
0.0217442 -0.0680613 -0.0374202 
5.09046e-18 -4.89468e-19 1 

-0.165499 0.0283354 -0.112785 
-0.00711249 -0.0222732 4.36403 
2.44329e-18 -1.10342e-18 1 

-0.127591 0.0370223 0.262947 
-0.0951829 -0.0449984 0.477168 
7.49043e-18 3.60117e-20 1 

-0.140532 -0.0311584 -0.166059 
0.025126 0.0177228 -0.356189 
-1.66954e-18 -8.07974e-18 1 

-0.32624 0.195817 0.325357 
-0.0666307 0.120777 0.0343617 
-1.55968e-17 -9.86633e-20 1 

-1.27877 -0.0876574 29.7068 
-0.274622 0.511594 -0.940757 
-2.25058e-18 -1.19483e-18 1 

-0.144669 0.0268841 -0.105684 
0.132736 -0.0146922 3.57358 
-6.03117e-18 -2.56488e-18 1 

-0.0928128 -0.0120654 -0.21907 
0.0635918 -0.0401943 0.184899 
-1.5391e-18 -7.10353e-19 1 

-0.211282 0.0616531 0.0420389 
-0.0479919 0.0635943 -0.0643656 
7.01036e-19 7.48735e-18 1 

-0.131013 -0.0402718 2.71149 
0.0156679 0.00545308 2.12893 
4.35277e-18 -5.55891e-18 1 

-0.145126 -0.132436 -0.26696 
-0.000568086 0.0166112 0.560851 
1.10312e-17 1.49869e-17 1 

-0.116394 0.0394226 -0.0480367 
0.0216848 -0.0590503 -0.268525 
1.60644e-18 3.0478e-19 1 

-0.796545 0.828294 1.18588 
-0.30049 0.516517 -0.200213 
-5.99023e-18 -4.3113e-18 1 

-0.0994787 -0.00582301 -0.264698 
0.0429478 -0.142998 0.36534 
-2.10641e-17 -1.94792e-17 1 

-0.179296 0.069606 -0.319953 
-0.128064 0.0265248 0.394095 
-1.20331e-17 -2.38247e-18 1 

-0.0525161 -0.216337 -2.20753 
-0.181841 0.145933 1.42963 
4.15985e-18 1.72132e-18 1 

-0.171032 0.139525 -0.926683 
-0.0461172 0.101323 -0.339827 
-3.52865e-18 1.1154e-17 1 

-0.0725781 -0.0376025 -0.147782 
-0.00533197 -0.105547 -0.330074 
3.07729e-19 1.43607e-18 1 

-0.170286 0.0341529 -0.246189 
-0.0672516 0.0264819 0.0655983 
6.60709e-18 2.6756e-18 1 

-0.0954224 0.00558326 -0.167895 
-0.00161654 -0.022642 -0.0611474 
-5.8546e-18 4.91695e-18 1 

-0.163245 0.027459 0.266797 
-0.0961077 0.0578813 0.0835438 
1.21058e-17 -9.14975e-18 1 

-0.0876905 -0.036599 -0.131598 
0.0974519 -0.0393453 0.0674316 
3.83466e-18 4.2921e-18 1 

-0.118267 -0.0021322 -0.478969 
-0.0149263 -0.0233906 -1.22567 
7.6524e-20 1.1976e-17 1 

-0.0994041 0.00318865 0.0266649 
0.0213199 -0.0927641 -0.231634 
2.86527e-18 9.65014e-18 1 

-0.047104 -0.048822 0.235072 
-0.0827616 -0.0459799 -0.193149 
-6.33815e-18 3.28271e-18 1 

-0.384081 0.124804 0.160376 
-0.24903 0.0107835 0.036121 
-8.01821e-18 8.90912e-18 1 

-0.121888 0.00496374 0.360907 
-0.0419448 -0.062109 0.948202 
3.31613e-19 7.38867e-18 1 

-0.0918196 0.0265239 -0.0643321 
-0.0380688 -0.0774553 0.139314 
-1.4549e-18 -4.062e-18 1 

-0.0837466 -0.00736915 0.00629011 
-0.0131648 -0.0555776 -0.0404189 
1.11513e-17 3.11893e-18 1 

-0.237074 -0.0938782 2.53641 
0.143794 -0.0504974 -0.765898 
2.90386e-18 4.67067e-18 1 

-0.0885709 -0.0305829 -0.0634333 
0.028678 -0.0670923 0.0352432 
-5.61779e-18 -7.91316e-18 1 

-0.1681 -0.0941994 -0.293685 
0.185024 0.0706657 0.126341 
-1.92206e-17 -2.09001e-17 1 

-0.248374 0.52523 1.01789 
-0.114057 0.119197 -1.52573 
1.07564e-17 2.17851e-18 1 

-0.1133 -0.0653894 0.256097 
0.0179281 -0.00410029 -0.093294 
-4.36067e-18 -4.83855e-18 1 

-0.163298 -0.176948 0.271319 
0.213855 -0.00741111 0.534272 
-3.52894e-18 -8.50837e-18 1 

-0.110027 -0.000461992 -0.0717794 
0.000812052 -0.0154784 0.0968742 
2.03128e-17 5.7776e-18 1 

-0.126493 0.0463399 0.0996357 
-0.0215149 -0.0461478 0.00540326 
-1.62642e-18 1.12334e-17 1 

-0.0938487 0.0344948 0.237208 
-0.00560015 -0.116909 0.731644 
-5.41257e-18 7.88688e-18 1 

-0.128548 -0.0228432 -1.76361 
0.0293495 0.00457643 0.638605 
2.33871e-19 -2.95262e-18 1 

-0.167766 -0.0284992 -0.0677312 
0.0616603 -0.0170564 0.116835 
-8.98328e-18 -2.15168e-17 1 

-0.0998139 0.00100497 -0.189449 
-0.00378323 -0.0839732 -0.0649516 
-1.25995e-18 -1.16369e-18 1 

-0.0567403 0.0147734 0.250343 
-0.0694251 -0.116573 0.529541 
-4.01777e-18 -9.0287e-20 1 

-0.10106 -0.0204288 -0.108869 
-0.06672 -0.0687287 -0.0259479 
1.45371e-17 -1.21143e-17 1 

-0.165377 -2.05129 -1.3807 
0.126667 0.0828341 0.478398 
-1.28273e-18 -1.25655e-18 1 

-0.0867265 -0.118417 0.142149 
0.0648106 0.00524406 0.689977 
-9.21194e-19 8.78013e-19 1 

-0.105871 -0.0828247 -0.281923 
-0.0103112 -0.0510527 -0.133209 
4.15273e-18 1.37696e-17 1 

-0.530052 0.0132547 1.79214 
0.0882268 0.244725 -0.426204 
-1.4223e-19 -1.53608e-18 1 

-0.193105 0.0680019 -0.241709 
-0.0762593 0.0638963 -0.0346442 
-3.92944e-18 -1.79466e-17 1 

-0.21981 0.0399127 -0.203562 
-0.0246364 0.0145994 0.28185 
-5.9624e-18 4.60214e-18 1 

-0.500003 -0.24827 0.00215802 
-0.0978506 0.0169912 -0.454867 
9.2263e-18 9.02397e-18 1 

-0.117251 -2.18332 -12.0038 
0.346554 0.550556 1.22131 
-8.72738e-18 3.17943e-17 1 

-0.131061 0.00926269 0.197368 
-0.0665503 -0.0666316 0.351241 
1.43571e-19 4.6481e-18 1 

-0.144178 -0.031399 0.0888321 
-0.0167432 -0.0928824 0.0671136 
-1.24275e-18 3.55072e-19 1 

-0.211193 -0.104275 0.0688258 
0.143844 -0.0606124 -0.595236 
-2.03785e-17 6.85376e-19 1 

-0.0716273 -0.00388154 0.0293415 
-0.00586094 -0.0713849 0.0950966 
-5.85609e-18 -3.18371e-18 1 

-0.10358 -0.105761 -0.494528 
0.00914643 -0.00617415 0.272629 
1.41398e-17 -2.50015e-18 1 

-0.0893806 -0.0345796 0.43829 
0.00508527 -0.0881534 -0.502627 
-5.44439e-18 -7.04258e-18 1 

-0.10541 0.00347616 -0.551545 
-0.0183027 -0.0447154 -0.108273 
5.4291e-18 6.71143e-18 1 

-0.111028 -0.064406 -0.00157656 
0.0214582 -0.0697984 -0.0550007 
-2.90846e-18 3.5254e-18 1 

-0.336202 -0.53698 19.1638 
-0.014789 0.296514 2.14849 
-6.16068e-18 6.77852e-18 1 

-0.124402 0.0124664 -0.619615 
-0.0232187 -0.0298301 0.230985 
1.00291e-17 -6.76931e-18 1 

-0.560004 0.0947677 0.0228227 
0.152867 -0.0206676 -1.80462 
9.7895e-18 -1.72591e-17 1 

-0.0925888 -0.0130485 0.0343503 
0.212883 -0.0441705 0.403582 
-1.02731e-17 3.07075e-19 1 

-0.98791 0.135627 0.212173 
0.0781991 0.192093 -0.195038 
-4.72714e-18 -6.72522e-18 1 

-0.104113 -0.15683 0.258146 
0.0583365 -0.033535 0.328068 
-9.32195e-18 -1.1722e-17 1 

-0.0427551 0.0239964 -0.112782 
-0.0292465 -0.00581632 -0.315428 
1.5877e-18 2.7592e-18 1 

-2.04024 -2.8736 1.25298 
0.933325 1.55042 0.192039 
-2.71699e-18 -6.06353e-18 1 

-0.146444 0.00411575 0.287906 
0.01638 -0.00788839 0.276503 
7.59078e-19 -1.60118e-18 1 

-0.620448 -0.0682015 -0.940743 
-0.239319 0.236585 0.255514 
8.02739e-18 -3.19841e-18 1 

-0.852037 3.06234 5.28773 
-0.0536117 0.553518 0.802732 
4.21228e-18 1.66028e-16 1 

-0.125957 0.0425649 0.145114 
0.0334351 -0.101803 -0.182686 
3.19082e-18 1.86962e-18 1 

-0.165788 0.0909977 -0.181407 
-0.00504323 -0.0579292 -0.0448523 
-6.02929e-18 8.09194e-18 1 

-0.121083 0.00239724 -1.71012 
0.00418768 -0.0460974 -4.05396 
-2.32533e-18 1.01684e-17 1 

-0.104844 -0.0600944 -0.0493876 
-0.0320524 -0.0750375 0.155601 
-6.47512e-18 7.0176e-18 1 

-0.136641 -0.020596 -0.00177345 
0.0632268 -0.0617243 0.189098 
1.43313e-17 1.81408e-18 1 

0.150216 -5.88409 -15.6023 
-0.0929588 1.60231 9.20858 
-5.66081e-18 2.63616e-18 1 

-0.177077 -0.0222079 0.0464658 
-0.0349386 -0.011705 0.0512325 
1.82052e-17 -1.65502e-18 1 

-0.0974692 0.0362291 0.294226 
0.0190305 -0.00444146 0.208763 
1.44952e-19 -5.46468e-18 1 

-0.163356 0.0220029 -0.175695 
0.00392334 0.0126497 -0.0098682 
1.88355e-17 -2.97015e-17 1 

-0.113627 0.0259994 0.0789461 
-0.0402016 -0.0574541 -0.138972 
2.53073e-19 -7.96125e-19 1 

-0.238463 0.0188507 -0.524778 
0.20442 0.0485257 -0.0372542 
-1.22914e-17 1.15728e-17 1 

0.0762622 -1.87027 2.92327 
0.539422 1.09491 -1.34462 
-8.94645e-18 7.90616e-18 1 

-0.0640107 -0.0122725 -0.0646746 
-0.0431056 -0.0326973 -0.0635076 
-3.04705e-18 2.06311e-18 1 

-0.102703 -0.0022735 -0.621608 
0.0132696 -0.0305769 -0.433977 
3.74548e-18 1.12216e-18 1 

-0.145229 -0.0629507 -1.0711 
0.037005 -0.00826126 -0.53931 
-4.20881e-18 7.49942e-19 1 

-0.121611 -0.00120844 -1.32183 
-0.017811 -0.032051 0.27129 
-3.44455e-18 -9.92158e-18 1 

-0.176891 -0.117961 -0.137467 
0.0596487 -0.0113965 -0.035138 
5.34423e-19 9.36514e-18 1 

-0.111068 -0.00747783 0.141309 
0.0130495 -0.0881745 0.404999 
-5.6082e-18 3.69147e-18 1 

-0.133196 0.0825951 0.110105 
-0.0534663 -0.0451164 -0.0576788 
-1.69943e-18 -9.6737e-18 1 

-1.08732 -0.389991 0.713567 
0.215723 0.324452 -0.610705 
-4.64101e-18 1.44066e-18 1 

-0.123673 -0.00647126 -0.452398 
-0.0179213 -0.00791231 -0.758219 
9.45129e-19 1.19513e-17 1 

-0.133718 0.0554391 0.100526 
0.0605376 -0.122962 -0.102114 
8.21672e-18 1.87235e-18 1 

-0.14409 -0.00482306 -0.518542 
0.0294468 -0.0890395 -0.000702273 
-1.53566e-17 -1.55275e-18 1 

-0.152159 0.0746093 0.599375 
0.0271886 -0.0152333 3.0601 
1.85908e-17 -4.36114e-18 1 

-0.119423 0.0252916 -0.853287 
-0.0188039 -0.0232299 0.199724 
9.45888e-18 -2.35382e-18 1 

-0.0916155 0.067593 0.0168827 
-0.0738772 -0.0733901 -0.110175 
-9.86309e-18 -5.66395e-18 1 

-0.233819 0.108459 0.579879 
0.10757 0.0784178 -0.41303 
-6.4788e-18 6.99197e-18 1 

-0.260539 0.186704 -0.137588 
-0.1421 0.129352 0.0992557 
6.40983e-18 2.48852e-17 1 

-0.123255 0.0372231 0.020107 
-0.0295892 0.00195664 2.50466 
1.05327e-18 3.62041e-18 1 

-0.0889025 -0.00218078 -0.0195329 
0.0105147 -0.0224334 -0.0545609 
-4.35592e-18 -7.75449e-18 1 

-0.121065 0.0157423 -0.128143 
0.0597348 -0.0394384 -0.0536895 
6.44107e-18 -2.59432e-18 1 

-0.1358 0.090077 -0.281519 
-0.0353726 -0.107107 0.279067 
-2.65272e-18 -2.82956e-18 1 

-0.122298 -0.00765727 0.129904 
0.0296448 -0.00316443 0.176333 
9.37485e-19 -6.88465e-18 1 

-0.379011 -0.194175 0.046794 
0.485462 -0.00734328 -0.33227 
1.49412e-19 9.88836e-18 1 

-0.602866 -0.0372452 0.503465 
-0.340522 0.199388 0.62835 
2.73348e-18 -1.00707e-18 1 

-0.0856959 0.00264506 0.0267552 
-0.0247507 0.00827583 -0.00455586 
5.20926e-18 -1.13953e-18 1 

-0.247038 0.234557 0.285983 
0.0636251 0.100322 0.298784 
3.54623e-18 5.45574e-19 1 

-0.113237 0.00112534 0.26887 
0.000862961 -0.0767385 1.76134 
5.52178e-18 -2.22275e-18 1 

-0.105693 -0.030467 -0.0577735 
-0.0392108 -0.128143 -0.0454235 
2.40112e-18 3.85007e-18 1 

-0.148008 0.00833369 0.139604 
-0.0581279 -0.0226966 0.0551606 
-3.90476e-18 0 1 

-0.114371 0.0395489 -0.110561 
-0.0723598 -0.0134934 -0.843793 
-7.43062e-18 -3.39001e-18 1 

-0.0756798 -0.0821559 0.0417666 
0.0587507 -0.0305257 -0.0565885 
1.28492e-18 -1.58863e-18 1 

-0.109841 0.0129323 -0.610151 
0.0106821 -0.0455893 -0.296903 
3.01042e-18 -1.277e-17 1 

-0.423207 0.296503 0.943352 
-0.110763 0.274718 -0.573905 
-3.30617e-18 -2.32175e-18 1 

-1.7651 -3.40536 4.61253 
0.456577 0.990954 -0.593108 
1.10814e-18 1.92466e-18 1 

-0.0861189 -0.0193707 -0.409374 
0.0483927 0.0138202 0.569789 
6.94782e-18 1.80225e-18 1 

-2.69727 1.54852 -3.85887 
-1.10316 1.17279 -2.52855 
-5.88748e-18 -3.02476e-18 1 

-0.156123 0.0597402 0.0302122 
-0.0845715 0.143389 -0.251798 
1.16976e-17 9.83854e-18 1 

-0.0990094 0.023512 -0.277336 
-0.017638 0.0552428 -0.813719 
-6.44778e-18 -1.65734e-17 1 

-0.148492 0.112098 0.185372 
-0.00439463 -0.0822619 -0.291766 
1.55345e-17 2.55712e-19 1 

-0.102448 -0.0304905 -0.44059 
0.0510886 -0.0158064 -1.78165 
7.09961e-18 -1.86012e-17 1 

-0.0979403 -0.0728823 -0.023725 
0.088836 -0.0510619 0.134432 
-3.67105e-17 -1.38347e-17 1 

-0.0685789 -0.0945493 0.060599 
0.0632083 -0.0824245 -0.0351349 
-2.14916e-18 -1.35737e-17 1 

-0.158201 -0.0389333 0.534419 
0.0436099 -0.038323 0.450637 
-5.67095e-18 -1.01499e-17 1 

-0.0837865 -0.0613025 0.00604683 
0.08517 -0.0124524 0.0418226 
1.86531e-18 -9.86944e-18 1 

-0.146315 -0.121637 -0.021908 
0.049892 -0.0234052 -0.0585977 
9.35723e-18 2.72919e-18 1 

-0.0973813 -0.050112 0.0820377 
0.0350562 -0.0116804 -0.0132518 
7.85048e-18 -6.95888e-18 1 

-0.0742016 0.0208576 -0.165899 
-0.0245792 -0.0281671 0.0105764 
-6.51215e-18 -1.1946e-18 1 

-0.0839143 0.0396264 0.332459 
-0.0759755 -0.00677006 -1.22397 
-3.1778e-18 -9.66051e-18 1 

-0.78853 -0.713705 0.931875 
0.457332 0.282375 -0.791895 
2.37529e-17 5.6711e-18 1 

-0.113854 -0.013773 0.416923 
-0.0354677 -0.0806062 0.112189 
7.95637e-18 5.24756e-18 1 

-0.111346 0.0261461 -0.302393 
-0.0516052 -0.0119462 -0.331325 
-4.73088e-18 -2.74113e-18 1 

-0.0651344 0.0678418 0.169974 
-0.00422755 0.00573716 0.253871 
8.76634e-18 8.835e-18 1 

-0.123362 -0.0255409 0.729613 
0.00277048 0.00477372 1.05149 
-6.65686e-18 2.94959e-18 1 

-0.212384 -0.00669318 -0.225348 
-0.0204672 -0.00620483 0.171961 
2.61336e-18 -5.70377e-18 1 

-0.128471 -0.0650528 1.15446 
0.0282052 -0.047023 -0.424863 
-7.31474e-18 -1.37552e-20 1 

-0.133961 -0.00492988 0.634293 
0.0018794 -0.00382169 -0.0125483 
6.65399e-18 5.72407e-18 1 

-0.144015 0.0190289 0.145622 
-0.0207769 -0.0499312 -0.0714644 
0 -2.09413e-18 1 

-0.409455 -0.0635513 0.283196 
0.104642 0.388929 0.00334314 
7.11365e-18 -5.0631e-19 1 

-0.239765 -0.0366435 0.0926055 
0.135281 0.0784554 -1.66967 
5.7035e-18 3.47116e-18 1 

-0.122898 -0.0263311 1.38086 
-0.00681482 -0.00831715 -0.0775337 
-2.43725e-18 2.15539e-18 1 

-0.471244 -1.43755 1.13189 
0.0249782 0.528274 -0.635583 
4.95506e-19 -4.06638e-18 1 

-2.18484 3.05802 -34.2627 
-0.0946302 0.77117 -0.076816 
-3.62009e-18 5.15967e-18 1 

-0.257403 -0.330871 18.1591 
-0.0562459 0.187423 -5.74701 
-4.00211e-18 9.32491e-18 1 

-0.276371 0.0306113 3.18546 
-0.0273259 -0.18085 3.09219 
-7.99864e-18 -1.59973e-17 1 

-0.171225 -0.0307643 -0.178293 
0.0642971 0.0558777 0.680555 
1.42814e-18 3.72067e-18 1 

-0.252414 0.0860251 -1.31763 
0.0451087 0.211961 -1.81238 
-2.10053e-18 9.93668e-19 1 

-0.190877 -0.0900933 0.0597449 
0.0612914 -0.0588139 0.362464 
2.25937e-18 8.51609e-18 1 

-1.11369 -0.302568 0.878439 
0.23989 0.401124 -0.155062 
9.17437e-18 1.94955e-17 1 

-0.0570354 0.0551399 -0.0650436 
-0.00145301 -0.0822731 -0.0432719 
-2.83827e-18 4.54124e-18 1 

-0.0988442 -0.0142601 -0.213223 
-0.0234021 -0.0210658 0.05981 
-6.44452e-18 8.71372e-19 1 

-0.072131 -0.0407778 -0.131832 
0.00636022 -0.0933717 0.308954 
2.6915e-18 6.86573e-19 1 

-0.174463 -0.0402463 -0.0348708 
0.0105938 -0.00929411 -0.261077 
-7.54099e-18 2.81443e-18 1 

-0.0836897 0.00503594 0.00806216 
-0.0155487 -0.0526384 -0.00405739 
1.1419e-17 -1.24431e-17 1 

-0.0765828 0.00383925 -0.110439 
0.0246065 -0.0255347 -0.0552733 
-1.95998e-18 8.79108e-18 1 

-0.21687 -0.0765739 -1.10662 
-0.126935 0.140879 -0.243193 
-1.11542e-17 -6.88625e-18 1 

-0.248156 -0.00192796 0.00125847 
-0.156131 0.0564141 0.366883 
5.16211e-19 -3.52744e-18 1 

-0.15063 -0.0488288 -0.0762495 
0.125229 -0.0214008 0.210714 
-8.90894e-18 1.8065e-18 1 

-0.12302 0.0486712 -0.0836078 
-0.120711 -0.0764351 0.129916 
-6.97655e-18 -5.82215e-18 1 

-0.433224 0.111081 0.402311 
0.0729944 0.159424 1.07878 
1.66555e-19 -1.39906e-17 1 

-0.123268 -0.00547826 -0.0158334 
-0.020346 -0.057171 -0.133283 
-8.92536e-18 -4.05698e-18 1 

-0.16795 0.0290572 0.363369 
-0.0835663 0.067361 0.618246 
3.01008e-19 5.83287e-18 1 

-0.15459 0.0605526 -0.0388216 
-0.019432 -0.0699942 -0.0419625 
2.01232e-17 3.7731e-18 1 

-0.125589 -0.0779022 -0.362784 
-0.0561494 0.0484669 -0.258335 
-8.24852e-18 -2.48343e-18 1 

-0.263711 -0.0268147 0.274647 
-0.117896 0.00244238 -0.200187 
-2.64631e-18 -1.21618e-17 1 

-0.083988 0.00570019 -0.0127877 
-0.0414707 -0.051169 0.0415131 
4.11688e-18 -7.06243e-19 1 

-0.108552 0.00978505 -0.521073 
0.0105645 -0.049822 0.801747 
-5.87758e-18 -1.41418e-17 1 

-0.221288 -0.0334666 0.179276 
0.12214 0.032775 -0.402628 
6.91675e-18 -7.35353e-18 1 

-0.148874 -0.0147815 0.10697 
-0.0628326 -0.0502699 0.218368 
-3.70345e-18 0 1 

-0.113217 -0.0154559 0.400722 
-0.0475543 -0.0477 0.360241 
2.64825e-20 -7.60049e-18 1 

-0.170947 -0.29735 0.171822 
0.300723 0.108885 -0.338659 
7.59237e-18 2.84654e-18 1 

-0.114157 -0.0100488 -0.288789 
-0.0435575 -0.028179 0.141364 
6.36322e-18 -2.06644e-18 1 

-0.2301 -0.272746 0.375386 
0.317364 0.0683829 -0.300305 
4.55662e-18 -1.38079e-17 1 

-0.128252 -0.410892 0.0877803 
0.391208 -0.00455985 0.114998 
1.0123e-17 -5.56039e-18 1 

-0.124281 -0.0900234 -0.0822421 
0.0824342 -0.0579069 -0.0882691 
-1.58895e-18 -5.16409e-18 1 

-1.19896 -1.97027 -3.98682 
-0.00794388 0.665128 0.227243 
-1.47424e-17 6.54244e-17 1 

-0.256969 0.0664335 -2.20133 
-0.0578991 0.157273 -0.215671 
-5.388e-18 -3.60521e-18 1 

-0.530032 -0.158182 -7.80703 
0.409342 0.217402 -3.91424 
-6.67882e-18 1.03345e-17 1 

-0.113843 0.0306575 0.128728 
-0.0203446 -0.0134909 -0.429844 
1.61457e-17 -2.39751e-18 1 

-0.10938 0.0837723 0.0606392 
-0.0787478 -0.103331 -0.114092 
8.56189e-18 -3.53039e-18 1 

-0.120577 0.0625801 -0.177698 
-0.058508 -0.0320361 -0.147709 
-1.20533e-18 1.73567e-17 1 

-0.126276 -0.0243797 -0.0759918 
-0.074128 -0.0406215 0.0932049 
5.59775e-18 -6.87655e-18 1 

-0.505895 -0.327925 -7.42081 
0.186718 0.341444 4.10899 
1.37807e-17 2.33121e-18 1 

-0.161052 0.197593 -0.0143701 
-0.155814 0.000994617 0.292765 
-7.41376e-18 -2.54917e-18 1 

-0.0938986 0.00967029 0.100761 
-0.0034658 -0.0329428 -0.0572294 
-8.6877e-18 -8.54045e-18 1 

-0.374376 0.0812353 0.00274808 
-0.0792755 -0.0369587 0.189595 
-2.09893e-18 -3.53819e-18 1 

-0.385824 0.0437783 1.7358 
0.0153931 0.202173 1.00793 
-3.43202e-18 -9.42524e-18 1 

-0.158225 -0.0322255 0.166148 
-0.0367691 -0.0682112 -0.168796 
2.50042e-18 -2.4869e-17 1 

-0.120645 -0.027626 -0.0788139 
-0.0130288 -0.00394023 -0.152699 
1.68977e-17 7.74477e-18 1 

-0.0967666 -0.0124145 -0.22226 
0.0816609 0.0292311 0.846662 
-5.41429e-18 7.0871e-18 1 

-0.0698791 0.0279479 0.0712859 
0.0070149 -0.00435744 0.054751 
1.02861e-18 -3.4287e-19 1 

-0.509049 -1.21805 -3.97912 
0.0339503 -0.129074 -0.50915 
-8.76179e-18 -6.85094e-18 1 

-0.347581 0.172325 0.941632 
-0.411858 0.27048 -0.849957 
-2.61999e-19 1.03302e-17 1 

-0.105 0.0308007 0.0262987 
-0.000340846 -0.0169869 -0.0555792 
6.272e-18 1.2493e-17 1 

-0.128644 -0.0280367 0.204788 
0.0258326 -0.0363232 -0.607705 
1.38682e-17 1.10327e-17 1 

-0.0826146 0.0967757 -0.0886789 
0.0908332 -0.0382105 -0.678577 
5.42677e-18 -1.86681e-17 1 

-0.0993051 0.00571301 -0.442272 
-0.0148848 -0.0197474 -1.59042 
2.94651e-18 4.72788e-18 1 

-0.261329 0.0566771 0.384986 
0.0325004 0.104442 0.756965 
-1.13556e-17 2.46409e-18 1 

-0.0874224 -0.0525657 -0.0924224 
0.05391 -0.0453206 0.0619369 
2.16925e-17 -8.62312e-19 1 

-0.126024 -0.00946593 0.0836407 
-0.000866376 -0.122163 -0.00869136 
3.28103e-18 -9.42564e-18 1 

-0.124158 -0.142079 0.522268 
0.0993251 -0.00403735 0.637758 
2.69914e-18 9.69614e-18 1 

-0.158763 -0.0473168 -0.37498 
0.0159759 0.00300161 -1.06755 
1.78124e-18 -5.1779e-18 1 

-0.148039 -0.0128374 -0.300986 