# vtk DataFile Version 3.0
Output file generated by Yade's KinematicLocalisationAnalyser
ASCII
DATASET UNSTRUCTURED_GRID

POINTS 13483 float
558.967 38.5379 0.539448
635.241 88.9793 -0.444951
114.745 5.96272 -0.558055
673.645 5.57517 0.57773
471.503 11.6525 -0.353421
303.838 36.4511 -0.472458
149.811 7.03755 0.461944
530.184 13.4456 -0.148603
475.08 32.5396 -0.144806
627.521 19.6311 -0.672622
202.84 8.82737 -0.0903053
248.494 6.4663 -0.241486
573.74 53.3238 -0.179898
567.573 27.0502 -0.0856809
131.048 18.7187 0.442466
213.08 34.8118 0.400982
210.147 12.9339 -0.320174
279.26 10.0206 0.413065
329.573 34.926 -0.445528
492.255 7.9736 0.504541
395.584 37.5093 0.111099
541.128 53.4469 0.268082
668.628 75.4631 0.505592
598.098 77.9473 -0.342273
441.863 16.4268 0.530346
231.914 45.3359 0.147203
472.178 36.6947 -0.541251
538.814 28.4122 -0.307072
41.7136 16.1893 -0.396058
614.289 54.4612 -0.333419
461.096 5.38196 -0.542902
15.8558 24.6833 -0.294323
649.373 81.7952 0.287624
468.31 4.54242 0.658397
74.3928 45.3473 0.106838
491.934 36.2598 0.342718
497.281 17.8805 0.755517
331.441 23.9993 0.193194
502.467 27.4848 -0.343724
338.477 35.8069 -0.531381
232.641 14.7679 0.358305
417.909 37.1059 0.0919295
594.178 6.99693 -0.221524
185.313 6.26559 0.361478
51.9474 7.10607 -0.114076
64.882 9.06625 -0.275612
607.786 9.92441 -0.608144
21.0319 12.3511 -0.29417
530.535 65.5028 0.353675
600.735 31.2106 0.318004
165.764 32.8228 -0.322244
629.323 77.8611 -0.155174
32.3857 29.267 -0.129259
501.675 4.12357 0.572551
136.277 7.06045 -0.518354
545.612 41.3643 0.467898
482.374 39.1195 0.112451
168.323 0.947702 -0.284683
29.746 2.29421 0.374941
336.611 18.3417 0.283044
540.772 75.6373 -0.134949
445.027 37.1301 -0.188129
385.186 1.02913 0.208082
616.485 8.51652 -0.517634
25.8512 45.5361 -0.235524
247.445 32.2199 -0.334855
629.784 12.3322 -0.225635
564.794 78.1312 -0.346965
402.997 8.36253 -0.590583
530.608 6.96421 -0.558615
645.71 49.9466 0.377794
125.307 7.80572 0.273977
478.457 38.6193 0.156131
457.609 18.4778 -0.182076
285.239 17.142 -0.346891
18.3639 14.355 -0.255608
656.553 71.8137 0.358148
322.224 40.9105 -0.281056
597.914 24.1111 0.584385
607.949 14.2495 0.305069
665.313 13.6932 0.305133
446.531 39.1529 0.173367
88.7771 39.3251 -0.26726
584.6 70.8019 -0.248809
575.839 64.3399 -0.127999
676.105 81.1884 -0.132529
656.826 2.03862 -0.555467
281.794 29.1203 0.497924
570.484 6.2383 0.164603
22.3181 6.14451 -0.647508
128.112 39.878 -0.158765
484.258 16.0037 0.304577
658.363 65.6003 -0.43525
188.844 29.3704 0.247251
41.9893 35.2641 0.304439
468.812 3.30565 -0.182086
228.524 8.90094 -0.384578
645.305 59.6556 -0.326446
665.109 62.8299 -0.211503
349.82 22.3553 -0.290568
157.195 27.642 -0.466177
506.816 53.6176 -0.416245
367.218 16.1513 -0.446185
399.7 30.8826 0.13854
365.324 4.5706 0.380417
513.727 11.9085 -0.222331
676.191 15.1519 0.154919
76.5348 40.3141 0.393872
324.694 5.01763 -0.238931
525.731 11.7497 -0.482529
349.162 45.4856 0.47414
23.0784 26.7535 -0.494371
27.838 6.121 -0.281535
523.132 47.2301 0.520583
480.043 30.6009 -0.168128
24.9142 39.3464 0.451736
89.6896 31.6965 -0.231677
315.911 16.674 -0.310699
553.767 20.909 -0.244525
456.995 45.2296 0.306415
640.382 16.2163 -0.556322
634.782 9.8095 -0.188976
375.674 38.5778 0.109098
560.234 57.6949 -0.127337
231.47 17.1414 -0.568682
320.23 3.93273 0.466574
99.9817 31.9884 0.424723
111.909 24.354 -0.27017
503.901 52.2894 -0.0776075
298.219 19.3353 0.524436
614.204 62.447 0.125568
569.52 77.3802 0.111582
459.593 28.1093 -0.369576
673.3 43.6135 0.259298
415.204 23.7771 0.237945
269.195 25.4033 -0.314702
601.619 42.1232 0.31874
271.241 29.4068 0.395458
535.284 21.7822 -0.235999
323.323 37.5427 0.199983
478.297 13.4195 0.686604
356.436 32.9307 0.103003
417.514 17.0984 0.125232
309.589 43.8443 -0.438891
185.159 30.4188 0.141843
640.232 86.1872 0.0705042
674.179 14.8111 0.374358
6.13431 13.2274 -0.437323
420.506 23.334 -0.388359
35.5856 23.4996 0.0779121
366.307 31.9506 -0.569832
384.3 25.2689 -0.289688
71.884 12.244 0.506275
49.3993 33.6529 -0.479507
220.107 13.6667 0.457126
545.134 69.1399 -0.386365
535.396 30.5573 -0.455101
71.7151 21.3676 0.504379
602.198 80.268 0.404018
645.829 14.3619 -0.627925
591.4 56.7404 -0.56388
611.54 1.65868 0.643546
512.862 43.4767 0.445439
542.076 54.6414 -0.647099
487.899 18.5048 -0.548253
671.216 3.76661 -0.472601
217.982 25.016 0.116427
124.327 36.2196 0.200926
241.584 6.77593 -0.411496
90.448 4.50339 0.27665
61.2792 10.3151 0.180896
269.466 37.0383 0.326853
15.1113 26.4031 -0.362593
523.267 23.1715 0.467976
537.252 61.7037 0.235511
447.176 23.2069 -0.378762
661.287 86.4911 0.386181
396.358 8.74762 -0.148191
423.701 38.4506 -0.439525
508.62 3.26044 -0.25064
20.2903 26.1223 0.42041
539.215 5.32368 0.534595
516.454 6.68077 -0.353531
201.218 11.3447 0.513677
414.029 16.3532 -0.285787
304.777 6.46502 0.351223
378.433 19.3155 -0.320375
632.038 57.4853 0.162088
187.588 26.2685 0.434682
652.05 12.822 0.471994
632.423 53.5614 0.41615
373.646 10.5695 0.199259
628.788 2.14652 -0.375354
561.249 37.4961 0.475337
640.027 31.8324 -0.45466
418.327 47.1459 -0.26238
474.813 16.3676 0.449186
449.224 49.9814 0.251753
434.514 10.1498 -0.20962
594.881 55.3804 0.265757
590.519 52.6237 0.375816
187.762 39.5981 -0.332707
663.774 14.9828 -0.191158
541.305 57.4505 0.252524
10.2334 19.2872 0.182645
398.207 25.4207 0.407595
182.718 23.7256 0.413444
90.4406 40.2034 0.203415
670.444 58.0705 0.438992
590.228 63.8003 0.255969
312.379 27.0875 -0.318367
505.934 10.3306 -0.368724
79.4858 45.6149 0.174967
242.32 27.0082 -0.455035
519.822 32.5258 0.33392
469.461 26.2702 -0.489706
257.708 0.890768 -0.359418
515.341 59.1296 -0.382099
503.671 60.3182 -0.435685
468.719 42.3189 0.429634
475.535 1.75506 -0.629715
614.416 25.8077 -0.559008
174.884 12.5443 -0.221475
484.475 52.1544 0.452398
524.285 54.442 0.138733
70.1948 0.989073 0.30826
246.756 4.99264 0.187248
672.764 18.6984 0.214877
664.98 17.8398 -0.621356
676.685 23.3743 -0.696524
297.457 8.6612 -0.247537
643.096 39.9555 0.425737
396.763 45.0078 -0.476302
437.66 0.78456 -0.456227
580.372 57.6839 0.431989
25.0705 32.5574 0.358392
323.919 43.8452 0.586735
247.544 3.12663 0.402561
653.64 78.7477 -0.210743
619.206 75.9084 0.238707
281.652 11.5028 0.259025
594.889 44.4439 -0.119676
527.375 2.52022 0.279808
515.084 7.49264 0.490601
93.5997 18.909 -0.53894
297.273 1.08626 -0.234539
335.548 2.25545 -0.372214
12.8914 7.94567 -0.614032
4.31854 33.8414 0.29641
157.391 19.132 -0.376104
65.7222 42.5797 -0.217356
63.9818 29.5925 -0.329434
413.978 14.4327 -0.502474
359.569 36.4976 -0.485311
626.817 80.2017 -0.126529
18.1658 4.17015 0.287488
67.9066 7.18101 0.145293
554.848 71.2302 -0.135783
288.815 0.951147 0.402201
356.858 16.5995 -0.133131
230.95 4.65462 -0.364023
587.423 38.3837 0.184108
440.437 8.55584 0.466346
646.802 40.179 -0.413525
560.493 61.1105 0.342372
595.957 23.7427 0.129842
411.092 27.7762 0.569359
99.4143 46.2831 0.306143
504.953 58.8981 0.106884
640.89 25.2833 0.263888
233.126 31.6221 -0.288967
29.6983 18.1944 -0.210643
329.134 14.1763 0.503211
104.64 41.6093 -0.467028
262.667 43.4045 -0.231557
416.867 1.67387 -0.37907
653.826 67.9862 0.385288
605.488 0.695073 -0.545545
325.175 3.51341 0.595044
294.652 27.3345 0.15073
449.255 46.4727 0.231239
78.5776 8.75404 0.510222
193.384 46.0054 0.380188
636.212 71.3266 0.353269
479.269 53.1947 -0.0965706
195.997 42.0477 -0.317342
157.395 43.4361 0.405498
675.773 75.4066 -0.539916
674.751 16.0609 -0.689823
561.946 3.25189 -0.630518
186.167 25.206 -0.104921
513.551 38.8581 0.149631
515.503 39.263 -0.284058
400.742 5.60796 -0.163414
465.806 0.949734 0.487561
625.024 81.18 -0.458114
82.5302 31.8964 -0.267805
591.737 32.6076 -0.516665
269.006 15.5423 -0.4436
8.28131 2.54019 -0.43256
122.679 38.0786 0.199569
64.7796 23.1827 0.544699
607.466 68.0104 0.308408
651.563 94.2615 -0.0826976
181.408 28.9693 0.198525
669.517 14.0746 0.602487
43.4804 37.2967 -0.281054
88.4984 30.0431 -0.189319
574.216 30.8592 0.591294
405.289 19.3842 -0.559938
494.887 18.0108 0.148536
233.656 29.6258 -0.197534
575.519 7.11213 -0.582554
677.605 16.6015 0.436671
27.8857 33.3305 -0.303269
265.227 7.70857 0.197108
217.89 15.3969 0.247198
1.04333 38.4066 0.145822
221.133 14.903 0.395353
207.629 11.1451 -0.12223
209.942 26.7987 -0.284886
131.072 29.6315 -0.156957
518.058 18.2272 0.459861
162.982 14.4503 -0.340782
647.842 80.731 -0.241875
170.26 3.83406 0.518739
45.0643 38.3568 0.357999
637.994 64.9506 -0.527877
276.18 32.5784 -0.413013
604.449 31.5983 0.562669
663.507 69.8542 -0.449726
295.588 9.34582 0.134214
633.274 45.5402 0.393027
322.214 2.49898 -0.444913
407.895 25.212 -0.401789
599.963 20.9255 -0.56286
102.255 11.9168 -0.497387
465.955 5.98974 0.654078
649.628 40.6096 -0.202926
85.1763 7.7739 -0.308922
276.638 15.0573 0.199816
414.842 11.844 -0.242959
671.758 2.38906 0.567395
390.047 1.99866 -0.546125
173.119 39.2434 -0.364654
643.595 23.1147 -0.316195
125.943 37.5318 -0.210196
257.983 32.3248 -0.394922
392.759 21.9002 0.221397
537.804 23.3704 0.450792
379.267 9.98186 -0.525759
447.409 31.6465 -0.404407
636.531 88.6714 0.358544
44.7771 11.6445 -0.160347
293.743 39.4594 -0.264596
372.44 28.7923 0.408692
402.003 21.2197 0.305403
498.04 60.0501 0.364943
653.092 62.8001 -0.183663
595.475 49.4168 -0.41135
221.62 34.8167 -0.402516
13.1839 34.7149 0.201071
589.379 54.2016 -0.161058
493.614 59.0774 -0.476941
224.718 40.1391 -0.145734
602.519 55.3475 0.112464
147.085 9.41513 0.239176
358.921 22.1965 0.300011
450.463 48.1397 -0.116359
406.269 20.7409 0.223769
631.51 90.991 -0.291331
418.131 3.93925 0.561736
47.539 25.8623 -0.376549
459.4 39.2757 -0.338405
424.177 45.009 0.376456
650.4 74.6416 -0.224041
630.858 44.1272 0.279812
513.032 21.4088 -0.301544
641.049 78.6457 0.488729
288.449 2.26379 -0.472383
370.82 31.1218 0.499887
28.1743 40.8486 -0.311022
635.599 46.8155 0.132843
563.696 21.9607 -0.725326
450.842 0.744308 -0.453117
122.531 4.74764 -0.346951
416.553 41.4121 0.117822
10.6315 0.926732 0.405907
669.38 7.04411 -0.175865
363.507 40.4231 -0.487643
[...]
POINT_DATA 13483
TENSORS Strain_matrix float
-1.01206 0.665822 -21.1417 
0.733529 0.0217404 -2.25412 
1.75295e-18 8.00259e-18 1 

-0.700947 0.29448 -96.9369 
0.126995 -0.0863178 27.8616 
4.00737e-18 3.59485e-18 1 

-0.162476 0.0387697 -1.52108 
0.0305015 -0.0232715 -1.10454 
-2.51105e-18 -7.93556e-18 1 

-0.923879 0.0417051 0.20256 
0.0419468 0.00762636 0.273493 
-9.48583e-18 2.98409e-17 1 

-0.879556 -0.242996 0.490355 
-0.197071 0.240792 -0.229333 
-3.39143e-18 -6.78286e-18 1 

-0.144854 -0.0784841 -0.20527 
0.0711525 0.00166772 -0.720033 
7.62423e-18 -6.12013e-18 1 

-0.145108 -0.0226117 0.200958 
-0.00565777 -0.0615377 -0.344027 
4.98532e-18 -2.48568e-18 1 

-0.435249 -0.0838592 -0.080299 
0.204497 0.0721912 -0.524632 
1.85545e-19 5.56636e-18 1 

-1.5928 1.58219 -0.447254 
-0.0341277 0.660517 0.139556 
4.40966e-18 7.70424e-18 1 

-0.937339 -0.507186 -3.26314 
0.246703 0.266719 -1.72145 
1.79669e-17 -6.63441e-18 1 

-0.103722 -0.00415864 -0.160585 
0.0128987 -0.0775805 0.0895738 
-7.01638e-19 -3.78884e-18 1 

-0.150893 -0.0369842 0.137168 
-0.120966 -0.0744257 0.111196 
1.95342e-17 1.18813e-17 1 

-0.0601469 0.603817 -0.839792 
-0.645991 0.276325 -0.901366 
-1.19791e-17 2.81083e-18 1 

0.087798 -0.880321 0.273822 
0.731752 0.375946 0.472502 
-4.64269e-18 2.18479e-17 1 

-0.400989 0.079816 -0.637063 
-0.0132327 0.174605 -1.07995 
-5.65132e-18 2.17359e-18 1 

-0.157399 -0.0362607 0.694742 
-0.0602335 0.017909 0.589814 
9.21582e-18 2.08892e-17 1 

-0.101902 -0.0461154 0.260132 
0.00511842 -0.129709 0.00995957 
3.82855e-18 4.83606e-18 1 

-0.225088 -0.0404844 0.0178286 
0.0780278 -0.0526813 -0.0328644 
-2.61667e-18 -2.89986e-18 1 

-0.270475 -0.0584799 1.03353 
0.0767751 0.0189524 0.897403 
1.86635e-18 2.24873e-18 1 

-0.175863 0.0348422 0.880823 
-0.0558185 -0.104844 0.764635 
1.94872e-17 1.35898e-17 1 

-0.341812 -0.0853731 -0.4104 
-0.0353356 0.0161741 -0.322111 
5.78353e-18 -2.06383e-18 1 

-0.898633 -0.707865 -0.595137 
0.0653084 0.185329 0.58747 
1.31402e-17 -3.09181e-18 1 

-1.65707 -0.473808 44.4884 
0.166189 0.523726 -14.8986 
-4.77698e-18 -4.24621e-18 1 

-0.110347 0.193236 1.64633 
-0.0428388 -0.00493746 0.975615 
-2.66991e-18 4.64667e-18 1 

-0.463783 -0.0337056 0.0927057 
-0.200016 0.235448 0.606204 
8.77568e-18 -4.92513e-18 1 

-0.233209 -0.0186769 0.110541 
0.0118217 0.0750726 -0.111522 
-2.19859e-18 1.39008e-18 1 

-0.354438 0.051236 10.1197 
0.241589 0.20362 1.30533 
-2.20414e-18 -1.56639e-19 1 

-0.200352 -0.084121 0.164489 
-0.274257 -0.010786 0.840028 
-1.30036e-17 -8.18459e-18 1 

-0.132023 0.111742 0.429792 
0.0198802 -0.0848932 -0.885401 
-1.28929e-17 -3.8227e-18 1 

-1.16344 0.0244363 1.25508 
-1.17012 0.516609 -1.66164 
-2.64103e-19 2.45238e-19 1 

-0.775351 0.10861 -0.165885 
-0.0517601 0.385167 0.535421 
-3.18691e-17 -6.05313e-18 1 

-0.234745 -0.0830342 1.21661 
0.0168147 0.0689043 -0.844071 
-5.94336e-18 -2.10347e-17 1 

-0.0917038 -0.159856 -1.62097 
-0.185486 0.0475691 1.08335 
7.82386e-18 1.8187e-18 1 

-0.927596 -0.262118 15.9739 
-0.0257634 0.345411 -6.90554 
3.95661e-18 2.3071e-17 1 

-0.0889987 -0.0385183 -0.1985 
0.00268033 -0.0995781 -0.329359 
-3.09798e-18 1.34673e-17 1 

-0.483527 0.312293 -0.385188 
-0.252847 0.232184 -0.822328 
1.39367e-17 -1.89551e-20 1 

-0.529221 -0.369651 -230.896 
-0.00108305 0.144289 -11.9227 
-3.01841e-18 -2.14237e-18 1 

-0.560489 0.160765 -0.335416 
-0.150268 0.270214 -0.224537 
1.27166e-17 -1.58298e-18 1 

-0.154222 0.0837711 1.12083 
0.0865656 -0.0350713 -0.33416 
-4.346e-18 1.03597e-18 1 

-0.224048 0.0183355 -1.34255 
-0.0574038 0.0361177 -0.470458 
1.41154e-18 -1.78455e-18 1 

-0.124761 -0.0419892 0.279804 
0.0376004 -0.0994883 -0.178386 
-2.87481e-19 1.49131e-17 1 

-0.153615 -0.196512 0.209253 
0.124753 -0.0979256 -0.303081 
6.54029e-18 -1.04645e-17 1 

-0.854855 0.0416485 -0.214242 
-0.378763 0.142614 -0.263465 
1.78023e-18 6.76486e-18 1 

-0.145007 0.0155139 0.208631 
-0.0620573 -0.0705344 0.967001 
5.50197e-18 -7.60435e-19 1 

-0.0895821 0.049256 -0.00236443 
-0.0635653 -0.0819193 0.13338 
1.17692e-17 1.085e-17 1 

-0.0847992 -0.016976 0.112325 
0.00152378 -0.0534121 -0.100023 
-6.32671e-18 -5.56751e-18 1 

-0.361818 -0.0895235 0.941489 
0.00497843 -0.0462645 0.728514 
-1.24408e-17 -1.54358e-17 1 

-0.0665807 -0.0240522 0.0111431 
0.0468281 -0.099305 0.0307416 
-1.12598e-17 9.28337e-18 1 

-3.51947 1.43898 21.7309 
0.728339 0.872792 0.0229028 
-4.64155e-18 -6.08288e-18 1 

-1.34798 1.16816 2.69097 
-0.704645 0.948349 1.53598 
1.26186e-17 -8.01475e-18 1 

-0.118282 -0.00890892 0.191327 
-0.0334184 -0.00678305 -0.17857 
-7.79985e-18 1.92508e-18 1 

-0.221103 -0.0792074 0.0142509 
0.210485 -0.0407831 0.707986 
5.62047e-18 -5.12145e-18 1 

-0.10073 0.0773843 -0.0903361 
-0.0557098 -0.0289011 0.121266 
-7.94156e-18 -7.7954e-19 1 

-0.389337 0.0281199 1.18985 
0.0030211 -0.0782119 -0.176497 
-1.23455e-17 1.76128e-19 1 

-0.120846 0.0558196 0.167117 
0.0108173 -0.119467 0.96025 
1.02327e-17 5.76654e-18 1 

-0.222621 -0.0461127 -2.12255 
-0.0906808 0.0103256 -0.149668 
6.3302e-18 -1.4857e-17 1 

-1.93254 1.9322 3.53253 
-1.08481 1.35826 0.496533 
1.99456e-17 -1.2914e-17 1 

-0.129556 0.138214 -0.12752 
-0.000507559 -0.0105767 -0.130117 
4.40762e-18 2.16919e-17 1 

-0.0879804 0.0428014 0.361754 
-0.129755 -0.0897365 0.710941 
7.18061e-18 -4.77274e-18 1 

-0.134941 -0.0558708 -0.240006 
0.0177937 0.015646 -0.528073 
-1.8522e-17 -1.17202e-17 1 

-2.52376 4.55537 -9.94443 
0.00172412 1.07141 2.14813 
-1.31115e-18 3.7267e-17 1 

-0.180599 -0.44078 0.306592 
0.210563 0.150907 -0.0979449 
0 -2.07472e-18 1 

-0.142385 -0.0852493 -0.250754 
-0.017726 -0.0561968 -0.111615 
1.14714e-18 -1.86374e-17 1 

-0.736119 -0.10508 2.69387 
0.189396 0.329041 -1.29127 
-1.12073e-17 3.26532e-18 1 

-0.274549 0.213068 -0.488568 
-0.151414 0.0564453 0.288259 
-1.20525e-17 -1.89926e-17 1 

-0.345477 0.120393 0.175707 
-0.0230943 0.0788117 0.378812 
9.97077e-19 -7.18685e-18 1 

-0.721917 -0.940971 -0.581254 
-0.107181 0.0642407 -0.658514 
4.13657e-18 9.82435e-18 1 

-2.1599 -7.97129 46.7924 
0.0119474 0.606173 -5.36653 
1.65749e-18 -9.47137e-19 1 

-0.195492 -0.0288396 6.96559 
-0.0340206 -0.0471913 1.44715 
1.21721e-17 -4.76376e-18 1 

-0.911492 0.472022 -0.681975 
-0.476682 0.406609 -1.75337 
-2.00542e-17 -1.43336e-17 1 

-0.0697703 -0.296046 -0.174107 
0.334969 -0.0285763 -0.0185433 
-9.75861e-18 8.43337e-18 1 

-0.135339 0.0412542 -0.173478 
-0.06238 -0.0412195 -0.0361434 
1.74691e-18 -1.32656e-17 1 

-0.465216 1.07515 -1.02161 
0.255617 0.232623 -0.0108003 
-2.66268e-19 -2.06624e-17 1 

-0.416643 -0.248978 0.769138 
0.193488 0.178143 -0.182288 
1.88469e-17 4.65608e-18 1 

-0.106261 -0.0141663 -0.357222 
-0.023818 -0.0495387 -0.171066 
4.56442e-18 -8.42661e-18 1 

-0.142952 -0.0209372 0.0362834 
-0.0461992 -0.0343322 0.0722291 
-3.85275e-18 -4.91226e-18 1 

-0.0438622 0.0371047 4.42013 
0.0291659 -0.0231422 1.56578 
7.56054e-18 -8.01875e-18 1 

-0.186614 -0.00765364 -0.440181 
0.00937522 0.0459991 0.555961 
-8.59756e-18 9.69725e-18 1 

-0.877322 0.408029 -1.92373 
-0.141671 0.183579 0.0684633 
-4.85345e-18 -6.43297e-18 1 

-0.129137 -0.090953 0.0405896 
0.118331 -0.174832 0.291764 
1.06064e-18 -8.04321e-18 1 

-1.68136 0.26791 -1.21926 
0.0187322 0.683252 1.02153 
-2.52458e-18 5.6803e-18 1 

-0.226321 -0.572185 0.247489 
0.217938 0.226781 -0.363702 
-2.70681e-18 7.06546e-18 1 

-0.0403774 -0.00360705 0.0493572 
-0.0270603 0.00663689 -0.119764 
-9.12218e-18 -2.78304e-18 1 

-4.74552 -10.1305 -12.7596 
1.18322 3.32405 5.34436 
5.67183e-18 1.6137e-17 1 

-0.145266 0.438774 0.433256 
-0.682225 0.196085 0.464441 
-8.04219e-18 3.94663e-18 1 

-0.635743 -0.216141 -0.965971 
-0.19875 0.206079 0.212842 
-4.47576e-18 5.62578e-18 1 

-2.10882 -0.110608 1.40118 
-0.0208343 0.896019 3.15263 
-2.68002e-19 5.84731e-19 1 

-0.139614 0.0878325 0.269234 
-0.0295677 -0.114688 -0.328167 
2.11012e-17 1.81395e-17 1 

-0.486758 0.174169 0.116356 
0.0643759 0.0187733 0.294097 
3.01054e-18 -1.00874e-18 1 

-0.20371 -0.0378883 -6.79187 
0.0132981 -0.00529066 -2.63433 
-3.29865e-19 3.91797e-18 1 

-0.100083 -0.129499 -0.0392801 
0.0970725 -0.0415455 0.259029 
4.05693e-18 4.40074e-18 1 

-0.285665 0.529569 -0.515737 
-0.336559 0.113963 0.0962559 
7.26561e-18 2.96585e-18 1 

3.37115 -4.71923 -22.3019 
0.325185 1.32527 6.4046 
2.78695e-17 3.04031e-18 1 

-0.198265 -0.00924196 0.0611641 
-0.0427179 -0.0170927 0.0938436 
-1.70603e-18 -6.5804e-18 1 

-0.124334 0.0602371 0.149187 
-0.0813539 0.0128793 -0.264889 
4.39154e-18 -5.87663e-18 1 

-1.81479 -0.0599021 -0.619617 
0.174402 0.569833 0.305722 
-1.12608e-18 2.86542e-18 1 

-0.159899 0.0237715 0.202038 
-0.0612023 -0.0747789 -0.226802 
1.76102e-17 -1.2694e-17 1 

-0.358118 -0.135064 -0.100427 
0.319112 0.141808 -0.111062 
-5.65485e-18 4.02015e-18 1 

-4.65443 -4.9348 7.9635 
0.404703 1.28201 -2.14584 
5.23324e-18 8.10015e-18 1 

-0.259645 0.0393536 -0.257525 
-0.0158135 0.198445 0.0832532 
-1.00687e-17 -6.56019e-19 1 

-0.11167 0.0147748 -2.64609 
-0.0435312 0.00290139 -0.0171299 
-8.04525e-18 1.0711e-17 1 

-0.454639 -0.349208 -0.547071 
0.277085 0.391974 1.07515 
-1.23811e-18 -1.45553e-17 1 

-0.1618 -0.00899155 -1.61366 
-0.0355453 -0.00808899 0.975842 
-6.03745e-18 4.97324e-18 1 

-0.257329 -0.21187 0.0810774 
0.0613312 -0.0761109 -0.0471692 
9.67959e-19 2.00943e-18 1 

-0.1892 -0.00101464 0.123093 
-0.19825 -0.0783118 -0.0401583 
5.79556e-18 -4.88047e-18 1 

-0.522282 -0.150431 0.100841 
0.223945 0.0208169 0.248132 
9.18815e-18 -3.28337e-18 1 

-1.17712 -0.342416 0.251892 
0.386026 0.346178 -0.542811 
7.97584e-18 8.86204e-18 1 

-0.15074 0.013594 -0.437816 
-0.0245434 0.0047204 -0.643639 
1.66131e-18 -4.23314e-18 1 

-0.189377 0.0623317 0.0997237 
0.113421 -0.117409 -0.0640424 
3.8108e-19 -2.34225e-17 1 

-0.666966 0.564951 -0.280272 
-0.143129 0.007648 -0.989033 
1.39859e-18 -4.9362e-19 1 

-0.211838 0.0962763 1.60392 
-0.0839958 0.0342908 0.26843 
-1.32657e-18 7.83371e-18 1 

-0.18184 0.128502 -1.00123 
-0.156724 -0.0195195 -0.189009 
-9.74145e-20 6.81902e-18 1 

-0.16264 0.163516 0.0442594 
-0.181778 -0.0436783 0.000414511 
-9.42178e-18 1.78983e-17 1 

-0.887836 -0.245161 -39.6073 
-0.261979 0.365789 -12.8265 
-6.51709e-18 -7.30364e-19 1 

-1.12267 -0.246581 0.759723 
-0.319641 0.365862 0.0487309 
1.57827e-18 -1.05218e-18 1 

-0.149318 0.0565573 -0.307403 
-0.0948842 0.0496269 -0.392701 
-2.10709e-18 -7.67557e-18 1 

-0.122697 -0.0103246 0.119312 
0.0256617 -0.0138354 -0.107599 
-2.82268e-18 1.48922e-17 1 

-0.136132 0.0850029 -0.126436 
-0.0125111 -0.0649535 -0.0556789 
4.1606e-18 3.81488e-18 1 

-0.72532 0.391474 2.15053 
-0.409566 0.342821 -0.840919 
1.39943e-19 -8.67646e-18 1 

-0.0726336 -0.347644 0.163968 
0.351929 0.0609797 0.199679 
5.96433e-18 -7.35138e-18 1 

-0.388075 -0.385526 1.72531 
0.874221 0.0621911 0.33408 
-1.10497e-17 -2.40807e-17 1 

-1.77981 -0.839173 0.840895 
0.108973 0.588335 0.455524 
-1.63132e-17 -1.62006e-18 1 

-0.107399 0.0629356 -0.0339416 
-0.0677861 0.0180688 -0.035658 
-7.7505e-19 5.19493e-18 1 

-0.990841 -2.85722 -6.50091 
0.156022 0.650228 0.892915 
1.76875e-17 -4.32954e-18 1 

-0.154115 -0.0185276 -0.774992 
0.00492536 -0.0195236 -1.80807 
-3.09946e-19 -1.03103e-17 1 

-0.143291 -0.0443019 0.0961882 
-0.0684864 -0.123475 0.067732 
-4.94159e-18 -1.50141e-17 1 

-0.173871 0.0315528 -0.0408158 
-0.0828441 -0.0168026 0.0168389 
9.17644e-18 5.66402e-18 1 

-0.164838 0.213727 0.448379 
0.0792257 0.0555603 -0.0832116 
6.82824e-18 -8.24125e-18 1 

-0.32478 -0.757837 0.11581 
0.764305 0.540368 1.84024 
-7.20319e-18 -6.80714e-19 1 

-0.233769 0.108539 -0.752491 
0.0996225 -0.0491222 0.662318 
-1.32621e-17 -1.57051e-18 1 

-0.397011 0.104262 0.0713356 
-0.503208 0.266097 -0.0490654 
-2.34365e-18 -4.99979e-18 1 

-3.88683 -9.56237 -5.35221 
0.450318 1.18412 -0.481048 
-6.46607e-18 4.54373e-18 1 

-0.484855 1.24985 -6.40021 
0.458328 0.18621 2.14939 
2.06553e-18 -3.22911e-18 1 

-3.23984 0.809031 -3.31747 
-1.40715 1.01632 -2.1833 
-1.57967e-17 -3.29098e-19 1 

-0.367872 0.29957 1.62567 
-0.0789543 0.234136 0.335127 
-8.57423e-19 -1.00569e-17 1 

-0.22978 0.0574132 -0.148497 
-0.190744 0.102213 0.600557 
1.34534e-17 -6.86138e-18 1 

-0.221341 0.180811 -0.567779 
-0.438962 0.119204 0.993489 
1.70428e-17 -3.47708e-18 1 

-0.14178 -0.00800425 -0.431474 
-0.0310684 -0.00168548 -1.35578 
-1.27181e-18 -6.9078e-18 1 

-1.33043 -0.13701 0.16729 
0.35753 0.767569 0.454451 
-7.16618e-18 -3.23898e-17 1 

-0.0803233 -0.188066 0.12735 
0.134734 -0.0296657 0.0689753 
7.96035e-18 7.70142e-19 1 

-0.510711 0.251578 6.84122 
-0.218627 0.21306 3.86141 
-1.48094e-17 1.28511e-17 1 

-0.102509 -0.00355732 -0.0434836 
0.0321892 -0.00903958 -0.0296543 
-2.03194e-19 -6.88321e-18 1 

-0.207928 -0.213743 0.0726795 
0.180751 0.00207184 -0.138834 
4.26564e-18 1.32609e-17 1 

-0.104945 -0.0976154 0.0745866 
0.0676654 -0.00846107 0.0270029 
-6.05396e-18 -1.91851e-18 1 

-0.07649 0.0124878 -0.152443 
-0.023402 -0.0267438 0.0271897 
8.3416e-18 -6.88731e-18 1 

-0.229837 -0.165596 0.33017 
-0.13039 0.16815 -0.256329 
-1.08455e-17 -2.89329e-18 1 

-0.737999 -0.704393 1.05195 
0.292341 0.295832 -0.93449 
6.89027e-18 6.3861e-18 1 

-0.113054 0.0102877 0.871115 
0.119023 -0.0493464 -0.691407 
2.11172e-18 -4.54019e-18 1 

-0.209755 0.0338748 -1.84566 
-0.029727 0.0578905 -0.130691 
-1.07594e-17 4.23857e-18 1 

-0.0579272 0.140345 0.132093 
-0.0487616 -0.0114101 0.232821 
-9.40653e-19 -1.03106e-17 1 

-0.190895 0.00426168 8.15314 
-0.00907606 0.0450776 2.04374 
2.32785e-18 8.02474e-18 1 

-0.23938 0.096151 -0.405274 
-0.0559198 0.0442185 0.156388 
-2.53259e-18 2.00716e-17 1 

-0.163294 -0.0851755 -0.00247149 
0.050301 -0.0385566 -0.0205686 
-2.77941e-18 9.33701e-18 1 

-0.171794 -0.0204502 0.78545 
-0.00640909 -0.0122231 -0.182918 
-1.92015e-18 3.62466e-18 1 

-0.159894 0.0136814 0.0451607 
0.00124906 -0.053609 0.0138504 
6.19661e-18 -5.2768e-18 1 

-0.333243 -0.0799603 -1.16849 
0.309362 0.28951 -0.368281 
1.93224e-17 -7.83169e-18 1 

-0.325816 -0.0430034 1.80196 
-0.179442 0.0516078 0.0483038 
1.21909e-17 -2.1275e-17 1 

-0.145183 0.00302753 0.0514038 
-0.00824657 0.00848886 0.178563 
4.11117e-18 2.36226e-18 1 

-2.18759 -3.72095 23.1469 
-0.0487588 0.591908 5.84849 
-4.76745e-18 -1.07572e-17 1 

-6.61129 3.89287 1.7197 
-0.265154 0.81018 2.70721 
-2.01432e-17 -5.32522e-18 1 

-0.451862 -0.176422 24.1357 
-0.23952 0.372488 -13.6158 
-7.19927e-18 2.22869e-17 1 

-0.275538 0.0330192 -0.472258 
-0.0969724 -0.296904 0.697041 
-6.53639e-18 7.15183e-18 1 

-1.82421 0.642478 -1.56874 
-0.508373 0.856599 0.481293 
4.36303e-18 2.11607e-17 1 

-0.529558 -2.07702 431.639 
0.123567 0.413461 64.8378 
-1.36555e-18 8.19794e-18 1 

-0.593656 0.271035 0.406353 
-0.0943064 0.171119 -0.101129 
9.67275e-18 4.75975e-18 1 

-1.17464 -0.269642 1.53516 
0.259995 0.373791 -0.330508 
-2.3738e-17 -7.39575e-18 1 

-0.0739091 0.0207419 -0.0300423 
0.00723533 -0.0706438 -0.0529294 
-1.41555e-17 1.63245e-17 1 

-0.11256 -0.088097 -0.222448 
0.0499645 -0.0299008 -0.0603193 
6.29373e-18 -2.85372e-18 1 

-0.112196 -0.0448651 -0.0347789 
0.036664 -0.0764686 0.123084 
8.81222e-18 -1.21292e-18 1 

-0.217749 -0.054241 -0.00754219 
0.0160552 0.00781163 -0.25529 
4.10472e-18 -9.87726e-18 1 

-0.137864 0.0221337 0.0681322 
-0.0431998 -0.0292251 -0.00676517 
4.51353e-18 1.29764e-17 1 

-0.0882098 0.0347197 -0.123311 
-0.0106819 -0.0236405 -0.151463 
4.83274e-18 2.00382e-18 1 

-0.57828 -0.07707 0.0712809 
-0.213279 0.314011 -0.362171 
0 -8.44155e-18 1 

-0.771202 -0.339222 -0.296045 
-0.207788 0.29872 0.959723 
-1.65157e-17 -1.65157e-17 1 

-0.178 -1.07726 -1.42552 
0.934725 0.945038 0.162967 
-4.50614e-19 1.49829e-17 1 

-0.253941 0.695226 -1.5207 
0.151041 -0.00563846 0.81295 
-1.00069e-17 -1.27106e-17 1 

-0.553381 0.0623207 0.0980058 
0.0973705 0.241181 0.393141 
1.04221e-18 7.81661e-18 1 

-0.168741 -0.0130241 0.0474192 
-0.0116535 -0.0372113 -0.118226 
3.08638e-18 -2.38001e-18 1 

-0.246056 -0.174973 0.715039 
0.0191706 0.0982633 2.07843 
7.77917e-18 9.44859e-18 1 

-0.176458 0.0318836 -0.242093 
0.0140109 -0.126788 -0.113969 
8.98004e-18 -1.4121e-18 1 

-0.430438 -0.264088 -2.0194 
-0.00104772 0.249592 -0.962428 
8.22625e-18 -1.41652e-17 1 

-1.68562 -1.00282 -0.344757 
0.419757 0.544497 0.756926 
5.35678e-19 -4.76159e-19 1 

-0.624991 -0.0825809 -1.73905 
0.48106 0.260032 1.47684 
1.19797e-17 4.40101e-18 1 

-0.138818 0.0240776 -0.490844 
0.0024991 -0.0354729 -0.465527 
-1.9046e-18 -5.5761e-18 1 

-0.391422 -0.0902922 0.0471539 
0.183354 0.0488048 -0.416677 
1.8317e-19 1.66074e-18 1 

-0.179432 -0.0227813 -0.0271166 
0.00191806 -0.0433287 0.175452 
6.42519e-18 1.82786e-18 1 

-0.185913 0.014739 0.370695 
-0.108874 -0.0219829 0.249252 
3.42582e-18 5.45836e-18 1 

0.0187829 0.00515803 4.72683 
0.378782 0.196473 2.0373 
-1.72298e-17 -3.45952e-18 1 

-0.137762 -0.00947916 -0.398913 
-0.0399994 -0.0185237 0.0777334 
-4.42743e-18 1.84035e-18 1 

-2.20487 0.167313 18.6822 
-0.054952 0.750491 6.28392 
-1.49576e-17 1.74885e-17 1 

-0.0412109 -0.426925 0.16625 
0.430516 -0.0197109 0.0495223 
-4.44226e-18 6.13606e-18 1 

-0.207689 -0.0893312 -0.0487152 
0.145835 0.00704454 0.112632 
5.26939e-18 7.42168e-19 1 

-2.56611 -2.57965 -2.21099 
0.1487 0.956779 0.931062 
-1.3314e-17 2.76053e-17 1 

-3.02432 3.2254 9.05953 
0.79666 0.156163 -2.60283 
1.51836e-17 1.05442e-17 1 

-0.369777 -0.546315 -0.312659 
0.784961 0.201078 -0.624474 
-1.4882e-18 -1.39692e-17 1 

-0.249515 -0.58267 0.630621 
0.00988279 0.817918 1.35499 
-2.02595e-18 4.57138e-18 1 

-0.646575 0.477369 0.625404 
-0.584874 0.257993 0.606748 
-2.47141e-17 -1.79739e-17 1 

-0.455688 -0.274504 0.358252 
0.213481 0.120098 -0.625804 
-2.77164e-18 7.47138e-18 1 

-0.457329 0.138327 0.212061 
-0.328365 0.137654 0.155142 
-1.49691e-18 1.27101e-17 1 

-2.21948 -0.800019 6.17066 
0.277162 0.560761 -2.46073 
1.57074e-18 1.7782e-19 1 

-0.00105357 0.566847 -0.00161012 
-0.468609 0.0560468 0.33264 
-6.95438e-19 -1.1796e-18 1 

-0.11202 0.00575082 0.105679 
-0.00438698 -0.0291127 -0.0539027 
4.38413e-18 5.28675e-18 1 

-1.10072 0.213939 0.582481 
-0.209828 0.259705 -0.449145 
-4.97332e-18 1.08116e-19 1 

-1.06224 -6.95568 -1.97762 
0.89824 3.50722 0.881498 
-1.39808e-17 6.79731e-18 1 

-0.147806 -0.101958 0.132755 
0.00625748 -0.0563996 -0.412012 
3.42963e-18 -4.79727e-18 1 

-0.241665 -0.0300065 0.0184677 
0.115377 0.124936 0.27526 
1.11233e-17 1.07841e-18 1 

-0.111907 -0.0101058 -0.266454 
0.0915799 0.0349596 0.868149 
4.88571e-18 -5.6852e-18 1 

-0.100906 0.00806357 -0.0685893 
0.0208767 0.000700708 0.0347237 
-4.05534e-18 -6.97692e-19 1 

-0.793473 -0.868073 8.71113 
0.607625 0.228179 -5.14377 
-3.21157e-18 6.86714e-18 1 

-0.214086 0.657837 0.346255 
-0.60492 0.379342 -0.749987 
1.80233e-18 -7.17328e-18 1 

-0.216549 -0.0087883 -0.189231 
0.0152212 0.0905494 -0.276641 
-8.81205e-18 7.87482e-18 1 

-0.304419 -0.14989 0.0261388 
0.0220875 0.053656 0.425227 
4.40187e-19 -3.11543e-18 1 

-0.0910986 0.0991935 -0.0928759 
0.0492314 -0.0432648 -0.628755 
-1.89503e-17 8.84347e-20 1 

-0.171202 -0.0266229 0.317133 
-0.0455181 0.0774203 -0.116392 
-3.08958e-19 -5.56124e-18 1 

-1.52678 1.1092 2.26033 
0.066893 0.370963 0.765989 
1.16008e-18 -1.55759e-17 1 

-0.327065 0.269875 -0.959818 
-0.112033 0.10925 1.66346 
-9.39095e-19 -4.78364e-18 1 

-0.17221 0.0657587 0.147017 
0.00968495 -0.0209315 -0.142746 
7.02735e-18 -2.43615e-17 1 

-0.0742763 -0.19101 0.180476 
0.394875 0.0843595 0.593776 
-1.40515e-17 -1.77867e-18 1 

-1.62007 -0.0655446 -0.260554 
-0.338403 0.64073 -1.69452 
-3.34958e-18 -2.59593e-18 1 

-0.0532337 -0.589364 0.502314 
0.40809 0.0747959 0.895017 
1.05935e-17 1.02086e-17 1 

-0.625471 -0.337838 -6.82878 
-0.106462 0.174625 0.815755 
1.46369e-17 1.36523e-17 1 

-1.3266 -0.988327 -1.47429 
-0.135806 0.279179 3.72071 
-8.74521e-18 4.05154e-18 1 

-0.14841 -0.056744 0.166988 
0.0473214 -0.019896 -0.0856753 
-3.5974e-18 -9.72013e-18 1 

-0.24952 -0.20326 -12.1086 
0.0511633 0.182029 -11.4283 
-2.21445e-18 -5.05481e-18 1 
