# vtk DataFile Version 3.0
Output file generated by Yade's KinematicLocalisationAnalyser
ASCII
DATASET UNSTRUCTURED_GRID

POINTS 13483 float
658.713 27.2094 -0.467414
866.446 44.1349 -0.464056
129.366 6.00173 -0.449958
915.014 4.3166 0.384258
536.099 7.59627 -0.300593
337.238 34.44 0.276634
168.208 6.78185 0.414263
614.755 9.97457 0.139919
532.862 22.2456 0.144416
800.055 12.0432 -0.370753
225.903 8.85343 -0.109625
275.451 6.27675 -0.268195
713.058 27.4674 -0.191992
689.239 13.7842 0.0734006
147.381 16.8738 0.416756
237.638 34.0816 0.399945
233.515 12.8079 -0.275157
309.444 9.41677 0.386867
365.033 32.1731 -0.0828642
564.145 8.51678 0.34744
440.455 36.1825 0.096553
640.265 42.8524 0.262987
910.652 29.6247 -0.478679
770.143 40.7694 -0.440146
492.43 15.9489 0.295759
258.114 43.6668 -0.122567
527.88 26.935 -0.489811
633.937 18.8697 0.220817
48.5059 15.3692 -0.460392
794.655 30.2184 -0.246175
517.789 4.88109 0.318453
18.0273 22.8229 0.27575
881.177 40.3892 0.245532
531.698 2.46373 0.4878
84.0321 43.5324 0.100233
560.788 29.5767 0.326233
570.956 16.4687 -0.406611
368.624 22.16 -0.176958
574.334 25.0662 -0.320903
376.054 32.5431 -0.408341
258.496 14.5582 0.308491
465.921 34.9401 -0.0563414
743.874 6.85064 0.0938027
207.249 6.14863 0.378793
59.6055 6.86529 -0.122788
73.5433 8.82249 -0.274475
762.5 8.40166 -0.446897
25.388 11.5676 -0.280689
662.939 43.0666 0.268956
745.441 22.5405 0.339091
185.602 31.8523 -0.291182
860.559 32.3936 -0.13644
37.6959 27.7773 -0.114252
575.079 2.94079 0.323388
152.974 7.27638 -0.453251
642.848 32.6043 0.390259
542.105 25.9913 -0.144658
187.9 0.923213 -0.258533
35.2256 2.38779 0.302603
373.875 17.4801 0.284053
675.44 43.6984 -0.132045
496.406 33.0045 0.1796
428.498 1.02996 0.188074
775.336 7.57563 -0.318933
28.4852 42.3499 -0.234888
275.006 30.1298 -0.304822
800.13 7.41538 0.187577
736.63 42.6005 0.363905
448.237 8.53815 -0.475397
615.617 3.47887 -0.344998
835.742 28.1881 0.43272
140.855 7.52535 0.282199
535.795 25.1232 -0.135395
513.235 14.7028 -0.133854
316.132 16.482 -0.279254
22.4877 13.4951 -0.257311
888.334 31.0191 0.368652
357.006 38.2426 -0.274345
742.461 19.3784 0.313442
762.389 12.3974 0.219808
898.494 10.7327 -0.215941
500.041 33.9603 -0.170089
99.4655 37.4972 -0.261026
755.884 32.5402 0.214635
709.408 36.8239 -0.101325
919.169 35.7159 0.120104
890.995 0.812301 -0.473929
312.66 28.4639 0.439122
677.316 6.27766 -0.106193
26.2276 5.16885 -0.454447
142.982 37.4119 -0.15095
552.515 14.1508 0.19691
878.37 23.3336 -0.515928
210.474 28.2428 0.226582
47.871 33.8293 0.270945
530.555 1.1594 0.115265
253.623 8.86123 -0.349815
838.991 36.9835 -0.282215
865.008 24.7322 0.251287
388.593 20.3723 -0.251021
176.867 26.43 -0.463232
594.498 37.2667 0.425632
408.916 15.1257 -0.440765
445.008 29.2315 0.113345
407.063 4.44753 0.40776
592.32 10.8086 -0.0899337
919.588 11.1723 0.211314
86.4591 38.4625 0.389072
360.923 4.75263 -0.176096
607.845 9.33507 -0.328107
387.605 42.8953 0.440722
27.9777 24.2875 -0.448621
32.8646 5.75364 -0.328852
616.747 31.5187 -0.391025
545.267 23.6368 0.147309
28.4934 36.4789 0.410367
100.53 29.9181 -0.215337
350.163 15.6976 -0.30321
653.546 18.2828 0.121234
512.926 37.2271 0.309613
820.279 7.56265 -0.343532
810.943 6.18688 -0.197775
417.15 36.6756 0.0960489
696.138 24.4895 -0.102692
257.12 16.8383 0.478556
355.848 3.6764 0.46305
111.94 30.7362 0.339374
125.854 23.7664 -0.263615
589.482 37.8095 0.0768507
330.029 18.6237 0.462428
789.096 33.1991 -0.101777
741.214 41.9177 -0.114787
519.369 20.2684 -0.382882
869.343 8.56745 0.343034
463.216 22.8928 0.217657
298.738 23.9361 0.304401
743.816 29.4063 -0.186257
301.034 27.8709 0.367137
627.178 11.4476 -0.19054
358.167 34.9402 0.189322
546.418 11.31 0.443398
396.253 30.6924 -0.0851887
465.589 16.3569 -0.106106
343.653 41.1759 0.322211
206.37 29.1981 0.121984
872.212 41.8248 0.166273
915.459 11.7372 -0.336202
6.49159 11.9543 -0.470583
469.784 21.9766 -0.409701
41.5037 22.2223 0.0746989
406.944 30.6381 -0.45551
427.183 24.4354 -0.245763
81.0729 11.7873 0.445154
56.1584 32.681 -0.358779
244.578 13.1695 0.43245
676.977 37.214 0.347259
630.185 19.7343 -0.467344
81.2874 20.5647 0.48497
773.461 44.2367 0.408939
854.44 2.42504 0.412848
728.369 38.9878 -0.446649
770.315 2.33319 0.37987
599.072 25.9699 0.394485
641.747 43.6525 -0.434306
556.603 17.6511 -0.393105
912.305 3.10612 0.364267
242.32 24.342 0.113387
138.456 34.3555 0.189777
267.902 6.49156 -0.364847
102.618 4.08064 0.250314
69.675 9.98547 0.184205
298.881 35.2607 0.299345
18.2244 24.649 -0.355464
605.432 18.8963 -0.395525
662.879 37.9767 0.205358
502.119 20.8127 -0.368177
902.088 37.103 0.386316
441.031 8.46098 0.0834877
472.888 35.1719 -0.36093
584.057 3.42929 -0.181171
24.9808 23.6743 0.385037
630.09 4.28781 -0.362636
594.542 4.33215 -0.285048
224.047 11.3409 0.481908
461.425 16.2144 -0.19061
337.678 6.30877 0.318909
420.96 18.7885 -0.312913
824.975 40.2129 0.116287
208.733 25.2701 0.405261
882.536 6.9123 -0.300787
823.96 36.432 0.343742
416.001 10.053 -0.18461
796.813 2.39537 -0.400379
662.872 24.5812 0.39002
828.973 17.6863 -0.408147
467.814 41.8187 -0.266281
540.198 12.314 0.334106
505.69 43.3455 -0.220255
484.07 8.56821 0.131009
732.062 37.9153 -0.274114
729.685 34.4803 0.34406
208.912 38.3245 -0.332724
896.28 10.6356 -0.140788
644.14 43.963 0.241686
12.249 16.8171 0.177831
442.317 24.9884 0.353166
203.592 22.6517 0.391173
101.161 38.3625 0.194357
876.016 20.8419 0.433681
724.994 42.7128 0.231669
346.47 25.0788 0.360577
580.71 10.1158 0.32267
89.4422 43.4421 -0.160993
268.996 25.6782 -0.473269
608.499 22.9077 0.348258
529.333 18.1174 0.434754
285.458 0.889404 -0.342516
604.414 38.9002 -0.364004
582.427 39.995 -0.445986
524.733 32.4814 0.379904
543.453 0.775646 -0.487709
781.901 17.9068 -0.326221
195.535 11.7617 -0.167297
545.163 35.4505 0.441341
617.737 38.6045 0.113846
79.0859 0.946025 0.274238
273.541 4.68714 0.16896
914.717 13.6246 0.206795
898.85 12.7153 -0.386512
922.035 15.4697 -0.614064
329.736 8.46636 -0.231109
836.491 21.4086 0.396664
442.701 40.569 -0.33188
488.423 0.813268 -0.398692
716.203 34.0335 0.517319
29.6327 30.1773 0.303466
359.284 40.6231 0.462435
274.434 2.82814 0.307633
884.383 37.5015 -0.245212
793.581 45.2463 0.22656
312.315 10.7658 0.191496
736.655 27.876 0.0908437
609.505 2.64907 0.263627
592.22 6.389 0.413684
105.512 17.7987 -0.458986
329.6 1.03623 -0.221586
373.42 2.25642 -0.367119
15.2118 7.63119 -0.248258
4.7325 30.1994 0.245737
176.411 18.6601 -0.370394
74.2626 40.9438 -0.211113
72.7921 28.2396 -0.328202
460.96 14.401 -0.393837
399.351 34.3465 -0.459279
858.386 34.302 0.128781
21.3411 3.95849 0.281564
76.7546 6.80415 0.129048
688.155 36.5913 -0.146373
320.642 0.931403 0.318949
397.005 15.7941 -0.0933174
256.467 4.60777 -0.377974
721.255 20.8425 0.16889
491.77 8.27638 0.403834
839.727 19.3224 -0.345153
695.372 27.8703 0.314599
741.645 17.429 0.0978549
457.345 26.0472 0.466251
111.17 43.8304 0.304248
593.452 41.0876 0.0704511
826.101 13.2112 -0.161585
258.843 29.8381 -0.250485
35.2336 16.8517 0.149234
366.022 13.5498 0.487122
117.544 39.5178 -0.464622
291.372 41.5913 -0.193259
463.194 1.07967 0.164625
885.255 27.6003 -0.409937
762.492 0.803793 -0.479756
361.545 3.07285 0.475047
326.459 26.1593 0.134699
504.437 40.2261 0.204779
88.7793 8.00555 -0.445968
215.774 44.3803 0.377724
867.754 27.1137 0.379152
540.011 38.1552 -0.0825292
218.049 40.8702 -0.250305
175.44 41.4543 -0.13052
922.154 31.764 -0.517039
917.875 11.0975 -0.524863
666.435 3.55139 -0.490151
207.33 24.0777 -0.096264
601.145 26.9399 0.11045
603.184 26.6495 -0.258961
445.801 5.5609 -0.136511
525.279 0.931832 -0.277349
856.167 36.2145 -0.499666
92.7878 30.2663 0.218392
727.262 17.8324 0.417377
298.844 15.3765 -0.333077
10.8184 2.31131 0.338421
136.956 36.1202 0.191793
73.154 22.5635 0.445532
781.646 35.0539 0.302395
890.645 42.2692 0.169541
202.509 27.7233 0.178075
910.126 11.5144 -0.297565
49.1304 35.7631 -0.255744
99.3479 28.3124 -0.159792
699.79 12.7103 0.441242
450.536 18 -0.476012
567.558 16.4126 0.116455
259.447 27.9216 0.14043
684.881 4.46667 -0.406067
922.49 10.6854 0.354192
32.6505 31.196 -0.273271
294.267 7.68967 0.184797
242.26 14.902 0.257542
1.10887 34.7315 0.146458
245.67 14.3538 0.365194
230.921 10.9169 0.107077
233.826 25.9571 -0.281464
145.249 27.3246 -0.145903
599.331 14.7843 -0.333724
182.65 13.9951 0.328267
878.625 39.005 -0.0620453
190.12 3.78286 0.475819
51.7689 37.0771 0.351924
832.234 46.027 -0.426338
306.111 31.1115 -0.382984
752.051 22.2447 0.432592
896.254 27.8211 -0.490747
327.766 9.10542 0.0999369
821.929 28.4155 -0.328003
358.253 2.62489 -0.358516
453.682 23.604 -0.364265
748.356 15.8087 -0.416071
115.465 11.6395 -0.416233
527.014 3.9589 -0.459895
843.607 17.0949 -0.208621
96.4925 7.62472 -0.18664
306.941 14.4752 0.197498
461.772 11.5698 -0.18971
910.601 2.72699 0.407651
433.763 1.87611 -0.478684
193.327 38.1408 -0.281408
829.02 10.2745 -0.315564
140.308 35.4605 0.185744
286.684 30.9363 -0.393501
436.719 21.3728 0.214999
629.763 13.1764 -0.321844
422.226 9.73707 -0.442339
498.176 27.2078 -0.31573
867.685 43.8257 0.368867
51.99 10.81 -0.107766
326.233 37.863 -0.254915
413.958 26.6198 0.345071
446.517 20.6783 0.254586
570.228 43.4945 0.356514
848.593 34.4008 0.25511
735.737 33.6043 -0.363596
246.251 33.5731 -0.388319
15.2408 30.7171 0.156944
727.922 35.3893 -0.131957
556.458 40.1815 0.427347
250.543 38.4886 -0.0934509
759.994 29.6753 -0.126402
165.355 9.11748 0.200964
399.915 20.8342 0.299215
506.269 41.2582 0.0991391
451.729 19.2613 0.200099
862.92 46.1265 -0.290955
464.669 3.35758 0.4133
54.5557 24.7471 -0.288174
513.368 30.9545 0.342262
474.613 41.1945 0.358077
881.964 33.1857 -0.234254
818.95 27.5017 -0.240741
592.608 18.1306 -0.175784
872.211 34.9316 0.253988
319.71 2.04517 -0.427472
412.66 28.9896 0.468202
31.7859 38.2127 -0.291685
825.151 29.046 0.150714
671.803 19.3844 -0.479186
505.614 0.776217 -0.484575
138.259 4.4367 0.285403
465.894 39.2454 -0.111495
13.3773 0.903415 -0.317343
909.574 5.43377 0.196723
403.906 38.458 -0.395848
[...]
POINT_DATA 13483
TENSORS Strain_matrix float
-0.0935235 -0.0220765 -1.31259 
0.0234988 -0.0300524 -0.642628 
-1.73816e-18 1.07274e-17 1 

-0.132958 -0.166707 4.21737 
0.0459314 0.0898067 -4.52367 
-8.07413e-19 -8.38582e-18 1 

-0.0495312 -0.00268941 0.146423 
-0.00419995 -0.0673475 0.226401 
-4.98746e-18 4.57283e-18 1 

-0.342812 -0.0260838 0.33004 
-0.0716749 0.0723013 0.831599 
2.11002e-17 -2.34736e-18 1 

-0.0929857 -0.0282973 0.0392361 
0.00703094 -0.0635756 0.0286902 
-4.82366e-18 3.51288e-18 1 

-0.0460738 -0.02401 -0.00105701 
-0.0134815 -0.0438969 -0.0257146 
0 1.02055e-17 1 

-0.0639197 -0.0333782 0.216569 
0.00957786 -0.0745834 0.0295429 
-6.73385e-19 -6.83485e-18 1 

-0.0594704 0.0196827 -0.0783713 
0.00932949 -0.0659244 -0.0306268 
1.10958e-18 -2.56013e-18 1 

-0.0565792 0.0296297 -0.311405 
0.084598 -0.0351974 -0.247525 
3.24983e-18 7.49962e-18 1 

-0.143652 0.0300949 -0.0179268 
0.0179052 -0.031063 -0.106726 
8.56495e-18 -1.428e-17 1 

-0.0449532 0.0271411 -0.158813 
-0.0081893 -0.0672031 0.109915 
1.55101e-17 -7.83705e-18 1 

-0.0507925 -0.0303937 0.162707 
-0.0643258 -0.092824 0.0162853 
-1.13152e-17 -4.32117e-18 1 

-0.134508 0.0183537 -0.260386 
-0.028136 0.0031918 -0.207764 
-6.13961e-18 2.08479e-18 1 

-0.113474 0.00604711 -0.231644 
0.00527985 -0.0448405 0.189791 
-1.06986e-17 -7.99666e-18 1 

-0.0638178 -0.00398196 -0.1079 
0.00879002 -0.0683089 0.124828 
7.98775e-18 -8.57776e-18 1 

-0.0360341 -0.0308307 0.374317 
-0.0254815 -0.036766 -0.0472647 
3.29814e-19 -2.5672e-18 1 

-0.033679 -0.0196377 0.115208 
-0.00529855 -0.117671 -0.016026 
-1.04748e-18 1.02877e-19 1 

-0.089658 0.00047826 0.0821662 
0.0177809 -0.0863448 0.00550433 
-1.0287e-17 4.64916e-19 1 

-0.079821 -0.061324 -0.250843 
-0.0429923 0.00483604 0.239291 
3.05789e-19 2.21697e-18 1 

-0.0634965 0.0395963 0.019882 
-0.0575472 -0.0913028 0.0045159 
4.51751e-18 -1.53915e-18 1 

-0.056368 0.0198865 -0.107333 
0.018318 -0.0219006 -0.0272094 
-5.88838e-19 1.88428e-18 1 

-0.115323 0.0254117 0.212528 
0.057312 -0.000392172 -0.142513 
-7.20884e-18 -7.75839e-18 1 

-0.305248 0.0136717 0.174272 
0.10559 0.159135 0.925526 
8.26217e-18 6.17835e-18 1 

-0.070559 -0.00887325 0.00839157 
-0.00552797 -0.00823974 0.503654 
4.01487e-18 -7.27221e-18 1 

-0.0377455 -0.0128969 -0.22928 
0.0831615 -0.053076 0.0244032 
6.23841e-18 -8.64267e-18 1 

-0.0201589 0.0159915 0.205566 
-0.0729818 -0.0446093 0.192916 
-9.34402e-19 -1.6949e-17 1 

-0.0690492 -0.00879552 -0.15876 
-0.00583994 -0.0352975 0.275723 
3.56687e-18 -1.37518e-18 1 

-0.116 -0.00838591 -0.00937898 
0.029445 -0.0332332 -0.187541 
-1.47097e-17 5.98159e-19 1 

-0.0505055 0.0164737 0.838129 
0.0301514 -0.0855478 -1.14529 
1.54795e-18 8.82049e-18 1 

-0.142741 -0.00235326 -0.0309011 
0.0119816 0.00362481 0.00840847 
4.12245e-19 -1.50469e-17 1 

-0.0573213 -0.0232909 -0.264995 
0.00426283 -0.154235 0.406526 
-8.12095e-18 5.53701e-19 1 

-0.0608108 0.0398929 0.131922 
0.12306 -0.0778458 0.191863 
-1.91362e-18 3.42672e-18 1 

-0.209542 -0.041696 -0.276569 
-0.0428901 0.0737033 0.32001 
-1.28822e-17 -2.59568e-18 1 

-0.0821767 0.0192731 -1.48733 
-0.00642933 0.0159141 -1.3607 
-2.83536e-18 -1.09308e-17 1 

-0.0256136 -0.0201341 -0.00202252 
-0.0547626 -0.121523 -0.179991 
5.45014e-18 3.69717e-18 1 

-0.0777117 -0.0473441 -0.198217 
0.0398972 -0.0208534 0.487575 
4.72878e-18 -8.57381e-18 1 

-0.0643126 0.00204933 -0.0310828 
0.00442771 -0.0525324 -0.292131 
-2.35567e-18 -5.78079e-19 1 

-0.0123847 -0.00993825 -0.0441687 
-0.00609837 -0.0876828 0.368357 
3.22027e-18 5.41824e-18 1 

-0.0606077 -0.042457 0.0487164 
0.0816323 -0.0388468 0.0913651 
-4.24004e-18 6.74551e-18 1 

-0.0365411 -0.0257967 0.165317 
3.39286e-05 -0.0528163 0.220259 
-1.32595e-17 -8.9261e-18 1 

-0.0461206 0.0390899 -0.0182208 
-0.036461 -0.0914202 -0.181307 
2.84098e-18 -3.37005e-18 1 

0.00651377 -0.00929568 0.215476 
-0.0678229 -0.0442888 0.142451 
-9.0288e-19 -7.5658e-18 1 

-0.148719 -0.0236973 -0.0439616 
-0.0259403 -0.043253 0.0642039 
2.2692e-18 1.69159e-18 1 

-0.0312908 -0.0373817 0.0688925 
0.00482563 -0.0936128 -0.0292126 
2.26268e-17 2.8515e-18 1 

-0.0401543 0.0147128 -0.0254953 
-0.0166456 -0.10944 0.143389 
-1.18072e-17 6.80418e-19 1 

-0.0377173 0.00587863 -0.0254538 
-0.0181635 -0.076809 0.00936916 
1.42813e-18 -1.27812e-18 1 

-0.118201 0.0376364 -0.187289 
-0.0353786 -0.0687968 -0.640708 
4.32083e-18 4.28607e-18 1 

-0.0404597 0.0195892 0.017716 
-0.0270571 -0.0772763 -0.0151265 
3.5686e-18 1.00033e-17 1 

-0.100188 0.0209652 -0.0627358 
-0.00779437 0.0246116 -0.112547 
-5.10145e-18 8.71498e-18 1 

-0.0857392 0.0305037 0.20681 
-0.0122969 -0.0443614 -0.614687 
-4.28363e-18 1.09405e-17 1 

-0.0533219 -0.0120341 0.153918 
-0.0251946 -0.0151405 -0.146092 
2.8356e-18 1.46099e-17 1 

-0.101028 -0.0396352 -0.08914 
0.0360326 -0.0350028 -0.153924 
-4.08629e-18 7.00989e-18 1 

-0.075391 -0.00756049 0.0250868 
-0.00311558 -0.0111404 0.0778974 
1.68405e-18 -3.36809e-18 1 

-0.0843876 0.019664 0.0659993 
0.00117828 -0.0615479 -0.0748107 
5.83005e-18 -2.77233e-18 1 

-0.0526842 -0.00497897 0.101338 
0.0145694 -0.109086 -0.178937 
-8.6249e-18 -1.8546e-18 1 

-0.0754137 0.0104467 -0.321885 
-0.018356 -0.0320447 -0.357281 
-2.04286e-17 -7.69625e-18 1 

-0.0938511 -0.0128944 0.0193496 
0.0427908 -0.0184221 0.0788548 
7.25157e-18 8.04747e-18 1 

-0.050532 -0.0748207 -0.0689055 
-0.00574783 -0.174344 -0.115224 
-3.56127e-19 -6.61679e-17 1 

-0.0230392 0.00266039 -0.0426248 
-0.0263369 -0.141328 0.0944747 
-1.73697e-18 -7.80639e-18 1 

-0.0460124 0.00850561 0.0223354 
-0.0539739 -0.076788 -0.393904 
1.71641e-18 2.27208e-18 1 

-0.0591722 0.162904 -0.122869 
0.0220903 0.0166451 0.0769806 
2.65973e-18 2.61405e-17 1 

-0.0654173 -0.0275614 0.242419 
0.0252303 -0.0115519 0.369477 
-2.93871e-19 -6.13865e-18 1 

-0.0625228 -0.0382902 -0.173123 
0.000287876 -0.0420016 -0.0414369 
3.72098e-18 -3.83323e-17 1 

-0.0886992 -0.0383243 -0.0226158 
0.0348636 -0.0558283 -0.161944 
-1.17895e-18 6.38601e-19 1 

-0.0389587 0.0268112 0.167142 
0.0177064 -0.0785497 0.288615 
-2.92907e-18 -7.34749e-18 1 

-0.120198 0.0239191 -0.0423932 
-0.0190797 -0.0296755 0.05932 
1.06697e-17 -3.05601e-18 1 

-0.11313 0.0527056 0.0361377 
0.0241563 -0.0695782 0.0621388 
-5.27028e-18 7.70272e-18 1 

-0.108743 0.0150141 -0.374821 
-0.00673046 0.0224635 0.310811 
-4.05789e-18 2.52943e-18 1 

-0.0740209 -0.00336384 0.286785 
-0.0432513 -0.0882633 0.450716 
2.05971e-18 -9.70603e-18 1 

-0.111676 -0.0111092 0.0928569 
-0.0216297 -0.0973897 0.095733 
3.31201e-18 -5.76786e-18 1 

-0.167835 -0.00912411 0.570929 
-0.100744 -0.0513004 -0.43506 
-1.44273e-17 -2.95642e-18 1 

-0.0227883 -0.00447259 0.0238835 
0.00433798 -0.0875019 0.133586 
-4.46513e-18 -3.22482e-19 1 

-0.0540316 -0.0226535 -0.205074 
-0.00145547 -0.0447621 0.118812 
-1.11028e-17 1.00636e-17 1 

-0.053016 -0.0292847 0.0914455 
-0.00495677 -0.0700747 -0.136889 
3.65274e-18 9.55583e-18 1 

-0.0684484 -0.010712 -0.0877641 
-0.0129539 -0.0494472 0.024719 
-1.59624e-18 9.99282e-18 1 

-0.03607 -0.023616 0.0176151 
-0.0107051 -0.10231 -0.0617234 
7.44497e-18 -7.70528e-18 1 

-0.130035 -0.105211 -0.832202 
0.157207 -0.00451279 0.0989557 
4.36721e-18 3.45151e-18 1 

-0.0631666 0.053345 -0.598977 
-0.0507896 -0.0473647 0.0873008 
1.73727e-18 1.55999e-17 1 

-0.0886001 -0.0331069 0.569279 
0.119664 -0.0734729 -0.341732 
-6.80984e-18 4.70237e-18 1 

-0.0874512 0.0614425 0.0193468 
-0.0323288 -0.0403583 0.104553 
4.90215e-18 2.22105e-17 1 

-0.179535 0.0390564 0.0136232 
-0.0296862 -0.0617791 0.15666 
-6.39491e-18 -7.81229e-20 1 

-0.0316033 -0.0259536 0.0254324 
0.0295174 -0.0255414 0.0913229 
7.65154e-18 7.31621e-18 1 

-0.0293808 0.0230248 -0.109628 
-0.0247205 -0.0261963 -0.0296333 
4.03202e-19 1.3282e-18 1 

-0.0539767 -0.0105683 -0.0217414 
-0.0279013 -0.0516508 0.0784288 
-3.14946e-18 8.31107e-19 1 

-0.0990508 0.0390174 0.297737 
-0.0928244 -0.0207654 0.319853 
1.03815e-17 -1.76583e-17 1 

-0.118109 -0.00997398 -0.0492107 
-0.0235538 0.0118163 0.0401126 
3.57947e-18 3.84702e-18 1 

-0.22797 0.512848 0.847783 
0.00258406 0.0426142 -0.531851 
8.14938e-19 4.23481e-17 1 

-0.0685627 0.0163456 0.460663 
0.0650034 -0.0895844 -0.336522 
7.01202e-18 -1.87521e-18 1 

-0.113023 -0.004034 -0.0624733 
0.0830249 -0.0407831 -0.0370933 
1.80976e-18 3.55919e-18 1 

-0.0600514 0.0157334 0.411239 
0.00574214 -0.0904234 0.934994 
-5.1659e-19 -4.2122e-18 1 

-0.0499054 -0.0169121 -0.0535738 
0.00253199 -0.0591592 0.125176 
-7.76664e-19 4.85415e-18 1 

-0.051784 0.0247181 0.00569698 
0.017726 -0.0688252 0.210115 
-9.05528e-18 -9.33826e-18 1 

-0.17403 0.0353154 -1.53382 
-0.0183531 -0.0188488 0.441209 
5.07976e-18 6.33921e-18 1 

-0.0618505 -0.0335686 -0.0258319 
0.00355188 -0.0264621 0.161491 
-7.04421e-18 1.30047e-17 1 

-0.0495344 0.0217482 -0.0216516 
-0.00209154 -0.0192742 0.114264 
-1.24855e-19 1.78504e-18 1 

-0.0788665 0.0184546 0.0367193 
-0.00853619 0.102145 -0.353626 
-9.49754e-18 -7.73284e-18 1 

-0.0662621 0.0178165 -0.0188244 
-0.0254589 -0.0582716 -0.116623 
-5.34624e-19 2.03568e-18 1 

-0.110392 0.0519131 -0.00474016 
-0.0519445 -0.0121291 0.0347491 
9.72778e-18 2.36042e-18 1 

-0.119658 -0.0843707 0.0547049 
0.0437736 -0.0086359 -0.0261462 
-3.67446e-18 -7.4364e-18 1 

-0.0249485 0.0242283 -0.00826837 
-0.0409783 -0.0731725 -0.0325495 
-1.61385e-17 4.31511e-19 1 

-0.052271 -0.00597263 -1.49115 
0.00575891 -0.0422623 -0.11541 
-9.7878e-19 -3.16569e-18 1 

-0.0731004 -0.0308526 -1.70344 
0.0070937 -0.0235385 0.510072 
1.67305e-18 -3.96111e-19 1 

-0.0633406 0.0161303 -2.44426 
0.0051967 -0.0664364 1.30591 
6.21041e-18 4.12624e-18 1 

-0.0953598 0.00327269 -0.0384159 
-0.047146 -0.0159087 -0.132818 
3.41552e-18 1.28534e-17 1 

-0.052724 -0.027468 -0.138694 
0.0219584 -0.0889023 0.316633 
3.10584e-18 -3.676e-18 1 

-0.08322 0.00484126 0.212842 
0.0289381 -0.0552429 0.0502491 
-1.04057e-18 -1.40477e-18 1 

-0.30061 0.105174 0.110261 
-0.0195294 -0.0139409 0.092072 
-1.13395e-18 1.71838e-17 1 

-0.0427842 0.0113313 -0.159938 
-0.0422289 -0.0472384 -0.515532 
-5.41727e-18 3.10489e-18 1 

-0.0738517 0.00118641 0.0188725 
0.00713375 -0.09269 0.0316481 
-5.71318e-18 4.58342e-18 1 

-0.0835449 0.0236224 0.0023604 
0.0207964 -0.0897298 -0.149873 
1.146e-17 -1.84664e-18 1 

-0.0720325 0.0143164 0.209311 
0.017167 -0.0203801 -0.291088 
-3.59764e-19 -5.33981e-18 1 

-0.0506569 0.0133647 -0.0718902 
0.0198433 -0.0619498 0.0184389 
1.2653e-17 -2.58945e-18 1 

-0.0369386 0.00525943 -0.0712757 
-0.0148829 -0.0927597 0.0489689 
4.0263e-18 9.77693e-18 1 

-0.0729925 0.000140854 -0.0647899 
0.000574535 -0.0331705 0.256278 
-6.07584e-18 -4.05056e-19 1 

-0.0924426 0.0180947 -0.0152318 
-0.0288581 -0.0166436 0.0561587 
1.38394e-18 -3.31659e-18 1 

-0.0447204 -0.0112476 0.311079 
0.00262316 -0.0305498 0.465975 
3.30975e-18 2.57176e-19 1 

-0.0405681 -0.00246096 0.00203695 
0.0191649 -0.0435947 -0.103373 
1.31658e-17 2.96352e-18 1 

-0.0479545 0.0151322 -0.0463747 
0.0518363 -0.0639785 -0.0757206 
3.3049e-18 -1.27112e-19 1 

-0.0809672 -0.0114817 0.0188493 
-0.0680785 -0.0791719 0.0301715 
-9.18393e-19 -3.21438e-18 1 

-0.0745735 0.00953742 0.0381032 
-0.0183543 -0.0110531 -0.00232715 
5.37975e-18 -6.37244e-18 1 

-0.112399 0.0159839 -0.0805631 
0.0195218 -0.0892586 -0.0940887 
-5.68148e-19 4.66947e-18 1 

-0.124037 0.0660765 0.094657 
-0.0397457 -0.0165881 0.32728 
-1.94427e-18 -2.71837e-18 1 

-0.0475156 0.0182872 -0.00182462 
-0.0307927 -0.0201438 -0.115801 
4.58009e-18 -6.69694e-18 1 

-0.0776575 -0.0209094 -0.0774783 
0.0107037 -0.0334719 0.0619933 
7.91524e-19 1.3569e-18 1 

-0.0433212 0.00822811 0.783998 
-0.00233303 -0.0850777 -1.50242 
5.27279e-18 -1.88629e-18 1 

-0.0586999 0.0112704 -0.162265 
-0.0171019 -0.117357 -0.521327 
7.6411e-19 -6.64417e-18 1 

-0.0640345 -0.0289094 0.0503104 
0.00616386 -0.0424398 0.0791394 
7.46709e-19 -2.48903e-18 1 

-0.0824817 0.00670555 -0.150835 
-0.0412534 -0.0395125 -0.694738 
-5.70447e-18 6.99934e-19 1 

-0.0527073 0.00296995 -0.0558665 
-0.0446451 -0.0358144 -0.150056 
-5.29573e-18 9.95289e-18 1 

-0.0482149 -0.00815736 0.393876 
-0.00961803 -0.0710584 0.222997 
2.82679e-18 -1.16498e-17 1 

-0.0676014 -0.0203621 0.140673 
0.0175011 -0.00276435 -0.0347669 
-1.19997e-17 -1.03977e-17 1 

-0.13385 0.0684217 -0.217923 
0.014212 0.0449149 0.156633 
1.33327e-17 -2.30758e-18 1 

-0.0654648 0.0263145 0.228245 
0.00653426 -0.0239778 0.972814 
8.93338e-19 4.78308e-18 1 

-0.190217 0.066554 0.00682187 
0.0213754 -0.0438243 -0.019802 
-7.71649e-18 -3.47498e-18 1 

-0.05928 -0.0195084 0.107808 
-0.0428008 -0.0187298 -0.142878 
-5.94767e-18 -5.50942e-18 1 

-0.0426894 0.0143014 -0.178343 
-0.0290165 -0.0180058 -0.364977 
-7.89727e-18 6.47981e-18 1 

-0.126059 0.030036 0.0141144 
0.0460027 0.00244776 0.0866792 
-6.1641e-19 -4.56869e-18 1 

-0.0448222 -0.000400262 -0.220609 
0.011956 -0.0521085 -0.65611 
-2.05054e-18 -2.64083e-18 1 

-0.0809461 -0.0220503 -0.0327575 
0.0122068 -0.055106 0.111801 
-6.15358e-18 -2.54535e-18 1 

-0.0426966 -0.0362582 0.0289693 
-0.0497235 -0.0571829 -0.0567802 
4.50448e-18 -1.77955e-18 1 

-0.0838128 -0.01196 0.149044 
0.00784402 -0.0437099 -0.0976882 
1.20954e-17 4.41169e-19 1 

-0.0370965 -0.0462625 0.00628265 
0.0244943 -0.0447421 0.0283791 
1.25673e-19 9.09869e-18 1 

-0.0564538 -0.0179181 0.026378 
0.0105228 -0.0396578 -0.114332 
1.38316e-17 -4.92634e-18 1 

-0.0341009 -0.0301403 -0.170132 
0.027804 -0.0160327 0.120954 
-5.81739e-18 1.19984e-17 1 

-0.0266826 0.0129773 -0.161216 
-0.01205 -0.0395038 0.0373721 
-1.39202e-18 -3.00677e-18 1 

-0.108753 -0.115601 -0.323253 
0.123161 0.0372867 -0.138002 
-1.1788e-17 8.06618e-18 1 

-0.208383 0.026165 0.322621 
-0.0205413 -0.0766223 -0.0278789 
-8.41556e-18 1.05409e-17 1 

-0.0364109 0.000959035 0.224249 
0.0090189 -0.113132 0.25958 
4.15656e-19 6.46228e-18 1 

-0.0762027 -0.00203218 -0.0909051 
0.00738546 -0.0578096 -0.00258688 
-3.79836e-18 -4.30636e-18 1 

-0.0157051 0.0126367 0.0821996 
0.00628303 -0.0556086 0.0636339 
1.08763e-17 1.15193e-17 1 

-0.0576668 -0.0284914 -0.315064 
0.0133607 -0.0287772 0.759067 
-1.84718e-18 -3.92527e-18 1 

-0.0713293 0.00345351 -0.161199 
-0.0508876 -0.0315455 0.117924 
-4.09232e-18 1.79814e-18 1 

-0.0529678 -0.0219703 -0.575959 
0.0050385 -0.0736729 -0.539166 
1.14058e-18 -5.99173e-18 1 

-0.0765649 -0.00125114 0.0553933 
-0.00111439 -0.0162843 -0.120641 
-5.90552e-18 -3.04503e-19 1 

-0.065579 -0.000245089 0.432398 
-0.0194098 -0.0628371 -0.0942886 
3.48912e-18 -4.73911e-18 1 

-0.131544 -0.0581876 -0.0191853 
-0.00972233 -0.000881576 0.136574 
1.42813e-18 -2.96205e-18 1 

-0.0895418 -0.0152512 0.671598 
0.00197996 0.00187806 -2.21357 
-1.60967e-18 -5.59119e-18 1 

-0.0481824 -0.0085874 1.06557 
-0.00773239 -0.0449542 2.3901 
3.4899e-18 -8.6786e-19 1 

-0.0765969 -0.0587776 -0.198968 
0.0143691 0.022199 0.51426 
6.55052e-19 -1.57213e-17 1 

-0.136948 0.047746 -0.501348 
0.02933 -0.110266 0.290842 
1.79584e-17 1.35285e-18 1 

-0.0892061 0.0133798 0.383277 
-0.0100805 -0.0117549 1.64433 
-2.61399e-18 -2.57975e-18 1 

-0.0698536 -0.0427028 -0.0469083 
-0.0205371 -0.089753 0.0558608 
8.5283e-18 1.55417e-17 1 

-0.0617919 -0.00890684 0.105024 
-0.000876342 -0.0428238 -0.0833066 
-6.8198e-18 -2.29145e-17 1 

-0.0938842 0.0736235 -0.0971856 
0.0130956 0.0336946 -0.220433 
8.75053e-19 2.56682e-18 1 

-0.101361 -0.046547 0.0368136 
0.0525371 -0.0563601 0.293276 
-6.18807e-18 4.52786e-19 1 

-0.38543 0.11936 -0.00840109 
-0.0530602 -0.0707644 0.201432 
-2.0099e-17 1.04127e-17 1 

-0.023983 0.0441788 0.000995795 
-0.00764485 -0.0893576 -0.0109466 
-2.25138e-18 -3.60221e-18 1 

-0.064669 -0.0111386 -0.119794 
-0.0238454 -0.0340209 0.0720597 
6.49831e-18 -1.39964e-18 1 

-0.0155674 -0.0498419 -0.136788 
-0.00347593 -0.115684 0.337831 
-8.49049e-18 -2.017e-18 1 

-0.0497554 0.0101068 -0.0251552 
-0.0265079 -0.107741 -0.191907 
5.5965e-18 -9.68043e-19 1 

-0.0340282 0.010876 -0.00909821 
0.00775805 -0.0617414 -0.0777437 
5.2608e-18 -1.14521e-18 1 

-0.0338041 -0.00093905 -0.161015 
8.45972e-06 -0.0368313 -0.00169567 
1.55347e-18 4.01314e-18 1 

-0.0744922 0.0255913 -0.0618671 
0.0527586 -0.0536863 -0.0449724 
-2.23261e-18 -7.57968e-18 1 

-0.0922131 -0.00763581 -0.310685 
-0.0185357 -0.03396 0.277705 
-5.68581e-18 -3.91904e-18 1 

-0.0710458 0.0136289 -0.1025 
-0.00468089 -0.020496 -0.0528929 
-5.70532e-19 -4.44414e-18 1 

-0.0982652 0.00898536 -0.0837043 
-0.0403234 -0.0628066 0.0824333 
-1.50263e-17 2.51837e-19 1 

-0.206899 0.0233164 0.298636 
0.0918159 0.032449 0.115091 
-6.04589e-18 -9.84215e-20 1 

-0.0703689 -0.00870503 0.0529281 
-0.0123114 -0.0607223 -0.135267 
-1.01111e-17 -3.4538e-18 1 

-0.0694286 -0.0325427 0.0327271 
-0.0040662 -0.00561382 0.0870354 
-4.46942e-18 -2.23471e-18 1 

-0.0874657 0.0584366 -0.0241471 
-0.036014 -0.0844864 -0.047892 
1.91002e-17 -6.00293e-18 1 

-0.0507842 0.0119744 -0.114061 
-0.0598043 -0.0508009 0.10927 
-2.30354e-18 1.0538e-17 1 

-0.0753326 -0.0119747 0.0705069 
-0.00726057 -0.125545 0.00848823 
-7.66472e-18 1.15579e-19 1 

-0.0472967 -0.0093238 -0.0330048 
-0.0372032 -0.0651994 0.0116045 
-7.52671e-18 -1.08306e-18 1 

-0.0639883 0.00387116 -1.51326 
0.00829108 -0.0670393 1.64478 
-1.60139e-18 8.18553e-18 1 

-0.112914 -0.0101203 0.0412833 
0.0724237 0.0195815 -0.283528 
7.91636e-18 8.03278e-18 1 

-0.0713046 0.0104924 0.053688 
-0.0732486 -0.0586681 0.109929 
-1.84819e-18 -8.48187e-18 1 

-0.0696108 -0.0245616 0.261219 
-0.0398481 -0.0513351 0.463659 
-1.17305e-19 4.56187e-20 1 

-0.117836 -0.0579098 -0.1642 
0.0555967 -0.0028769 -0.0302166 
-7.20679e-18 2.61538e-17 1 

-0.0307238 -0.00239855 -0.0427539 
-0.0105023 -0.0656574 0.135598 
1.64859e-17 -8.3965e-19 1 

-0.14614 0.0597855 0.257245 
-0.0281275 -0.0285403 -0.111026 
-1.73066e-17 1.33443e-17 1 

-0.0786073 -0.0385304 0.103863 
0.0361496 -0.034001 0.0684565 
-1.48148e-17 -2.25627e-18 1 

-0.0639628 -0.0699918 -0.124013 
0.0208961 -0.070273 -0.0512014 
-1.48409e-18 -4.63601e-18 1 

-0.114236 -0.0206366 0.13137 
0.018651 -0.0800265 0.153138 
3.25457e-18 -2.53831e-17 1 

-0.102365 -0.0256962 0.211166 
0.00890039 0.012343 -0.686981 
-3.35474e-18 9.18296e-19 1 

-0.115742 0.0688482 0.012808 
-0.0359952 -0.0788011 -0.19991 
-6.09522e-19 -9.9399e-18 1 

-0.0604221 0.0246197 0.232108 
-0.0159091 -0.0148531 -0.403159 
-4.70721e-18 -6.08116e-18 1 

-0.0585564 0.0300898 -0.0735226 
-0.00797701 -0.0735393 -0.133543 
7.57064e-18 1.23177e-17 1 

-0.0437794 0.00211995 -0.103306 
-0.0945727 -0.00914312 -0.211337 
-4.18128e-18 1.7651e-17 1 

-0.0647155 -0.031449 -0.0385017 
-0.0405503 -0.0748209 0.262617 
2.84548e-19 -1.30418e-19 1 

-0.0791356 0.0338195 0.0471173 
0.00437799 -0.00182977 -0.283242 
1.87385e-18 1.79577e-18 1 

-0.0919249 -0.0107194 -0.0111426 
-0.0589815 -0.0637733 -0.0875763 
3.90236e-18 -6.35089e-18 1 

-0.0545621 -0.00691822 0.0997929 
0.0280297 -0.0421983 -0.0648657 
5.33969e-18 -9.81145e-19 1 

-0.184471 0.00227802 -0.0607734 
0.0087178 -0.0277674 0.134738 
-7.20512e-18 -1.31784e-17 1 

-0.107436 -0.0325193 0.0497716 
0.0147399 -0.0254035 -0.20968 
1.08018e-18 1.28976e-19 1 

-0.037303 -0.00597233 0.0214343 
-0.00801921 -0.0852024 -0.0485863 
7.80747e-18 -4.93837e-18 1 

-0.0639972 0.00667546 -0.0237131 
-0.037729 -0.0270688 -0.163452 
-9.80985e-18 -3.50816e-18 1 

-0.0390481 -0.0296809 0.000758559 
0.0164733 -0.0444653 0.544709 
-8.10234e-18 8.55131e-18 1 

-0.0492242 0.0256249 -0.0232181 
0.000172549 -0.0149182 0.0728802 
-1.27427e-17 -2.60539e-19 1 

-0.166427 0.041549 0.0805046 
0.00503766 -0.00879186 0.268392 
8.13968e-18 -6.78307e-19 1 

-0.0675363 0.00505736 -0.0711593 
0.00426397 0.0109402 -0.0576558 
6.44941e-18 4.46247e-18 1 

-0.0420441 -0.00481952 0.0564021 
-0.0364373 -0.0535229 0.0937592 
-4.21428e-18 -5.64212e-18 1 

-0.0946897 -0.0151861 0.00413512 
0.0291661 -0.0570326 -0.511216 
1.03626e-17 -1.98228e-17 1 

-0.0297569 0.0816544 -0.216346 
0.03894 -0.0331024 -0.127464 
7.00702e-18 1.55963e-17 1 

-0.0431185 -0.00254576 -1.29 
-0.0155137 -0.0445839 -1.26709 