# vtk DataFile Version 3.0
Output file generated by Yade's KinematicLocalisationAnalyser
ASCII
DATASET UNSTRUCTURED_GRID

POINTS 13483 float
403.846 38.3277 0.465831
482.783 83.8455 0.513844
100.259 5.89528 0.534269
514.863 8.10595 0.37987
360.973 10.4125 -0.37026
256.908 53.3239 -0.654829
130.338 8.03043 0.596323
379.635 13.8583 0.173182
349.667 68.681 -0.150983
466.753 15.8236 0.512053
177.288 9.37465 -0.147196
214.612 6.90167 -0.315445
438.429 78.9683 -0.176146
423.05 19.9735 -0.131508
114.012 20.5924 0.454613
179.38 44.6388 0.409409
183.961 12.8818 -0.387719
235.525 21.7692 0.557663
278.039 48.9018 -0.467159
364.225 26.5281 -0.469755
305.87 38.3842 -0.105847
397.507 67.1269 0.257843
504.189 65.3626 -0.483362
446.596 76.2736 -0.492501
339.358 36.9991 0.332522
193.024 57.8808 0.132446
348.926 70.6412 -0.399347
392.085 27.281 0.37787
39.3571 16.2526 0.501296
469.509 77.1994 0.351814
350.343 7.17857 0.544408
14.6216 27.9824 0.289704
495.042 91.2362 -0.276756
358.989 2.90914 0.603655
64.3035 50.0129 0.1092
371.078 79.8289 -0.351591
364.287 46.2986 0.488288
265.056 29.9855 0.21879
364.762 72.9823 0.302681
281.169 43.7999 -0.706068
202.276 16.4267 -0.403965
322.395 44.289 0.0921473
448.515 26.2032 0.139185
161.392 6.80247 0.496874
48.3617 7.28842 0.119237
59.9129 10.4084 0.348262
443.36 8.28581 0.631615
20.1997 12.5543 0.287367
401.477 62.5843 -0.423303
443.758 52.0142 -0.341721
144.854 36.1963 0.450385
486.947 71.8585 -0.122688
29.8947 30.1848 0.118775
370.817 8.28262 0.659639
119.307 7.06224 -0.50017
394.169 50.0402 0.531391
360.487 76.1941 -0.11122
146.666 1.01604 -0.354441
28.205 2.36067 0.364528
268.407 23.6431 0.310492
408.736 64.8634 -0.197586
322.072 65.1615 0.197083
301.17 1.03084 0.226528
453.168 10.0263 -0.685282
21.2236 50.9916 0.248603
208.649 41.2268 -0.362244
467.56 8.36288 0.501619
452.379 102.814 -0.353363
317.971 9.41639 -0.637216
379.74 5.84852 -0.59973
474.446 49.0427 -0.565086
110.191 8.32598 -0.328522
353.22 73.2567 0.122206
344.034 52.7196 -0.171207
240.523 27.2697 -0.656858
17.9939 14.8249 0.303735
505.342 87.6107 -0.396366
271.834 58.7543 -0.374445
441.283 48.4539 0.409493
450.508 25.5677 -0.256235
501.192 33.0608 0.490108
323.729 68.6212 -0.202697
78.3533 45.1285 -0.29536
438.436 66.6121 0.32094
429.764 84.3459 0.10449
509.809 73.8711 0.126718
511.622 2.08811 -0.722177
239.048 43.09 0.472944
420.387 6.30257 -0.142
21.5032 6.35092 0.66486
114.103 46.8935 -0.175098
359.316 37.1797 -0.227117
494.109 59.6741 0.498958
166.298 29.5351 0.264406
35.9235 38.6323 -0.276821
357.537 0.944535 0.282074
200.718 9.57845 -0.520869
470.213 59.9545 -0.254251
481.547 52.8367 0.257732
277.767 31.4646 -0.261459
137.817 29.7316 -0.451688
400.207 84.2164 -0.440554
290.477 24.7689 0.468887
307.998 29.8305 0.116353
285.377 6.12662 0.660036
372.726 35.122 0.144191
512.124 26.9354 -0.305866
66.3388 44.9861 0.340474
261.521 6.26978 0.218318
376.313 15.0511 -0.504612
276.741 77.9441 -0.14101
22.3834 25.6808 -0.547071
26.8603 6.11515 0.357511
372.327 63.802 0.435592
355.83 56.3662 0.18298
21.5867 44.1347 -0.443649
79.835 37.5486 -0.224593
254.014 17.9793 -0.494966
404.189 19.8902 -0.154636
331.236 76.571 0.331059
481.528 8.92082 -0.477762
475.498 7.53175 0.219707
298.596 60.2389 -0.113133
418.807 49.5846 0.101618
200.73 19.9234 0.68057
259.07 5.33744 0.589539
88.7113 37.0637 0.320532
98.6621 28.0881 -0.313059
396.781 85.6584 -0.0784362
247.236 29.1563 0.547767
466.236 77.797 0.135474
457.884 101.579 0.104874
343.154 59.794 -0.372811
492.771 41.2108 0.306919
325.419 26.7474 -0.236386
227.664 38.9407 0.313293
432.905 71.3147 0.282654
229.868 42.936 0.504183
387.369 18.5893 -0.339778
273.35 54.2459 0.189704
356.849 27.7066 0.551575
281.476 62.2063 -0.0826084
327.737 17.9349 -0.161933
260.721 62.1336 0.444596
162.747 31.0815 -0.156064
487.211 85.6277 0.145641
510.132 27.3545 -0.359991
5.77325 13.4027 0.426085
329.994 24.5989 -0.637239
34.4457 24.9469 -0.0737074
288.427 58.5281 0.462172
296.09 34.0669 0.309603
66.0026 13.4046 -0.484028
42.5897 37.0342 -0.616799
193.457 13.5945 0.641687
412.143 59.96 -0.55087
390.58 27.7118 -0.49879
64.447 24.1164 -0.554464
447.509 80.7722 -0.420299
505.875 2.31693 -0.625217
444.868 95.9637 0.0345735
449.895 2.54323 -0.636465
369.877 61.581 0.427658
397.63 65.558 -0.571446
358.255 43.8458 -0.390857
513.917 14.02 0.20759
190.17 27.846 0.142438
109.818 43.5844 -0.201751
209.866 8.14899 0.471867
79.177 8.93428 -0.327404
56.2899 11.1836 -0.189018
226.583 50.58 0.296298
16.352 28.3319 -0.346825
384.341 40.136 -0.574851
403.101 54.4749 -0.241848
333.278 49.3265 -0.362617
508.658 101.717 -0.3474
311.612 8.38779 -0.104765
315.268 49.8327 0.386917
375.002 10.8875 -0.266318
20.0181 24.6178 -0.47862
388.355 4.89747 0.516057
376.097 25.1007 -0.290945
175.858 12.0156 0.556103
325.78 16.8527 -0.344704
246.472 8.95681 0.489338
296.644 19.7378 -0.555113
462.446 52.3539 -0.118546
164.529 26.6924 0.4404
499.144 27.8973 0.513691
464.63 47.3585 -0.435921
289.909 13.5272 0.170046
466.427 2.47278 0.507066
401.074 37.7674 -0.487308
487.594 17.2583 -0.367958
308.797 72.8595 0.105659
352.492 29.2474 0.541509
321.961 79.6946 -0.217945
342.756 12.2657 0.208503
448.737 97.1088 0.252593
447.312 92.7743 0.316263
163.773 41.4403 0.413795
499.88 36.7115 0.144321
410.321 76.3006 0.29817
10.4059 18.9582 0.267161
308.511 26.5531 0.40491
160.651 24.3305 -0.452721
79.8997 46.0521 0.254434
492.124 56.8733 0.440327
439.503 97.9934 0.239845
258.624 37.3748 0.408385
370.257 36.7511 0.524497
69.1696 50.4451 0.186903
204.749 33.738 -0.464891
387.906 45.1833 0.424108
352.056 63.5293 0.43887
222.807 2.69906 -0.487466
410.331 84.2466 0.370092
390.647 89.222 -0.462625
343.51 77.1162 -0.403904
365.831 3.92932 -0.5404
455.331 23.1367 -0.502681
151.786 13.8751 0.409651
359.564 87.1603 -0.447028
377.325 70.6111 0.113504
64.1698 0.968899 -0.299181
214.832 4.91044 0.208295
508.163 32.3262 0.254204
501.555 34.3823 -0.681262
512.8 32.2192 -0.593891
241.088 11.6879 -0.35827
482.148 29.8534 -0.641081
307.952 43.0504 0.489471
340.816 0.789985 0.676328
436.473 85.6694 0.426894
23.4911 34.109 0.356632
273.183 61.7845 0.472631
216.025 3.21231 0.482907
499.124 89.728 -0.250262
465.721 91.7221 -0.218798
237.457 21.9097 0.15374
431.659 64.2625 0.0853309
376.787 2.46474 -0.302315
374.331 29.7626 0.575609
83.6702 21.9895 0.526305
241.807 1.31667 -0.257726
269.178 3.48043 -0.516991
12.479 7.90484 0.628075
4.53519 33.3543 -0.26411
137.367 21.7728 -0.377295
56.1733 47.4297 -0.276624
54.9523 32.8708 0.315803
325.454 13.7334 -0.591742
285.289 65.6853 0.510136
484.18 71.1525 0.113936
17.7524 4.33536 -0.28929
62.667 8.26015 -0.163832
415.496 69.4722 0.149047
233.961 0.899155 0.412149
283.989 28.0102 0.108946
202.383 4.83698 0.370014
425.475 47.1457 -0.202374
346.542 17.8352 0.61758
486.989 30.8529 -0.490943
426.081 67.6193 -0.327346
440.999 46.5956 -0.259572
321.116 29.3132 0.543814
86.9696 53.227 -0.315149
401.254 88.5233 -0.0766713
485.787 12.1871 0.325976
195.202 39.1404 -0.250999
28.755 18.9575 -0.342172
263.889 18.7184 0.65107
92.9008 48.9962 0.54518
220.071 56.3843 -0.217378
330.175 2.50906 -0.239186
505.475 81.9472 0.390658
445.82 2.49206 0.640555
262.314 4.62476 0.462135
248.654 40.2806 0.170419
322.237 76.4103 -0.223148
72.2487 9.68936 -0.557146
168.14 49.7302 0.410726
489.844 64.2 0.456451
354.201 87.0798 -0.0791143
170.114 44.8879 -0.338885
138.866 49.5209 0.522811
511.451 69.2481 -0.438447
510.827 29.0571 -0.555278
413.308 3.42912 -0.616065
162.979 25.9242 -0.138559
359.679 67.7574 0.103854
361.744 65.2326 -0.325695
316.299 5.91879 -0.152324
355.459 0.90801 0.312779
481.162 70.5991 -0.477945
72.5621 36.9488 -0.262871
430.554 46.5091 0.515305
225.25 26.3355 -0.470252
8.07487 2.656 0.424974
109.271 45.6143 0.250031
57.8435 24.3195 -0.545458
458.624 76.5325 0.3385
498.031 97.7887 0.0273444
158.888 30.091 0.199937
506.666 30.8835 0.514255
36.7766 41.2863 0.283256
78.6554 36.028 0.193236
424.821 24.1538 0.548292
317.646 19.2228 -0.552847
361.242 45.7071 0.137692
196.163 36.2128 -0.235636
426.923 4.04636 -0.731868
514.149 28.0648 0.597797
26.0514 35.1646 0.286601
225.687 14.3533 -0.239589
191.129 15.8869 0.48047
1.01275 37.7046 -0.162607
193.451 14.5454 -0.472803
181.851 11.1428 -0.215289
183.475 27.9018 0.290046
114.801 34.1348 0.145568
379.588 38.4302 -0.354994
141.452 15.0799 -0.388078
493.929 87.484 -0.236722
148.681 3.94571 0.513165
38.6566 42.9892 0.437259
461.214 63.3025 0.464393
233.79 46.9423 0.371808
450.437 47.1841 -0.638664
500.712 74.2236 -0.552684
240.033 13.3781 0.179918
471.734 37.4208 -0.377601
260.269 2.69102 -0.396519
318.773 24.8381 -0.495563
446.185 39.7426 -0.708011
90.8634 14.0778 -0.449922
356.086 5.0839 0.702359
489.352 25.5488 0.208614
77.7227 7.66582 0.24727
232.641 26.4642 0.228966
326.516 11.9322 -0.297343
513.646 12.3022 0.682497
305.735 1.85553 -0.628421
151.501 41.6167 0.293199
488.167 9.76924 -0.514743
112.023 44.1255 0.202298
217.264 43.4791 -0.444552
307.408 21.0318 0.318775
389.281 20.5796 0.351486
295.013 9.99101 -0.554518
330.916 60.3723 -0.420939
483.873 84.2238 -0.428417
42.4009 11.9406 0.206999
246.11 56.0112 0.282479
289.581 44.6194 -0.37776
314.148 20.6374 -0.336389
381.878 94.6466 -0.356845
477.61 63.2511 -0.244957
452.373 93.1084 0.396397
185.502 45.2192 -0.398836
13.6887 34.9933 -0.155627
445.392 92.2244 0.128163
368.74 95.8047 -0.257899
188.898 49.4431 0.104153
445.084 59.7946 0.123532
128.223 10.793 -0.210869
286.357 33.3204 0.309523
323.415 78.0933 0.105435
318.034 20.6401 0.330941
479.14 82.7055 -0.320919
330.789 5.37918 0.602761
43.3915 27.6305 0.293197
334.458 70.8632 -0.362059
311.59 50.8129 -0.521662
500.483 84.0217 -0.221798
473.915 32.5066 0.299585
376.878 46.7136 -0.228984
492.954 80.8448 0.460974
234.27 2.31394 -0.559051
291.094 54.4586 0.587135
23.9754 46.7474 -0.346238
470.545 41.5015 -0.220424
417.139 21.4498 -0.654948
347.352 5.27159 0.688595
106.671 5.8379 -0.421007
318.758 43.3062 0.131338
10.3901 0.903366 -0.424484
509.216 15.6149 0.299592
292.629 69.5838 -0.394464
417.746 7.98126 -0.533751
[...]
POINT_DATA 13483
TENSORS Strain_matrix float
-0.208491 -0.216823 1.5464 
-0.165318 0.0960022 -0.501501 
-0.00307914 0.0175933 -0.0710881 

-0.0293392 -0.0350988 0.780682 
0.0695317 0.0196023 0.945034 
0.00628016 -0.00380796 -0.0602184 

-0.0830727 -0.0353426 -1.19291 
0.11988 0.080203 -0.684638 
0.0298411 -0.00550231 -0.0309056 

-0.249267 0.259426 -0.225809 
-0.769756 0.384276 -0.178319 
-0.114682 -0.101012 0.369987 

-0.103437 -0.144935 1.07317 
0.0491824 0.163774 -1.0713 
-0.0378806 -0.0390503 -0.177223 

-0.119375 0.0480238 -14.7024 
-0.140151 0.20811 -2.77777 
-0.00191848 0.00276266 0.393213 

-0.0412833 0.0325938 0.0766446 
-0.0416976 0.03447 0.707861 
0.000323244 0.00381841 0.26938 

0.00124262 -0.0488887 0.17376 
-0.112429 -0.0641545 -0.0929032 
-0.00812176 0.0127356 0.138016 

0.006315 -0.200049 0.0952409 
0.14448 0.00766765 0.081073 
-0.00263805 0.0234642 0.0453828 

0.0212974 -0.00992909 -0.209529 
-0.0666442 0.09383 -0.183423 
0.010247 0.00768528 -0.0407499 

-0.00420312 0.00569652 -0.0134697 
-0.00332049 -0.0104953 0.00449434 
0.000219809 0.00036743 0.0295167 

-0.512945 -0.465818 0.334257 
0.280331 0.347398 -0.905977 
-0.0076257 0.0129205 0.0698697 

-0.161979 0.128486 1.2617 
0.000840415 0.10672 0.497032 
0.000748934 -0.00047575 0.00903949 

-0.0930936 -0.0714338 -0.3989 
0.216572 0.131791 -0.17003 
-0.000589508 0.045577 0.158332 

-0.00595273 -0.0126039 -0.0458734 
-0.0186402 0.0195225 -0.0141027 
0.00343102 -0.00197891 0.00946325 

-0.875595 -0.998368 -2.86466 
0.801782 0.868932 2.40783 
0.0684362 -0.0361866 0.255589 

0.00790769 0.0225027 0.00102142 
-0.0267059 -0.0113689 0.00772856 
-0.000124448 -0.00140861 0.00820577 

-0.159305 0.150122 -0.648716 
-0.411284 0.22762 0.429704 
0.0101957 0.0275978 -0.362471 

-0.0513822 0.0848414 5.09994 
-0.191711 0.0478851 1.0143 
-0.0140016 0.0171416 0.358007 

-0.0780706 -0.0386322 0.647541 
0.0236908 0.0380104 -0.538198 
0.00607558 0.00829194 -0.00671913 

0.033968 0.0535824 0.0736722 
-0.108815 -0.0227904 0.0217097 
-0.00407237 -0.000428985 -0.0241596 

-0.015283 0.0923857 0.0269122 
-0.14569 0.026788 0.0227331 
0.00334289 -0.00500948 0.0133469 

-0.0154496 -0.0322503 -0.162964 
0.0677756 0.0526828 -0.60597 
0.00630757 -0.00951376 -0.144402 

-0.0577005 -0.0103805 -3.4655 
0.0316195 0.0501408 0.922539 
0.000231912 -0.00197269 0.0848645 

-0.0616112 -0.0720891 -0.0104989 
0.24378 0.0707897 -0.127572 
0.0398453 -0.115297 0.697989 

-0.15226 -0.3244 2.525 
0.736063 0.509056 -1.53554 
0.00847537 -0.0144796 0.936856 

-0.000723574 -0.157353 0.245075 
0.159681 0.0226673 -0.0552007 
0.0167861 -0.00470402 0.556812 

-0.0102953 0.212023 -0.0485325 
-0.0210355 -0.117718 -0.144044 
-0.0116184 0.00641624 0.115371 

-0.0186675 0.0170064 -0.0438871 
-0.00868429 -0.00385034 -0.0021365 
0.00132281 -0.000256138 -0.0225582 

-0.0146153 0.0261551 -0.00225051 
-0.0228945 0.0166989 -0.00466833 
0.0104456 -0.00571442 -0.00470024 

-0.033734 -0.12862 0.827389 
0.0590863 0.0841785 0.34264 
-4.76929e-05 -0.00125131 0.0556644 

-0.0916507 0.218298 0.694657 
0.139436 0.136988 0.263641 
-0.016315 0.0221315 0.121192 

-0.0191387 -0.0242923 0.359733 
0.0513746 0.105275 -0.829267 
-0.0102322 0.00212514 -0.191885 

-0.11677 0.151304 -0.731718 
-0.0735408 0.119976 -0.13023 
-0.0199832 0.0249157 0.121737 

-0.00136956 -0.0277922 -0.00579904 
0.0230385 0.000543031 0.00437381 
8.30279e-05 -0.000206431 0.0042185 

-0.018252 -0.0102237 -0.0363982 
0.0430946 0.0498448 0.107608 
0.0023006 -0.0257492 0.00579396 

-0.0253537 -0.0160594 -0.47014 
0.0196334 -0.00838259 -0.483377 
-0.00180499 -0.0203145 -0.0819076 

-0.861312 1.58696 -0.569152 
-0.684693 1.0294 -0.615136 
0.0204896 -0.0362206 0.214178 

-0.0528168 0.0876672 -0.474043 
0.0887464 0.00440975 -0.480449 
-0.00563672 -0.00583454 -0.015699 

-0.140319 0.17993 -26.3506 
-0.0460827 0.213626 -17.1142 
-0.000205493 -0.00104444 0.403376 

-0.0368763 -0.191572 -0.110321 
0.0173727 -0.0646053 0.0853528 
-0.0156628 -0.00603627 0.0874074 

-0.0191404 -0.093962 0.0372439 
0.0969993 0.0362118 -0.034326 
0.00497154 -0.0197458 0.0991415 

0.0610198 0.139737 0.0648365 
-0.113661 -0.00366727 0.341692 
0.00192042 0.00260462 0.0552236 

-0.0201449 0.0190704 0.21098 
-0.0409301 0.00511736 4.86949e-05 
-0.00122789 0.00253209 0.017697 

-0.0324663 -0.0261541 0.075926 
0.0247789 -0.015885 -0.0194646 
-0.00974019 -0.000834303 0.0636201 

-0.0532434 0.0399166 -0.0610953 
0.0307829 -0.017408 -0.437261 
-0.00357835 0.0030991 0.158485 

-0.00402203 0.00417397 0.0341621 
-0.0088113 0.00109288 -0.0353777 
0.00202902 0.000544571 0.00482214 

-0.0158043 0.015763 0.0131263 
-0.0336469 -0.000949719 0.018864 
6.66736e-05 0.00120924 0.0291418 

0.0115216 0.118827 -0.331088 
-0.128108 0.00387173 0.0321084 
-0.00107316 4.45251e-05 -0.00870216 

-0.0193207 0.0104464 0.00686192 
-0.0219158 0.0230924 -0.00539625 
-0.0183175 0.0168016 -0.012553 

-0.0121239 0.0529916 -0.109292 
-0.0580116 0.0240036 0.0743354 
0.00283577 0.00255469 0.0673253 

-0.0228839 -0.102363 -0.135424 
0.0654815 0.0372642 -0.146353 
-0.00121166 -0.0030857 -0.0145496 

0.00999214 0.0115056 0.0531483 
-0.0344874 -0.00693658 -0.0268946 
0.040169 -0.00313802 0.201223 

-0.0248368 -0.309405 -2.48216 
-0.133893 0.0219292 -1.10896 
-0.000471315 0.0239206 0.424963 

-0.083712 0.0768884 -0.195631 
-0.0950161 0.16846 -0.217893 
-0.063441 -0.0593745 -0.0717538 

-0.0602466 0.0280342 3.37342 
-0.133164 0.0608519 -3.94838 
-0.00290268 -0.00140334 0.0518112 

-0.067478 0.0672178 0.371371 
-0.0650599 0.0728054 -0.271866 
-0.0558695 -0.000408429 0.261258 

-0.0495278 0.0888575 0.273949 
0.00426222 0.0461057 0.177801 
0.000652272 -0.01726 0.139638 

-0.0128664 0.00249738 0.0399624 
-0.00183628 0.0016567 0.0110343 
-0.000204926 -0.00132238 -0.00172603 

-0.032615 -0.0316691 -0.0875158 
0.0530029 -0.0162677 -0.422648 
0.0029465 -0.00194496 0.0118697 

-0.200548 -0.28684 -0.307394 
-0.0676036 0.187576 0.352591 
-0.0259469 0.0254138 0.159305 

0.0141376 -0.127259 0.140009 
0.157257 0.0112106 0.0271001 
0.00221146 0.00415198 -0.000527096 

0.00577469 -0.00487984 0.0161373 
-0.0027293 -0.00815334 -0.0147759 
-0.000774379 0.000864616 0.00103887 

-0.0250843 -0.0101664 -0.0724851 
0.0137428 0.0480663 -0.171515 
-0.000687477 -0.00157673 0.0323532 

0.029931 -0.0925097 0.103707 
0.149052 -0.00663215 -0.114316 
0.00111179 -0.00331403 -0.0207482 

-0.171089 -0.420883 -0.654288 
0.357735 0.306388 0.846157 
-0.0667507 0.0211298 0.981367 

-0.000433914 -0.0206127 -0.00242225 
-0.0152829 0.0162116 0.0104854 
-0.0017551 0.0021115 -0.0131995 

0.0105484 -0.0190845 -0.131488 
0.0364874 -0.0555245 0.781517 
0.00089791 0.002518 -0.00892532 

-0.0113227 -0.0129435 -0.00156161 
-0.0183669 0.00297215 -0.454094 
0.00219888 -0.00471335 0.0634124 

-0.227603 0.0405583 0.0918766 
0.184584 0.201179 -0.167072 
0.00463352 -0.0424616 0.117436 

-0.137321 0.0999102 1.02243 
-0.0084862 0.133461 -0.589574 
0.00089471 0.00252967 0.207753 

-0.182061 -0.023738 0.542475 
0.0194649 0.149464 0.0310985 
-0.00937102 0.0541346 0.453749 

-0.0319563 0.00541674 0.0778702 
-0.0304917 0.0354975 0.488827 
0.00663865 -0.0178766 0.0515778 

-0.000478613 -0.152427 -0.00766746 
0.14325 0.0102345 -0.0830658 
0.000404023 -0.00191723 0.0230722 

-0.169012 -0.00702777 4.78901 
-0.178927 0.088046 2.07547 
0.0118883 -0.0184334 0.370681 

-0.0418449 0.0139267 -0.017174 
-0.0200587 0.00380491 0.0206768 
0.00328199 0.00240074 0.0684216 

-0.0127126 -0.0497927 0.0365474 
-0.0403717 0.00993046 0.27792 
-0.0305891 0.00624437 -0.171451 

-0.0920245 0.215924 -0.752698 
-0.155603 0.0202869 0.214381 
-0.00216647 0.00266265 0.0561696 

-0.0190419 -0.00238308 0.0205506 
-0.0268528 0.00341244 -0.00843568 
0.0036513 0.0010832 0.0151826 

0.0403756 0.11218 -0.0689816 
-0.0525818 -0.00624694 -0.125053 
0.00205 -0.000504415 -0.0116539 

-0.0235906 -0.032899 -0.00610414 
0.0137446 -0.0265121 0.06337 
0.00418948 0.00327626 0.0455206 

0.0053319 -0.155378 0.0391689 
0.156591 0.0153227 -0.0129965 
4.59987e-05 0.00053113 0.0101167 

-0.0260069 -0.0484541 0.0750018 
0.0285684 0.0113019 -0.0354932 
0.00378656 -0.00371913 -0.00660578 

0.00140995 -0.102595 0.269553 
0.0762461 -0.0133738 -0.690292 
0.00139956 0.0159316 0.0430542 

-0.0283287 -0.0719436 -0.0213231 
0.0601778 -0.00669745 -0.0104462 
-0.0437308 -0.0524022 0.315895 

0.0104156 -0.010028 -0.0073017 
-0.00304207 -0.00829411 0.00327173 
-2.22408e-05 -0.00230576 -0.0146665 

-0.209455 0.381871 19.4527 
-0.0143033 0.186518 -1.88128 
0.0323865 0.00729619 1.14554 

0.117624 -0.0935469 -0.0217823 
-0.0213334 -0.0812935 0.203604 
-0.00664629 0.00908189 0.005498 

-0.0135568 0.0480376 0.010203 
-0.0572419 0.0100904 0.0139843 
0.000202998 0.00256591 -0.00757611 

-0.0275193 -0.00301459 0.490027 
-0.0159964 0.00571239 -0.377807 
-0.00691052 -0.0134147 -0.129603 

-0.0074503 -0.0451197 0.02573 
0.0350787 0.0136794 -0.0251407 
-0.0155281 0.0259736 0.0147463 

-0.0679126 -0.0805247 0.289515 
0.119788 -0.0194659 -0.0834775 
-0.00465933 0.00706834 -0.129219 

-0.0646248 0.0715927 0.32802 
-0.0799253 0.0409382 1.26125 
0.0106619 0.000703346 -0.0786498 

0.0054105 0.0740429 0.105836 
-0.111312 -0.0132578 0.0972948 
-0.00542505 0.00140076 0.02682 

-0.00393242 -0.0143069 -0.225237 
-0.00820256 0.00493053 -0.056042 
0.014511 0.00238674 0.00239295 

-0.244406 -0.0935872 0.260356 
-0.0142491 0.316323 -0.0974239 
-0.00447797 0.064011 -0.0736239 

0.00403775 -0.0712588 0.192299 
0.0573504 -0.013306 -0.131856 
0.0554793 -0.00633372 0.152285 

0.0223663 -0.0687119 -0.049161 
0.0849481 0.00965331 0.0697976 
-0.00103296 -0.0009885 -0.0273244 

-0.0529482 0.0292847 0.204178 
0.217508 0.0570676 0.249817 
-0.00673654 -0.00498351 -0.0989173 

-0.00215999 0.0130987 -0.0329004 
-0.00690794 0.005354 0.0831317 
0.000436878 0.000994072 0.0209675 

-0.0226386 0.0159032 0.191728 
-0.0459956 0.0231643 0.0949367 
-0.00419288 0.00832212 0.231204 

0.00343711 0.0706372 0.429503 
0.00806582 -0.00152765 -0.454409 
-2.77405e-05 0.000299774 0.0138746 

-0.0223705 0.102587 0.0387402 
-0.103774 0.00814706 0.00852519 
-0.00333174 0.001063 0.0277463 

0.0698947 -0.201247 0.0860558 
-0.249464 0.0719862 -0.354143 
-0.0184672 0.141272 0.0438246 

-0.00981336 -0.00192061 -0.0263247 
0.0150593 0.00654832 -0.213521 
-0.00341755 0.000846725 0.0242626 

0.0179185 0.0563893 0.0245751 
-0.0376479 -0.0156894 -0.0376397 
0.000524524 0.000868613 -0.014821 

0.0157695 -0.00880127 -0.0102316 
0.00931951 -0.0195187 -0.0241121 
0.001648 -0.00159973 0.0121893 

-0.00522319 -0.0321819 -0.00649586 
0.0244854 0.000697428 0.0098907 
-0.00042054 0.000344861 0.0033263 

0.0436537 0.0573776 -0.058525 
0.0411049 -0.0636725 -0.0053719 
0.00290405 -0.00775788 -0.000221315 

-0.179216 -0.203467 0.178614 
-0.190664 0.144764 0.0743516 
-0.00256263 -0.0152397 0.0200499 

0.215401 -0.0255132 0.0777214 
0.170386 -0.166995 0.528484 
0.00205925 0.0369093 0.710687 

0.004583 0.0186395 -0.891795 
-0.0345434 0.00206394 -0.297351 
-0.000937356 -0.00932282 0.201629 

-0.0301726 0.0241876 -0.00771133 
-0.00547261 0.00688753 0.0109969 
-0.000529424 0.000488629 0.0132035 

-0.108407 0.0872109 0.169488 
0.110153 0.13501 0.643387 
-0.0153599 0.00239473 0.124772 

0.0180775 0.0191381 -0.00607834 
-0.465588 0.0763621 -0.84916 
0.0162147 0.0208439 0.0613613 

-0.0797936 -0.166239 0.719293 
0.0809019 0.112917 -0.850774 
-0.0117506 0.00302211 0.261245 

0.0141866 -0.0303105 0.00855596 
0.0132527 0.0127914 0.00538709 
0.00402819 -0.00455674 -0.0395992 

-0.516646 0.243309 -1.24399 
-0.651016 0.448897 -0.603187 
0.0423016 -0.0527815 0.0827363 

-0.0756418 0.0371028 -0.23287 
0.0979761 -0.050845 -0.103163 
-0.00543122 -9.94579e-05 0.0745751 

0.0110746 -0.162956 -0.0439075 
0.187901 0.0258225 0.0109495 
0.000739546 0.000662969 -0.0189274 

-0.0388745 0.033564 0.00382137 
0.0230177 -0.0316718 -0.181925 
0.00615831 0.012423 0.078881 

0.00544229 -0.0343384 -0.0291149 
0.00716472 0.018838 0.0151505 
0.00364892 0.00637084 -0.0219305 

-0.114744 0.179002 -0.208187 
-0.602499 0.155423 -0.672394 
-0.0174593 -0.0178167 -0.0220086 

-0.0560268 0.00651176 0.240266 
-0.102822 0.0639802 0.587 
0.00143021 -0.0282784 0.0197201 

-0.164889 -0.146191 4.71217 
0.117262 0.173147 2.634 
0.00345807 0.00554489 -0.0740425 

-0.00831441 0.0185424 0.0386294 
-0.0141601 -0.0267408 0.0578724 
0.00170147 -0.000392304 0.0128054 

-0.0823173 0.00983927 0.518735 
-0.0306663 0.126705 0.516963 
-0.0340688 -0.0145386 -0.262429 

0.0185273 -0.185383 -1.49976 
0.2118 0.0686846 -0.127993 
0.0203172 0.0176341 0.29144 

0.000860159 0.0872815 0.0218951 
-0.0509322 0.00404747 -0.133576 
0.00149447 0.000343867 -0.00559327 

-0.0725281 0.177002 0.370448 
-0.18919 0.0435711 0.177527 
0.0269144 -0.00802269 0.0494301 

-0.0296823 0.0318213 -0.0718361 
-0.0584694 0.0250794 -0.0663117 
0.00766291 0.00745417 -0.0727562 

0.0142104 0.00575977 -0.0590553 
-0.0291101 -0.00206474 0.0196884 
-0.0171483 0.00754584 -0.0609962 

-0.00786956 -0.146054 -0.0334035 
0.140776 0.0143785 0.0095527 
0.0222702 0.00461802 -0.00955186 

-0.0255531 0.023002 -0.0687537 
-0.00588894 0.0153485 0.0231865 
-0.0032782 0.00217299 0.0291023 

0.013266 -0.0649237 0.164646 
0.00829901 0.0114972 -0.290278 
-0.00242187 -0.00190581 0.0245041 

0.0101756 -0.181614 -1.03257 
-0.05792 -0.0777474 -1.512 
0.0149338 0.00397439 0.142974 

-0.43516 0.159466 -0.747751 
-0.167439 0.348131 -0.214112 
-0.000116465 -0.00266025 0.0223068 

-0.0432032 -0.0835586 0.671453 
0.00294157 0.0446191 0.306988 
0.00133482 -0.00365619 0.181447 

-0.0417787 -0.0366777 0.304106 
0.00221159 0.014103 -0.110346 
0.00410943 0.00196303 0.0130811 

-0.0124813 0.151596 0.0522308 
-0.216846 -0.00224525 0.0167088 
-0.0255226 0.00121475 0.157544 

-0.0183698 -0.0240526 0.121939 
-0.097586 -0.0233274 -0.110275 
0.0191151 0.014342 0.054175 

-0.104677 -0.0209898 -0.237614 
-0.0588136 0.160021 -0.163742 
0.0328383 0.00413079 0.0275732 

-0.0122498 0.0151274 -0.00118181 
0.0168155 -0.00411891 -0.00817365 
0.0336337 -0.00115409 0.0563372 

-0.139305 -0.267816 3.26455 
-0.134526 0.0894879 0.633032 
-0.00974589 0.0228799 0.80755 

-0.0184036 0.082536 0.0181678 
-0.0925754 0.0149519 0.0538997 
0.00310182 0.00315674 0.0133716 

0.0243724 -0.0199461 0.0452613 
0.0297888 -0.0289183 -0.00079003 
0.0073417 0.00996256 -0.00823434 

0.0218919 0.0301145 -0.00297204 
0.00677059 -0.0445821 -0.0553878 
0.0017351 -0.00900307 0.0441853 

-0.0247713 0.0070163 0.0597457 
0.00797629 0.00227673 0.040202 
0.000487387 -0.00128369 0.00801249 

-0.0843768 -0.0722125 1.65846 
0.0892334 0.0449953 -1.73986 
-0.00865805 0.0021732 0.397901 

-0.0316843 0.0333644 -0.00648343 
-0.0583785 -0.0151029 0.0318404 
0.000238627 -0.00279094 0.0495586 

-0.0606532 0.024703 -0.283405 
-0.237524 0.114573 -1.43547 
0.0129518 -0.00608047 0.105408 

-0.417587 -0.541886 2.51834 
-0.104814 0.23088 -0.364837 
0.0223888 0.00551489 0.049662 

-0.0530964 0.0683854 0.146249 
-0.202514 0.0251273 -0.101708 
0.00397221 -0.0296555 0.360891 

-0.0417013 -0.022492 -7.89246 
0.0236951 0.0221444 1.07236 
0.000550769 -0.000769256 0.555917 

-0.0395403 -0.0478852 -3.08013 
0.0225871 -0.00573829 4.33408 
-0.00180053 0.0105903 0.356673 

-0.0639641 0.0563322 1.82383 
-0.125969 0.0236372 -0.741047 
-0.0129178 -0.0074611 0.258265 

0.088873 0.219907 -0.130805 
-0.109159 -0.0961474 -0.0655615 
0.00171156 -0.00512774 -0.114651 

-0.0446762 -0.069398 0.102618 
0.108793 0.0526198 0.100281 
-9.08518e-05 0.00922009 0.0798008 

-0.139595 0.116089 -0.41465 
0.0256375 0.107397 -0.00398608 
0.0277896 0.00147092 0.0808495 

-0.0687169 -0.0697694 0.180551 
0.0600711 -0.0155307 -0.767937 
-0.00552506 0.00588386 0.00491698 

-0.00674967 -0.039539 0.0194345 
0.0554376 0.00839977 0.0489788 
-6.09399e-05 -0.000811166 0.0111196 

0.00391144 0.00210733 -0.0283886 
-0.0151751 -0.00472146 -0.045298 
0.00114545 0.000980982 0.00822264 

-0.116096 -0.432995 -0.755431 
0.0499124 0.210208 1.27609 
-0.00687805 -0.00104737 0.0442335 

-0.0141055 0.0413898 4.01842 
-0.114401 0.00804489 2.40264 
-0.00407152 -0.00565114 0.740594 

0.0220113 -0.0165701 -0.372645 
0.0881123 0.00687356 -0.855173 
-0.00447224 0.000987265 0.143472 

-0.316099 -0.315068 -0.283294 
0.113275 0.129899 -0.0132724 
0.0896344 0.0394322 0.172083 

-0.0320367 0.0859001 -0.0465693 
0.127049 -0.0501493 0.104025 
-0.0425857 0.00660413 0.056581 

0.0106399 0.00695305 -0.0220766 
0.0122877 -0.0239228 0.019281 
0.000533479 -0.000841849 0.0117796 

-0.188174 -0.141131 0.218435 
0.0618899 0.11091 -0.239234 
0.0586789 0.00686791 0.0554488 

-0.136077 -0.21083 -0.391009 
0.0433348 0.107717 0.354411 
0.00979752 -0.0180806 0.231122 

-0.0418734 -0.0571821 0.0349804 
0.0719107 0.0279677 -0.233761 
-0.0110258 0.0170658 0.128915 

0.0198468 -0.0576453 0.0218734 
0.0638481 0.00597853 -0.0153918 
-0.0366923 -0.0210931 -0.113975 

0.0129876 0.299208 0.025385 
-0.14098 0.19752 0.24357 
-0.00724333 -0.00969434 -0.126824 

0.00212133 0.0240924 0.986621 
-0.0872087 -0.0147601 2.87107 
0.0159617 -0.00715163 0.023339 

-0.047295 0.0391495 0.0288127 
-0.161991 0.00150133 -0.00469923 
-0.000633782 -0.0292654 0.121419 

-0.0024912 -0.0519463 0.320929 
0.0854167 0.0289252 -0.576635 
-0.00225066 -0.00119978 -0.0195044 

0.00923118 0.0067891 0.00486701 
0.00813708 -0.00549654 -0.0592226 
0.00579373 -0.00150201 0.0215722 

0.0200465 -0.0106907 0.00980763 
0.00967936 -0.0218198 -0.0155316 
-0.000744865 -0.00391211 0.0137084 

-0.079777 -0.309459 0.207072 
0.16653 0.210023 -0.47075 
-0.02681 -0.012164 0.0645604 

-0.254917 -0.0873631 -0.18865 
-0.44556 0.0679338 0.021425 
-0.0110093 0.0197673 0.0101891 

-0.00904142 -0.0277447 -0.197898 
-0.0214993 0.0409353 0.811642 
0.00247749 0.00773631 0.1195 

-0.023526 0.00309118 0.129154 
-0.000807334 0.00669217 -0.0726026 
-0.0132754 -0.000642543 0.0373536 

-0.120789 -0.0748288 0.265388 
0.0119569 0.037601 0.160391 
-0.027663 0.00212154 0.00357016 

0.00253842 0.0107391 0.00812835 
-0.00175222 -0.00995615 0.0246337 
-0.000168274 -0.00131688 -0.00957359 

-0.0152597 0.0106521 -0.125482 
0.0588725 -0.00349133 0.0764342 
0.0368357 -0.0623315 0.567586 

-0.192848 0.092632 -0.18198 
-0.395229 0.249426 -0.215364 
0.0574608 0.0434917 -0.0524605 

-0.0513341 0.0730786 1.0777 
-0.0699179 -0.0138912 0.240144 
0.000761783 -0.00145667 -0.129375 

-0.0266565 -0.124978 0.0587906 
0.134411 0.0153563 -0.0182868 
-0.00149216 -0.00199068 0.0111009 

-0.00335563 0.0819248 0.101799 
-0.100399 -0.00503733 0.212957 
-0.0237394 -0.0283659 0.0473212 

-0.0310658 -0.0261081 0.0168165 
0.120518 -0.0444182 -0.00140198 
0.0339942 -0.0406318 0.00831348 

-0.00700665 -0.113125 0.00579904 
0.114211 0.0289743 -0.0346345 
-0.00143828 -0.000685585 -0.00229981 

0.00695744 0.0556108 0.115069 
-0.0374879 0.0270212 -0.0689459 
0.00650546 0.00259545 -0.0778294 

0.00794226 -0.041487 0.0618599 
-0.0204172 0.0116796 -0.0455448 
-0.00479613 -0.0145836 -0.00307694 

-0.284624 -0.331241 -0.68743 
0.105126 0.188417 1.66347 
-0.0177831 0.00891218 -0.0392541 

0.072616 0.19125 0.0417051 
-0.20349 -0.000990251 0.170512 
0.000145335 0.027677 0.0627412 

0.271599 0.615365 -0.201225 
-0.00630041 -0.0692572 0.313746 
-0.0494096 -0.0849358 1.12026 

0.00878817 -0.0474115 0.0464011 
0.0654539 0.00209384 -0.000625322 
0.00088848 -0.00144969 -0.00575791 

0.011274 -0.186719 0.031968 
0.169499 0.00545051 0.00899702 
-0.00489531 -0.0057542 0.0822136 

0.0254053 -0.0389397 0.00978184 
0.0546608 -0.0161244 0.0366769 
-0.00207793 -0.00724566 0.00529772 

-0.00843738 -0.0320046 -0.0147551 
0.0422706 -0.0201538 -0.0649612 
-0.0233563 -0.00249855 0.102726 

-0.0101973 -0.0588039 0.0192408 
0.0691498 0.00140346 -0.0501638 
0.0161646 0.0323266 0.198157 

-0.0521001 0.0657894 0.15647 
-0.0677509 0.0693405 -0.340325 
0.00885167 0.0209338 0.145875 

-0.0166797 -0.0258454 -0.0348663 
0.0151933 0.00434658 -0.0190995 
0.00135087 -0.00517409 0.00573698 

-0.258067 0.154794 1.93924 
-0.367542 0.338588 0.881064 
-0.0215507 -0.0606867 0.318336 

-0.0388506 0.0117867 0.00174543 
0.0144644 0.0172821 -0.0013618 
-0.00119903 -0.00528262 0.0192534 
