# vtk DataFile Version 3.0
Output file generated by Yade's KinematicLocalisationAnalyser
ASCII
DATASET UNSTRUCTURED_GRID

POINTS 13483 float
661.616 27.6774 -0.430992
867.385 44.4376 0.525166
129.455 6.09135 0.450219
914.623 4.29781 0.387088
538.911 7.54509 -0.307788
338.429 34.3631 -0.461825
168.567 6.80476 -0.409441
617.793 10.005 0.142928
535.753 22.3317 0.142566
801.746 12.0936 -0.369161
226.469 8.72677 -0.101912
276.285 6.2951 -0.280454
716.717 28.2236 -0.132969
692.105 13.8474 0.0860796
147.73 16.9508 0.436884
238.366 34.0951 -0.390873
234.159 12.842 0.267343
310.425 9.399 0.37805
366.587 32.1673 0.419071
567.037 8.52074 0.346238
442.327 36.245 -0.0979022
643.237 43.1449 0.280805
909.697 31.2543 0.435577
772.558 41.561 0.429813
494.947 15.9118 0.293551
259.113 43.5812 -0.121699
530.567 26.8815 -0.474637
636.567 19.1815 0.213594
48.279 15.3968 -0.471289
797.015 30.8222 -0.325889
520.491 4.83792 0.321308
18.0365 22.644 0.323487
882.153 42.1374 0.265156
534.464 2.46306 0.486439
84.2242 43.3453 0.100322
564.11 29.7293 0.331035
573.872 16.4767 -0.410205
369.909 21.7437 -0.177037
577.163 25.2773 -0.321657
377.543 32.687 -0.176475
259.348 14.486 0.300767
467.834 34.7768 0.0659843
745.914 6.94424 -0.104817
207.691 6.15951 -0.37156
59.7272 6.84966 0.130918
73.534 8.76008 0.267748
764.782 8.51551 0.488208
25.3256 11.5766 -0.283989
666.082 43.4152 0.325635
748.16 22.5165 -0.313096
185.735 31.8782 -0.282598
861.557 32.5213 -0.127297
37.8589 27.4398 0.112473
577.972 2.94347 0.321797
153.251 7.42697 0.466665
646.1 32.9762 0.389326
545.09 25.6124 -0.118103
188.216 0.931718 0.255064
35.1916 2.41038 -0.284298
375.531 17.4062 0.260699
678.243 43.9822 -0.132296
499.13 33.3956 -0.183632
430.447 1.03065 0.187372
777.44 7.65261 0.351454
28.4396 41.823 -0.235818
276.197 29.9663 -0.290973
801.759 7.49113 0.187485
739.476 43.6244 -0.362255
450.35 8.48348 -0.477142
618.592 3.49883 -0.341469
837.181 28.577 0.381186
141.14 7.58768 -0.268393
538.829 24.7981 -0.128895
516.072 14.7587 -0.103858
317.212 16.4998 -0.340484
22.3168 13.3827 0.246661
888.57 33.2176 0.330969
358.299 38.1648 -0.278842
745.588 19.4098 0.336211
764.351 12.2533 0.236793
898.093 10.9793 -0.192894
502.636 33.9461 -0.165499
99.4715 37.5066 0.266449
758.584 33.5891 -0.218251
712.396 37.2821 -0.107206
918.211 36.6261 0.119756
890.664 0.803504 -0.483382
313.73 28.447 0.435308
680.236 6.25387 -0.0957011
26.1452 5.21677 -0.451015
143.104 37.1606 -0.135084
555.399 13.975 0.205667
880.882 22.7986 0.517402
211.005 28.1657 0.232648
47.8314 33.7974 0.267632
533.317 1.15955 0.112869
254.375 8.79485 -0.350533
840.859 38.1568 -0.261829
865.994 25.1295 0.223812
390.088 20.3463 -0.260349
177.299 26.5268 0.424039
597.505 37.4877 -0.410405
410.618 14.8266 -0.489209
447.071 29.0389 -0.109484
408.874 4.37611 0.410452
595.275 10.7467 -0.0946341
919.416 11.1002 0.21505
86.6536 38.4256 -0.391015
362.367 4.7616 -0.171934
610.814 9.35373 -0.325879
389.31 42.8892 0.44463
28.1807 23.9055 0.483434
32.8581 5.65588 -0.330743
619.671 31.7155 0.398934
548.22 23.1534 -0.140579
28.5047 35.8113 -0.356116
100.398 29.9134 -0.211996
351.447 15.6978 -0.308951
656.62 18.5712 -0.110417
515.743 37.4311 0.302183
821.797 7.67765 -0.354596
812.431 6.17623 -0.215779
418.92 36.5891 0.0946774
698.963 24.8053 -0.097404
258.449 16.6481 0.520107
357.262 3.6714 0.46157
111.879 30.8821 0.324908
125.756 23.7548 0.265955
592.525 37.9692 0.0796309
331.244 18.6638 0.474321
791.177 33.6763 0.11151
743.865 43.2087 0.120381
522.039 20.2006 -0.385143
869.457 9.28228 0.320879
465.349 22.8306 0.219206
300.252 23.7567 -0.303584
745.962 31.0296 -0.281975
302.055 28.4094 0.398432
630.392 11.3943 -0.185456
359.633 34.8997 0.185935
549.239 11.3516 0.444074
398.041 30.6134 0.0844513
467.87 16.359 -0.111604
344.886 41.1273 0.276506
206.93 29.2804 -0.117026
871.629 42.3534 0.149113
915.163 11.7114 -0.300246
6.42385 12.0135 0.432265
472.094 21.9815 -0.416192
41.6012 21.7527 0.0759613
408.604 30.7432 -0.463653
429.033 24.2731 -0.256286
80.9716 11.7382 0.479343
56.1381 32.8259 0.417992
245.327 13.1947 0.433242
679.808 37.6244 -0.393205
633.382 20.1555 -0.450933
81.3566 20.4197 0.487679
775.881 44.969 -0.420421
854.86 2.40389 -0.424744
731.549 39.9802 -0.487137
772.388 2.32474 0.37367
602.188 26.0196 -0.38719
644.767 43.5974 -0.467163
559.93 18.0187 -0.354653
911.825 2.82336 0.293267
243.03 24.4992 -0.117684
138.446 34.1622 -0.193621
268.765 6.51914 -0.374526
102.862 4.01108 -0.254386
69.7104 10.0157 -0.182605
299.777 35.4232 -0.31162
17.7202 24.3233 -0.372822
608.276 18.8243 0.39535
665.862 38.3601 0.184593
504.889 20.9432 -0.361026
902.734 39.2589 -0.426877
443.106 8.48083 0.0834745
475.197 35.1368 -0.36892
586.98 3.42016 -0.182055
24.8453 23.2047 -0.384482
633.184 4.26446 -0.368011
597.498 4.31755 -0.286203
224.56 11.2009 0.477624
463.287 16.0295 0.183682
338.908 6.28382 0.313967
422.713 18.6693 -0.324771
826.999 40.5714 -0.133185
209.455 25.1387 0.411417
882.403 6.80253 0.342559
825.985 36.8427 0.323557
417.893 10.0108 -0.184768
798.658 2.53928 -0.361925
665.74 24.8212 -0.389064
830.135 17.813 -0.357982
469.938 41.5096 -0.270216
543.044 12.1577 0.342041
508.52 43.5352 -0.218219
486.522 8.6347 0.128404
734.98 38.7594 -0.30162
732.374 35.1807 0.338586
209.26 38.2479 -0.339628
895.927 11.021 -0.129941
647.139 44.3 0.241604
12.3908 16.7939 0.166315
444.437 24.9523 0.33497
204.15 22.6678 0.38997
101.176 38.4574 0.20021
877.306 20.2891 0.439414
728.039 44.0503 0.220311
347.748 25.0437 0.353464
583.609 10.0784 0.319412
89.4902 43.3984 -0.162252
269.83 25.469 -0.470328
611.453 23.168 0.372227
532.135 18.1814 0.40343
286.367 0.888569 -0.342446
607.486 39.2381 0.362512
585.454 40.179 -0.447831
527.575 32.2914 0.356151
546.289 0.769147 -0.485095
784.227 18.4235 0.360446
195.983 11.7379 0.169297
548.074 35.8107 0.428348
620.793 38.7397 0.110016
79.2547 0.94569 -0.273193
274.406 4.61891 0.157958
914.246 13.5584 0.176562
898.744 12.8571 -0.3702
922.354 16.5921 -0.436566
330.918 8.48116 -0.224649
837.728 21.6326 -0.384374
444.644 40.4177 0.327824
490.878 0.817005 -0.397262
719.971 34.7088 0.450359
29.7019 29.4915 -0.304679
360.416 40.2181 -0.474059
275.345 2.79605 0.30787
885.567 39.596 0.228535
795.806 45.7604 -0.22836
313.315 10.7177 0.172289
739.005 28.366 0.0825765
612.491 2.65857 0.261153
595.17 6.36601 0.415081
105.406 17.6614 -0.462771
330.757 1.03964 -0.221791
374.998 2.24583 -0.37142
15.1828 7.58689 0.308632
4.6972 30.4713 -0.236459
177.037 18.6587 0.361424
74.4023 41.0799 0.214004
72.8197 28.3053 -0.321719
463.294 14.2838 -0.447644
401.207 34.2396 -0.469839
859.368 34.5036 -0.134941
21.2454 3.96996 0.277794
76.7771 6.76503 -0.130761
691.088 37.1059 -0.157782
321.8 0.926511 0.322072
398.68 16.0756 -0.0885728
257.324 4.59546 -0.382465
723.643 20.9048 -0.192149
494.24 8.33192 0.392708
840.955 19.6032 0.369535
698.381 28.3833 -0.302162
744.521 17.6632 -0.0823124
459.344 25.8114 0.479275
111.117 43.908 0.311749
596.504 41.3444 0.0744024
827.467 13.2915 0.189236
259.708 29.7633 -0.237675
34.5256 16.4841 0.185701
367.505 13.5666 0.483114
117.438 39.6871 -0.458946
292.283 41.5394 -0.188696
465.465 1.06891 0.172632
886.472 27.7396 -0.391554
764.489 0.803752 -0.45623
362.992 3.06373 0.463165
327.69 26.0626 0.137053
507.156 40.3944 0.199807
88.868 7.91317 0.380657
216.41 43.9644 -0.377713
869.075 27.3211 -0.355882
543.007 38.0547 -0.0836439
218.732 40.4552 0.252425
175.595 41.3617 -0.390373
920.662 31.9917 -0.413823
917.72 11.1776 -0.491066
669.268 3.6272 -0.50155
207.956 24.0688 -0.0986601
604.245 27.2743 0.102074
606.288 26.8595 0.259875
447.87 5.54951 -0.136073
528.015 0.933016 -0.27778
857.208 36.6978 0.476665
92.8282 30.2072 -0.214492
729.922 18.0555 0.460269
299.845 15.335 -0.327887
10.7434 2.32394 -0.336135
136.985 35.9705 -0.198525
73.1869 22.7869 0.449085
783.796 35.3266 0.329111
891.361 44.9543 -0.174378
203.114 27.6974 -0.168574
909.796 11.3077 -0.291433
49.1316 35.791 -0.23979
99.1973 28.3452 0.15228
702.642 12.9315 0.361044
452.555 17.9941 -0.487259
570.443 16.4188 0.112825
260.337 27.8205 -0.18235
687.907 4.47706 -0.415054
922.35 10.6276 0.352763
32.8096 30.7128 -0.269892
295.204 7.68226 0.185037
242.857 14.9429 0.257258
1.11418 35.172 -0.147925
246.415 14.3816 0.355937
231.5 10.8568 -0.111616
234.562 25.8738 -0.27795
145.235 27.262 0.133589
602.268 14.846 -0.313018
183.004 13.9692 -0.341868
879.429 40.341 -0.230554
190.502 3.75739 -0.47647
51.7964 37.1384 0.352122
834.26 46.3377 0.426275
307.299 31.082 0.394773
754.059 24.0741 -0.430199
895.765 29.8713 0.490209
328.904 9.08246 -0.112753
823.542 28.9433 0.342288
359.68 2.63015 -0.353259
455.512 23.1743 0.397535
751.472 15.8864 -0.409886
115.705 11.7771 -0.402412
529.77 3.9571 -0.458593
844.988 17.3023 -0.198383
96.7372 7.55725 -0.17939
307.918 14.4709 0.189484
464.049 11.5474 -0.205145
910.059 2.60683 0.414092
435.757 1.86982 -0.467509
193.76 38.1933 -0.285507
830.371 10.3835 -0.312115
140.345 35.3004 -0.181309
287.866 30.9031 -0.387274
438.633 21.3133 0.211745
633.048 13.0823 -0.326453
424.12 9.71662 -0.436099
500.795 26.9207 -0.423174
868.363 43.8524 -0.408339
52.0921 10.6724 0.0982646
327.405 37.6486 -0.254716
415.66 25.7901 -0.383665
448.647 20.7193 0.242062
573.361 44.0164 0.35653
850.366 35.7787 -0.214033
738.637 34.3121 -0.354552
247.067 33.7155 0.380662
15.2468 30.6224 0.161801
730.796 36.2754 -0.135779
559.735 40.436 0.490093
251.182 38.575 -0.0949384
762.333 30.4086 0.103377
165.7 9.1501 -0.196338
401.755 21.173 0.268118
508.996 41.4257 0.103121
453.565 19.3674 0.203298
864.34 46.2989 -0.25824
466.94 3.34462 0.410401
54.5438 24.8314 0.298094
516.113 31.1809 0.341349
476.489 40.2934 0.374183
882.924 34.102 -0.239351
820.566 28.2347 -0.237269
595.718 18.1032 -0.138525
873.672 34.8053 0.432711
320.869 2.01144 -0.443921
414.984 28.4422 -0.456766
31.8193 37.6765 -0.297108
827.053 29.5279 0.141049
675.219 19.5839 -0.492589
508.208 0.782642 -0.477387
138.478 4.46458 -0.280986
467.883 39.0823 -0.0940739
13.3311 0.915151 0.328712
909.133 5.31213 0.173629
405.648 38.4009 -0.40258
[...]
POINT_DATA 13483
TENSORS Strain_matrix float
-0.0205736 -0.0413508 -0.346223 
0.0482272 0.001472 -0.309377 
-0.00231977 0.00284622 0.0650096 

-0.133452 0.0229475 2.62477 
0.0883132 0.19538 3.96059 
0.000290311 -0.0200542 -0.0908512 

-0.0359911 -0.00424006 -0.557209 
-0.0026734 0.0249838 0.0437187 
-0.00149792 -0.00219675 0.0453719 

-0.152472 0.00589352 0.465049 
0.0245662 0.061136 0.504621 
-0.0128419 0.021264 0.220957 

-0.057324 -0.0245451 0.0648372 
-0.0394936 0.0227908 0.0308093 
0.0521589 -0.0423459 0.259151 

-0.0239765 -0.0124056 -0.311629 
0.00170771 0.01473 -0.302201 
0.000204972 -0.0261985 0.111802 

-0.0328453 0.00911635 0.0155568 
-0.0029026 0.00542232 -0.00609112 
-0.000117412 0.000387499 0.0303525 

-0.0194498 0.00925864 -0.010987 
0.0138551 0.00853797 0.0319163 
0.00106884 -0.000961687 0.018998 

-0.0279942 -0.00699749 -0.0664912 
-0.0249926 0.0149911 0.0206612 
-0.000284265 -7.16789e-05 -0.0116717 

-0.0108609 -0.0165369 -0.0400621 
-0.0810858 -0.0113561 -0.0841459 
0.0169329 -0.00456696 0.00729122 

-0.0248984 -0.00285168 -0.067681 
0.00826826 0.00884807 0.0828225 
0.00568531 -0.000498467 0.0636313 

-0.0276496 -0.000267076 -0.0344639 
-0.00226744 0.00963288 -0.00931421 
0.00073576 0.000270803 9.41462e-05 

-0.0770255 0.151627 0.714625 
-0.0996196 0.118546 0.445002 
-0.00229208 5.16787e-05 -0.0114114 

-0.0164958 -0.0376668 -0.0230717 
0.0309484 0.00798649 -0.00180109 
-0.000111724 0.000907202 0.0202083 

-0.0124331 -0.0163851 -0.108112 
-0.00364348 0.00362213 -0.0402244 
-0.00135205 -0.000853682 0.0265563 

-0.0437027 -0.0124971 0.253947 
-0.0109576 0.0221592 -0.317971 
-0.0111212 -0.00357156 0.068028 

-0.0422735 0.0117671 -0.0687803 
-0.0150394 0.00204826 0.0413992 
0.00100959 -0.000598235 0.0345002 

-0.045248 -0.0174234 0.0485365 
0.02058 0.0225788 -0.105527 
-0.00268536 0.00317987 0.0382193 

-0.0504777 -0.0179928 0.0914492 
0.0236741 0.00408699 0.0177241 
0.0053901 -0.0013901 0.021651 

-0.0257257 0.0059201 0.0512222 
0.00261432 -0.00515881 0.0706178 
-0.00361662 -0.0018153 0.00949942 

-0.0130535 -0.0108888 -0.043667 
0.00894383 0.00437907 -0.0531385 
0.0193307 0.0025273 -0.0533118 

-0.0371442 0.0237035 0.199162 
0.000920667 0.0308315 0.114733 
0.00180757 0.00316921 0.0391694 

-0.169021 0.027488 1.56161 
-0.0185345 0.190747 0.895973 
-0.00120305 -0.00187868 0.0797818 

-0.0558823 0.035566 0.679002 
0.0379415 0.0401017 0.446521 
0.020966 0.0266804 0.0469634 

-0.0115801 0.00633702 -0.011662 
0.00152731 0.0187052 -0.0565185 
0.00626529 0.00389944 0.0634584 

-0.0474022 -0.00771787 0.0603297 
0.00556162 0.03891 -0.0746059 
-0.0452329 0.0483225 0.09477 

-0.0184386 0.0175018 2.6581 
0.00566847 0.0189886 -0.53971 
0.000214461 -0.00132779 0.435137 

-0.104782 -0.0399252 -0.00666416 
0.00863429 0.0983753 -0.503193 
-0.00824433 -0.0167876 -0.0143754 

-0.0258525 -0.0339574 -0.781905 
0.0126575 0.0103442 -0.388455 
-0.000911997 0.00130657 0.179448 

-0.0119472 0.00709775 -0.346472 
0.0122369 -0.017193 -0.133905 
-0.00577665 -0.0138515 -0.0294597 

-0.0233893 0.00813623 0.00152564 
0.00578849 0.00301003 -0.0519648 
-0.0010435 0.0008862 0.0280232 

-0.0109318 -0.00291587 0.0907393 
-0.00247275 -0.00724975 -0.10344 
-0.00298296 -0.00250633 0.028456 

-0.0282233 -0.155388 -0.531463 
0.245937 0.00459449 0.134989 
0.00650766 0.00100198 0.238174 

-0.0663461 0.0231122 -0.269734 
0.00374637 0.0406988 -0.66452 
-0.000397168 -0.00436385 0.13695 

0.021195 -0.0174132 0.0118709 
-0.00767389 -0.0093459 0.015595 
0.00513725 0.000762529 -0.0648322 

-0.0149759 0.0236167 -0.170543 
-0.0328332 0.0603942 -0.237037 
0.00114013 -0.0012885 0.0116387 

-0.0238229 -0.000702382 0.0879819 
0.0125507 0.0166119 0.0675057 
-0.000184719 0.000630704 0.00810345 

-0.0639026 -0.00605914 -0.0218581 
-0.0481665 0.0618158 -0.0856463 
-0.00308023 0.000822507 0.0123281 

-0.0384746 -0.00418891 -0.0640695 
0.0121039 0.0270082 0.345066 
-7.15259e-05 0.00108558 0.0317197 

-0.0228136 0.0252477 -0.0414534 
-0.0271891 0.0110917 -0.00679468 
0.00678213 -0.00304399 0.0224504 

-0.0776455 0.0281212 0.379437 
-0.00746815 0.0229969 0.0298651 
-0.000519844 0.00189461 0.0193883 

-0.0395943 0.0087773 -0.0666209 
-0.00903225 0.0197303 -0.0347306 
0.0283319 0.021523 0.131855 

-0.0642259 0.0259892 -0.0197977 
-0.0243896 0.0343599 0.0286148 
-0.00485814 0.00120029 0.0354332 

-0.0118167 0.00574384 0.123542 
-0.00864818 0.00425568 -0.0130135 
-0.00450777 0.000979131 -0.0476146 

-0.0481439 0.0120038 0.0328226 
-0.0137307 0.0191803 -0.0120293 
0.00227687 0.000552743 0.00745133 

-0.0477767 0.0413203 0.0034633 
-0.0606942 0.0266567 0.143237 
0.00174054 0.00106314 0.0338445 

-0.038898 0.00263632 2.0634 
0.00654374 0.0122307 0.441439 
-0.0014054 0.00132171 0.162201 

-0.0260436 -0.0203907 -0.0102234 
0.00678259 0.031638 -0.0141439 
0.00586557 0.00125452 -0.019877 

-0.0262567 0.0458051 -0.158345 
-6.99235e-05 0.0598712 0.227354 
-0.0944276 -0.0106013 0.8308 

-0.172734 -0.0813349 0.11942 
-0.0673134 0.144287 -0.918803 
-0.0162874 0.000686562 0.128184 

-0.0261018 -0.0680843 0.11468 
-0.0439985 0.0118017 -0.0300969 
-0.0162626 -0.0121812 0.0668627 

0.00457455 0.0216198 -0.0365492 
-0.0237249 -0.00998632 -0.00508878 
-0.000482174 -0.00135792 0.00858766 

-0.0263317 0.0223619 0.0456116 
-0.00444978 0.00896499 0.116597 
0.00725053 -0.00961134 0.0535022 

-0.0334212 0.00566321 0.0296472 
-0.00509134 0.00545126 0.0485232 
-0.000191869 0.00015492 0.0352012 

-0.0360681 0.0130301 0.205583 
0.0015645 0.017867 0.00273687 
-0.017097 -0.0242164 -0.178338 

-0.0581396 -0.0281043 -0.726395 
0.00908521 0.0313979 0.355605 
-0.018878 0.0126889 -0.356468 

-0.0185377 -0.00887869 -0.0507642 
0.0495758 0.0294208 -0.0447704 
0.00153114 -0.000761388 0.0211226 

-0.0508421 0.0646198 -0.0883648 
0.00564476 0.0430625 -0.0611703 
-0.0106356 0.017965 0.159178 

-0.0157831 -0.00563799 -0.0515333 
-0.010092 0.00501853 0.00595145 
-0.000791771 -9.93887e-07 0.0194153 

-0.0316178 -0.0248154 -0.282269 
0.0123265 0.0151245 0.124132 
-0.00150571 -0.00246517 0.0210698 

-0.0258382 0.0714386 -0.0691919 
0.0242276 0.0477084 0.143858 
0.000798608 0.0496861 0.239676 

-0.056891 -0.0492748 -0.0777705 
-0.00459667 0.0213051 -0.0821126 
0.0124992 0.00635396 0.0660177 

-0.0270823 -0.0264929 -0.0939538 
-0.000487496 -0.010463 -0.034128 
0.000762536 0.0329235 0.0681065 

-0.0417968 0.0146737 -0.254306 
-0.00155608 0.0136793 -0.0710936 
0.000603947 -0.00238652 0.00219321 

-0.0499069 -0.0190845 -0.0516843 
0.00753343 0.0439775 -0.158834 
-0.00967059 0.0201951 0.165731 

-0.0565763 0.00243244 0.126591 
-0.00500378 0.0468386 -0.0615904 
-0.00485595 -0.0186168 -0.0076748 

-0.0303083 0.0228995 0.00975134 
-0.0402952 0.00216307 -0.00402349 
-0.003937 0.00142015 0.0258001 

-0.0511428 -0.0626707 -0.215438 
0.0870171 0.0344611 -0.346566 
-0.019571 0.0325236 0.124386 

-0.0354224 -0.00154125 -0.171488 
-0.0136028 0.013388 -0.0301868 
-0.000523922 0.000349541 0.0364898 

-0.0300628 0.0116339 -0.00338916 
-0.00644064 0.011375 0.0178339 
-0.000815616 -0.00122182 0.0374225 

-0.0754631 0.0552971 0.798612 
0.027941 0.0482877 -0.153978 
-0.00246177 0.00160258 0.0625762 

-0.0223259 -0.00993995 0.00434086 
-0.000814413 0.00793658 0.00649698 
-0.00747756 0.0007364 0.0522076 

-0.0203785 -0.000586116 -0.169547 
-0.0275619 0.032171 -0.00932386 
6.71059e-05 0.000204269 -0.0238117 

-0.0490934 -0.0201686 -0.127779 
-0.0168367 0.0440554 0.107625 
0.000439106 -5.15461e-05 0.0198882 

-0.0258338 0.0260834 -0.238849 
-0.00798013 0.0147207 -0.0824907 
-0.000221581 0.0013153 0.0274408 

-0.0587613 -0.0111901 -0.0303011 
0.0261898 0.0467892 0.0148011 
-0.00460513 -0.0028793 -0.029245 

-0.0212387 0.27045 0.173896 
0.248826 -0.0261003 -0.394855 
-0.000474122 0.00394153 0.0429803 

-0.022374 -0.0205989 -0.02584 
-0.000646344 0.00209198 -0.0481214 
0.0204373 0.00312167 0.225014 

-0.11154 0.0926215 -1.12833 
-0.165576 0.109123 -0.457875 
0.00571378 -0.00189192 -0.0839801 

-0.0323772 -0.0203996 -0.0143446 
0.0202811 0.0103843 -0.0280423 
-0.000269355 -0.000426909 0.040986 

-0.0624341 0.0634999 -0.126626 
-0.0696597 0.0151378 0.0334839 
-0.00385279 0.00360819 0.108891 

-0.0262419 -0.0477222 0.0951675 
0.027512 0.0256221 -0.0716369 
-0.0137302 0.0058722 0.171343 

-0.0261247 0.00781462 0.219476 
0.00542485 0.00986159 0.15634 
-0.000950432 0.0248358 0.511012 

-0.0347526 0.0849538 0.417861 
-0.0767109 0.0210548 0.280804 
1.57034e-05 -0.000456011 0.0186339 

-0.0285995 -0.0639414 0.0352137 
0.071237 0.0235661 -0.0225673 
0.0028621 -0.00190965 0.0190978 

0.012638 0.296481 -0.170574 
-0.281076 0.070187 -0.118562 
0.00948874 -0.0052315 0.0831137 

-0.11096 -0.218731 -0.285884 
0.00654653 0.450734 -0.158091 
0.00180405 -0.0698837 0.0986306 

-0.0412895 -0.025836 -0.0247251 
-0.00150865 -0.00104603 0.132508 
0.00318228 0.00893812 0.0692947 

-0.0233462 -0.0140193 0.0250798 
-0.00531918 0.00768491 -0.0265281 
-0.0030549 0.00257263 0.016456 

-0.0419635 0.0190316 0.121705 
0.00669347 0.0169276 0.132115 
-0.000366058 -0.0105048 -0.0370108 

-0.00698395 0.0189375 -0.0130416 
-0.025727 -0.00218237 -0.000108718 
-0.0110866 -0.00888096 0.0637724 

-0.0175617 0.0313523 0.0400943 
-0.0181943 -0.00320832 0.0350557 
-0.000920755 0.00146134 0.0403897 

-0.0325775 0.0546895 -5.11117 
0.0538872 0.0161833 1.14172 
0.00139123 4.15359e-05 0.500538 

-0.0304301 -0.0271497 -0.128555 
0.0298072 0.00764263 0.0655424 
0.000744031 5.16367e-05 0.00564743 

-0.033751 0.0379508 -0.12109 
-0.00793406 0.0261465 0.0824341 
-0.00169409 -0.00838769 0.108006 

-0.0495147 0.030416 -0.0441503 
0.00540625 0.0330393 -0.0368214 
0.000110637 -0.0161587 0.0677857 

-0.033195 0.0150668 -0.0491071 
-0.0165571 0.0126836 -0.0188031 
-0.0021113 0.000648481 0.00802124 

-0.0792197 -0.0157794 -0.0525015 
0.0592035 0.0383944 0.0894541 
-0.00329779 -0.00340979 0.0730667 

0.0185289 -0.0537438 -0.061826 
0.0869793 -0.0235561 0.0189755 
-0.000885471 0.00101102 0.0214678 

-0.0842792 0.0190615 -0.159164 
-0.00358101 0.0361954 0.00382929 
0.00136244 6.9424e-05 0.00271128 

-0.0488946 -0.00446528 -0.503673 
-0.0146512 0.0219634 0.00108972 
0.00045881 0.00438103 0.0199605 

-0.0186453 -0.00908196 0.138142 
-0.0131276 0.00465932 -0.02978 
-0.00193659 -0.00178188 0.0604615 

-0.0399417 -0.0248497 -0.813825 
-0.0149422 0.0212794 -1.2397 
-0.000853039 0.00175032 0.0617422 

-0.0454296 -0.0268014 0.0299701 
0.0521006 0.0287667 -0.032516 
0.000909119 -0.00164912 0.0197269 

-0.0254575 -0.0100846 0.0701564 
-0.00696833 0.00738528 0.283355 
0.0043351 0.00392972 -0.0775735 

-0.0362659 0.0150971 -0.0259615 
-0.0269455 0.0154341 -0.0155542 
-0.00317167 0.00105065 0.00110847 

-0.126558 0.0215589 0.0307222 
-0.024899 0.00840042 -0.0362867 
-0.00335378 -0.00735094 0.183903 

-0.0261718 0.0013044 0.0505926 
-0.0191452 -0.0042757 0.0124491 
0.013202 0.0107647 0.257372 

-0.0440104 0.0174801 0.072728 
0.00588308 0.0112163 -0.0280017 
0.00232805 0.00178652 0.0384757 

-0.0279885 0.00630386 -0.0719126 
-0.00656003 0.00812446 -0.0143938 
-0.00323093 -2.02149e-06 0.00779865 

-0.0450131 0.0357159 -0.7118 
0.0195774 0.0307519 0.633975 
0.00132297 0.00723729 0.653293 

-0.052108 -0.0184876 -1.20892 
-0.00606573 0.0381884 0.994935 
0.000137898 0.000761472 0.120512 

-0.0228834 0.00714286 0.0113505 
-0.00562098 0.0023587 0.00381008 
0.000750382 0.000368044 0.0236929 

-0.0186861 -0.0658668 0.0265395 
0.0759708 0.0262224 0.19489 
-0.00195352 -9.85231e-05 0.0846091 

-0.0607901 -0.00300728 0.00677733 
-0.0454012 0.05329 0.0143759 
0.00549325 -0.0229776 0.0666586 

-0.0200539 -0.0271022 -0.288359 
0.0356912 0.0014042 -0.234147 
0.00541813 0.0037388 0.214021 

-0.0437083 0.0412644 -0.234879 
-0.00693407 0.0202988 -0.11723 
4.43283e-05 -0.00996304 -0.0212731 

-0.0082886 0.022118 -0.0464468 
-0.0106733 0.00990607 0.0128491 
0.000823308 0.000125357 -0.0124129 

-0.00139631 0.0398883 0.160573 
-0.022449 0.00351388 0.0554129 
-0.00106869 -0.00250095 0.0157319 

-0.0173954 0.0105502 -0.0362505 
-0.0271398 0.0011512 -0.06153 
-0.000579304 -0.00143806 -0.0160556 

-0.0551434 0.0256092 -0.0508325 
0.0220289 -0.0125873 -0.0217103 
-0.00555658 -0.000317105 0.123241 

-0.051142 0.0293286 0.0600089 
0.00191317 0.0221262 0.197541 
-0.00189852 0.00609502 0.19212 

-0.0286742 0.00902985 -0.0224171 
-0.0381252 0.0122817 -0.0364223 
-0.0358397 -0.0109774 0.239093 

-0.0364022 -0.0410479 -0.0787555 
0.029452 0.0500424 0.0656342 
-0.00155248 -0.00173448 0.0334237 

-0.0334163 0.0124423 5.39007 
-0.00142117 0.0235368 0.619337 
-0.000304529 0.000826834 0.370114 

-0.0321655 0.0146355 0.136788 
-0.00702649 0.0147962 0.574275 
-0.000487499 -0.000349452 0.00252446 

-0.0489964 0.0410102 -0.258805 
0.00281021 -0.000394703 0.127032 
-0.0313642 0.0224651 -0.0337992 

-0.054214 -0.0144694 -0.0680457 
0.0243588 0.0557933 -0.0526678 
0.0023198 0.00152651 0.00461846 

-0.0218402 0.000861093 -0.000965846 
0.00307115 0.00283039 -0.046964 
-0.00159257 -0.000761523 0.0041863 

-0.0330533 -0.0264147 -2.47264 
0.00452391 -0.00048251 -1.09239 
4.88711e-05 -0.000834844 -0.12845 

-0.0272227 0.00856136 -0.000822859 
-0.00520533 0.0225089 -0.0726161 
0.012409 0.00940722 0.00263936 

-0.0680333 0.01303 0.0223533 
-0.00310058 0.0456548 -0.0965318 
0.0170658 0.00249237 0.0399444 

-0.0105236 -0.0168861 -0.143401 
0.014585 0.0131877 -0.322569 
0.00230472 0.000207949 0.000799343 

-0.122271 0.0771691 0.25433 
0.101909 0.00405594 -0.145342 
-0.0256881 0.0170581 0.191894 

-0.0460736 -0.0234067 -0.23237 
-0.0242921 0.0267975 -0.0247558 
0.000391322 -0.00170605 0.000689741 

-0.0379399 -0.0327877 -0.232928 
0.0679874 0.0459922 -0.135658 
0.000619433 -0.00230468 -0.0121472 

-0.057162 0.234559 -1.1221 
-0.00801508 -0.0157511 -0.110095 
-0.00111779 -0.00235385 0.0290937 

-0.0346386 -0.0100346 0.498175 
0.0200544 0.021628 -0.00829465 
-0.000479234 0.00346501 0.0286464 

-0.0294995 0.0195763 -0.0224462 
-0.0108633 0.0172832 0.00329303 
0.00118061 -0.000137038 0.0289018 

-0.0130603 -0.0343356 0.0606177 
0.0188429 -0.0134455 0.0737894 
0.00682914 -0.00804237 -0.0221203 

-0.0565148 -0.00114935 0.187745 
0.0207145 0.0154188 0.197591 
0.00244174 -0.0164707 -0.0073809 

-0.0122054 -0.0265326 -0.0230206 
0.0223641 0.00642705 -0.0319121 
0.010598 0.00392911 0.0361008 

-0.0178999 -0.0223679 -0.0200016 
0.0223495 0.0066741 0.0524807 
0.00103252 -0.00149115 0.00605622 

-0.0818006 -0.0179657 0.409142 
-0.0202869 0.0357011 0.106778 
0.0130172 0.0148218 -0.0669604 

-0.00861453 -0.0182728 0.0525643 
0.0404463 0.00950742 -0.000134787 
0.000201072 0.00107645 0.00836416 

-0.1807 -0.286963 -0.542308 
-0.0496453 0.195632 0.421838 
0.0178402 0.0332422 0.233164 

-0.118365 -0.0429621 0.184244 
0.0498412 0.0109602 0.10553 
-0.0199546 -0.00767631 0.0921125 

-0.0361391 0.0321915 -0.315451 
-0.0904194 0.00492534 0.480775 
-0.000958002 -0.0010083 0.0112775 

-0.016927 -0.00899264 -0.178998 
0.0144498 0.00923735 -0.208794 
0.00102102 0.00175167 0.0045571 

-0.097497 -0.0658216 -0.0998921 
-0.0634835 0.0897937 0.0866328 
0.00119274 -0.00183263 0.0018893 

-0.0544507 -0.0216356 0.606197 
-0.026242 0.0326782 0.309116 
-0.000863127 0.000227555 0.211682 

-0.0227196 -0.0247938 0.0240969 
-0.0200034 0.0273317 -0.0490087 
0.000458048 0.000172252 0.0119212 

-0.0536487 -0.0313853 0.149203 
0.0239294 0.0271402 -0.148939 
0.0031706 0.00269939 0.0476449 

-0.0466334 0.00408747 -0.809882 
-0.0161189 0.0378201 -0.103852 
0.0304998 0.0117417 -0.241486 

-0.0301362 0.0220979 0.711834 
-0.00321299 0.00899503 -0.0218537 
-0.0016357 0.00158255 0.118697 

-0.0605834 -0.0111801 0.00356907 
0.00196248 0.0291088 0.0582833 
-0.013762 0.033128 0.121862 

-0.0547557 -0.0633999 -0.66839 
0.0210728 0.0902432 0.86859 
0.00728083 -0.00418805 -0.0144492 

-0.0647385 0.0342278 0.0560228 
-0.0108418 0.0517355 1.05774 
-0.000765856 0.000280964 0.153213 

-0.0530926 -0.0137497 -0.214798 
-0.00776342 0.139019 -0.0279517 
-0.0065291 -0.00879685 0.170831 

-0.0521008 0.0281522 -0.109165 
-0.0342918 0.00314486 -0.0444624 
0.0055611 -0.00147838 0.0198506 

-0.0506864 0.0191586 -2.69374 
-0.0171455 -0.00362807 11.678 
0.00102497 0.000840141 0.510378 

-0.0300865 -0.00939911 0.0397285 
-0.00604591 0.0110654 0.0527235 
-0.00083733 -0.00637109 0.0294546 

-0.00729772 -0.013935 -0.118562 
-0.00788269 0.0273127 0.249917 
0.00170856 0.00548136 -0.00778526 

-0.036921 -0.08027 8.78608 
0.000435279 -0.00091758 3.08281 
-7.15558e-05 0.00278844 0.356804 

-0.0219958 0.0358473 -0.218851 
-0.0446504 0.0131285 0.145365 
-0.00257457 7.23326e-05 0.0399999 

-0.123415 0.0655466 -0.0217986 
-0.048268 0.0118525 0.0292726 
0.00693346 0.0106173 0.158682 

-0.0130963 -0.0120713 -0.0346553 
0.0143977 0.00444841 0.0069496 
0.00123662 -7.90121e-06 0.00383449 

-0.0224823 -0.00283419 0.0672968 
-0.0190775 0.00436472 -0.0077771 
-0.00112509 -0.000499135 0.0224751 

-0.0232618 0.00858502 -0.10279 
-0.000394438 0.0126893 0.0342264 
-0.000535847 0.000981424 0.0139845 

-0.0462591 0.0201917 0.119381 
-0.0157616 0.0152883 0.046644 
0.00400711 0.00752316 0.0234885 

-0.0240526 0.0390381 0.0102947 
-0.018383 0.0173342 0.133716 
-0.000202009 0.00265622 0.0128655 

-0.0437756 0.0219433 -0.091932 
0.00950397 0.0430734 0.0853422 
-0.00895583 0.00798214 -0.0575809 

-0.00170192 -0.0251907 -0.151148 
0.00190925 -0.0152257 -0.282305 
-0.00339198 -0.0107975 0.0165015 

-0.0335998 0.0151564 0.0792601 
0.00938565 0.0302704 -0.280176 
0.00844719 0.00053922 0.0799902 

-0.034131 0.00289554 0.097386 
0.0446781 -0.00129208 -0.0691585 
-0.0334008 -0.0374709 0.547195 

-0.0128956 0.0251072 -0.272691 
-0.0228205 0.0340775 -0.15965 
0.00393654 0.00129987 0.011793 

-0.220315 -0.0395441 1.13665 
0.152019 0.126978 -1.07172 
0.00659491 6.73672e-05 0.0161089 

-0.0293135 -0.0111574 0.0314102 
-0.0192237 0.011934 -0.0151428 
0.00707441 0.00288978 0.0237816 

-0.0213056 0.00160865 -0.201062 
-0.00379834 0.00954431 -0.0600467 
0.0126283 -0.00261774 0.267295 

-0.0503215 0.0243551 -0.0456358 
-0.00348523 0.0156346 -0.0144006 
-0.00742796 -0.00567281 0.00355766 

-0.00200535 0.00207235 -0.00579589 
-0.00966539 -0.00384976 -0.109299 
-0.000133555 0.000196618 -0.0143378 

-0.0310949 0.0225596 -0.0293033 
-0.0718473 -0.00205701 -0.0012063 
-0.00596934 0.00241543 0.0341483 

-0.0187085 -0.00127337 0.0313305 
-0.0039664 0.00341147 -0.0141833 
-0.0015294 -0.00110671 0.0149356 

-0.0325795 -0.00840846 -0.00470448 
0.00201529 0.0163958 -0.331228 
0.000650252 -0.000843064 0.0121952 

-0.0353572 -0.015209 0.0846594 
0.0239544 -0.000635463 -0.0769102 
0.00038583 0.000817451 0.0244125 

-0.0271844 -0.00207207 0.0407438 
0.00377693 0.00783632 0.011334 
0.00237272 -0.00214536 -0.0045677 

-0.0337806 -0.0360174 -0.0380904 
0.00204956 0.0349091 0.215419 
-0.0151987 -0.0314774 -0.0403203 

-0.0370562 -0.00049891 0.0129911 
0.0149266 0.0151532 0.0224408 
0.00614519 -0.0023785 0.0581482 

-0.0453375 -0.00251037 -0.343531 
0.00676101 0.0241067 -0.61566 
0.000867113 -0.00020737 -0.0494549 

-0.0895262 0.0150843 -0.0548207 
0.0189595 0.00719189 0.0132973 
0.0051909 0.00745327 0.145509 

-0.0167814 0.0130988 -0.00803181 
-0.000740915 0.000187561 0.0043743 
0.00532468 -0.00653244 -0.0114072 

-0.0417733 -0.0367763 0.0207162 
0.0474711 0.0120257 0.0147311 
-0.000235222 0.00129564 0.0265805 

-0.0981546 -0.0953377 0.032 
0.0708158 0.071864 9.53934e-05 
-0.00562499 0.00335419 -0.109697 

-0.0511658 0.0250182 -0.225414 
-0.0714531 0.0566766 -0.257485 
0.000291273 -0.0114772 0.10459 

-0.0273951 0.00351146 -0.0903083 
-0.0724273 0.017957 -0.120999 
0.00131218 0.000555422 0.00617452 

-0.0340384 0.0149569 -0.139909 
-0.0507722 0.0318357 -0.144592 
0.0379793 -0.00608361 0.574862 

-0.0203932 0.034923 -0.0123661 
-0.0356294 0.010775 -0.177483 
-0.0180306 -0.00764067 0.008901 

-0.00599671 -0.0291478 0.00705015 
0.00340259 -0.00302816 -0.165937 
0.0197791 0.0653583 0.530635 

-0.0333848 -0.0203992 -0.0435278 
-0.00422774 0.0272408 0.0626031 
-0.000151258 0.00232124 -0.00935962 

-0.0410027 0.0273697 -0.0616883 
-0.00782838 0.0094696 -0.181536 
0.000911246 0.000962813 0.0405853 
