# vtk DataFile Version 3.0
Output file generated by Yade's KinematicLocalisationAnalyser
ASCII
DATASET UNSTRUCTURED_GRID

POINTS 13483 float
632.37 28.5519 -0.409998
802.123 52.1463 -0.454807
124.188 6.08485 0.464713
838.936 9.1648 0.362398
517.614 8.00884 0.288383
325.78 35.4246 -0.479933
161.948 6.89545 -0.431045
591.687 10.3773 0.15058
515.679 24.6643 0.134276
749.808 15.5472 -0.515171
217.7 8.81399 -0.101524
265.704 6.35617 -0.284993
683.528 30.303 -0.146478
659.995 14.4699 -0.109223
141.792 17.1634 0.46395
229.284 34.589 -0.395427
225.207 12.9665 0.286648
298.844 9.48245 0.399905
352.796 33.4022 0.436797
543.691 8.64712 0.342329
425.459 37.1453 -0.100602
614.173 44.2479 0.314911
828.805 44.187 0.470632
732.179 48.7658 0.504915
475.53 16.0439 0.292007
249.431 44.7295 0.128852
509.959 28.2363 -0.480583
608.699 20.1519 0.231577
46.4841 15.5029 -0.471546
755.039 41.601 -0.31514
500.152 4.85818 0.328162
17.7291 22.9896 0.313365
814.853 58.4911 0.254127
513.484 2.50852 0.464574
80.825 44.6126 -0.104574
541.207 31.1591 0.334446
550.262 16.6955 -0.409978
355.525 21.9982 0.186247
553.853 25.8122 -0.319427
362.943 33.8034 0.439866
249.55 14.4206 0.332936
449.296 36.1143 0.0678163
707.025 7.97548 0.165143
199.525 6.22065 -0.375068
57.6198 6.92368 0.132702
71.0584 8.90309 0.278381
723.091 10.5004 0.670463
24.4487 11.6135 -0.281994
634.721 45.8935 0.353689
711.09 24.1558 -0.332251
178.393 32.6369 -0.299251
800.154 38.3133 -0.138221
36.392 28.2183 0.111523
554.095 3.04569 0.316511
147.104 7.43766 0.485279
616.538 33.3519 0.362426
522.54 27.1364 0.14491
180.991 0.951605 0.264133
33.9686 2.34945 -0.317352
361.275 17.7329 0.255255
646.482 46.5702 -0.132487
479.598 34.0102 -0.182128
414.322 1.03747 0.193944
732.692 9.70109 0.426754
27.3929 42.8808 -0.236329
265.509 30.5919 -0.295417
749.273 9.09958 -0.306269
701.722 47.2935 -0.365301
433.481 8.52348 -0.503858
592.32 3.70884 -0.346509
779.589 32.3149 0.371335
135.433 7.69642 -0.270047
518.102 27.4107 -0.149988
496.001 14.9618 -0.112697
305.21 16.6926 -0.343356
21.5764 13.5156 0.25663
824.404 53.5138 0.298895
344.978 38.8611 -0.302648
706.671 20.9644 0.323583
721.807 15.2169 0.2134
826.82 12.3935 -0.236399
482.959 34.6515 -0.172615
95.7707 39.1029 0.261802
720.423 39.4136 -0.239061
677.871 40.2446 -0.110357
835.695 49.5603 0.122626
822.62 0.731468 -0.505174
301.918 28.7113 0.460776
648.787 6.37303 -0.119364
25.1724 5.1847 -0.471711
137.86 37.8914 0.152359
533.057 14.254 0.215867
813.224 28.0058 0.507976
202.955 28.7238 0.240876
46.0661 34.4897 0.284787
512.439 1.16524 0.128034
244.534 8.78531 -0.387659
787.884 56.3214 -0.29883
801.505 28.8943 -0.25462
375.371 20.6267 -0.268324
170.194 26.9347 0.42471
572.622 40.8121 -0.427362
394.932 15.0823 -0.488229
430.104 30.1783 -0.0993116
393.254 4.38244 0.406924
570.447 10.643 -0.102695
838.523 21.503 0.241876
83.2477 39.5597 -0.400763
348.643 4.81191 -0.187729
585.03 9.74307 -0.364249
374.69 43.9964 0.46126
27.0262 24.6392 0.474918
31.6683 5.63709 -0.353319
591.556 34.0186 0.403375
525.658 24.7028 -0.141571
27.4411 36.7434 -0.408909
96.9487 31.2529 -0.220726
338.157 15.9686 -0.292305
627.317 19.0617 0.12692
495.51 38.363 0.309707
765.539 7.66356 -0.36696
757.967 7.78839 -0.242806
402.957 37.0352 0.0987504
665.686 26.2711 0.0914162
247.683 17.2058 0.558975
343.71 3.68773 0.468796
107.482 31.9775 0.366687
120.782 24.3309 0.262574
568.006 39.8456 0.0838181
318.97 18.8515 0.48398
750.896 45.0377 -0.106003
706.051 47.4636 0.143102
501.817 20.9087 -0.370666
804.479 11.3396 0.33534
446.627 24.2379 0.233592
289.246 23.8697 -0.302622
708.321 34.9677 -0.270816
290.512 28.9491 0.39701
602.845 12.1571 -0.195297
345.967 35.4838 0.202574
527.102 11.2779 0.469317
382.578 31.4464 0.0814118
449.773 17.1717 -0.101695
331.938 42.4526 -0.332105
199.084 29.8587 -0.123067
806.787 51.8032 -0.158267
835.528 22.5574 -0.426138
6.22932 12.2886 0.422806
453.513 22.8581 -0.409581
40.2058 22.506 0.0826326
393.055 31.3696 -0.470922
413.135 24.693 -0.251608
77.8715 11.7442 0.49498
54.0384 33.5606 0.452309
235.915 13.4974 0.446685
647.92 40.0293 -0.395718
604.913 21.0354 -0.413335
78.4729 20.8654 0.490417
734.258 52.9525 -0.423117
792.694 4.09178 -0.591966
694.449 42.3946 -0.51953
728.534 2.85391 0.496213
576.958 27.5638 -0.436028
615.64 44.3234 -0.514746
536.631 18.153 -0.406963
837.723 5.23829 -0.438735
233.677 24.9315 -0.132445
133.312 34.8767 -0.189208
258.437 6.56816 -0.373157
98.9096 4.20663 -0.276739
67.3584 10.2069 -0.177043
288.434 36.0349 -0.324423
17.4268 24.736 -0.33794
582.539 19.2447 0.380936
634.526 40.7364 -0.236131
485.135 21.344 -0.387028
833.744 60.72 -0.400755
426.474 8.57579 -0.108765
456.195 36.4809 -0.362791
562.67 3.46646 -0.189789
24.2441 23.6733 -0.397975
605.534 4.46051 0.503472
572.546 4.29429 -0.291142
215.834 11.3191 0.487628
445.511 16.3659 0.190788
326.154 6.31026 0.333597
406.646 18.954 -0.32405
779.516 47.7778 -0.140173
201.597 25.5797 0.417169
814.049 6.52764 0.454288
780.442 44.0816 0.355334
402.006 10.2257 -0.1677
748.479 2.20995 -0.544301
636.007 25.3726 -0.41475
772.438 19.5288 -0.37326
451.523 43.0703 -0.302051
521.37 12.6408 0.409342
488.412 44.4028 -0.218464
467.454 8.97217 -0.139606
698 41.7141 -0.315907
696.012 37.687 0.341865
201.432 39.073 -0.335647
824.734 12.3348 -0.113297
617.383 44.6932 -0.256419
12.2371 17.1542 0.174722
427.916 25.2517 0.383352
196.388 23.2699 0.403746
97.4174 40.1196 0.20658
809.465 24.4525 0.40457
692.238 47.5665 -0.246525
334.662 25.5923 0.356287
559.543 10.2382 0.313581
85.9715 44.7431 -0.169021
259.366 25.7652 -0.465504
585.834 25.5874 0.381306
512.022 19.5743 0.422567
275.443 0.889086 -0.343046
581.504 43.2133 0.392401
561.187 40.7717 -0.545165
506.792 33.9258 0.396808
524.263 0.822616 -0.53879
738.557 24.9089 0.355083
188.349 12.0172 0.170864
526.405 38.4829 0.440409
593.702 43.2934 -0.169674
76.6259 0.945255 -0.273413
263.876 4.67766 0.159701
834.343 24.0439 0.20369
827.058 14.3173 -0.471352
840.287 27.5953 -0.481057
318.46 8.5859 -0.230699
779.142 24.7836 -0.445581
427.12 42.244 0.353291
471.657 0.812277 -0.394159
684.026 37.9903 0.452644
28.3471 30.5058 -0.309376
347.016 41.5308 -0.572141
264.81 2.84751 0.326605
819.046 58.8269 0.210384
755.026 57.5542 -0.00510225
301.533 10.8695 0.221938
703.278 32.0112 0.0847185
586.853 2.58512 0.263644
570.216 6.3521 0.426708
101.459 18.502 -0.491888
318.381 1.03618 -0.227081
360.505 2.27668 -0.357915
14.6134 7.64074 0.366198
4.55455 30.8839 -0.234953
170.023 18.9948 0.353928
71.6314 41.7435 0.206562
70.1821 28.835 -0.330354
445.385 14.6176 -0.405964
385.718 34.9888 -0.476828
798.497 39.8826 -0.110484
20.3874 4.03332 0.263941
74.161 6.86824 -0.139556
658.559 39.3436 -0.193744
309.474 0.95051 0.309609
383.554 16.1193 -0.0921507
247.34 4.6586 -0.380429
688.15 22.2289 -0.20985
474.908 8.4157 0.409007
781.742 21.5855 0.373025
664.971 29.8325 -0.309211
705.922 19.0699 -0.103487
441.97 26.5132 0.512426
107.445 45.0145 0.321419
570.739 44.3359 0.0751584
769.748 13.8295 0.267797
249.806 30.9196 -0.249134
33.7909 17.1584 0.183097
353.477 13.6994 0.503528
112.936 40.5692 -0.469415
281.304 42.1692 -0.194503
447.857 1.57717 -0.294341
815.09 38.1207 -0.437738
723.809 0.789006 -0.532252
349.214 3.20105 0.528471
315.695 26.626 0.138536
487.031 41.3121 0.216265
85.6604 7.96125 -0.445301
208.006 44.9252 -0.37847
805.045 31.8489 -0.385624
521.429 40.6812 -0.0940589
210.373 41.1454 0.268079
169.063 42.5513 0.0976805
839.868 44.5874 -0.390632
837.364 22.7007 -0.545799
639.504 3.56879 -0.463025
200.093 24.5429 -0.0948651
578.734 29.8107 -0.109855
580.626 28.9776 0.262394
431.075 5.62131 -0.14262
507.307 0.92064 -0.293133
796.34 42.2194 0.510981
89.591 31.3845 -0.213553
694.535 19.2412 0.436328
288.35 15.4662 -0.337249
10.1397 2.33222 -0.345732
131.868 36.8393 -0.199067
70.5662 23.3104 0.473197
743.694 45.8793 0.365432
821.273 66.6217 -0.0342123
195.302 28.2928 -0.177392
833.485 19.8673 0.285629
47.4664 36.5263 0.254367
95.1923 28.7875 0.160828
669.363 12.9772 0.474766
436.096 18.7804 -0.45185
546.92 16.7893 0.107966
250.199 28.983 0.193922
656.032 4.16535 -0.496525
840.919 20.3121 0.362365
31.4843 31.6328 -0.268981
284.035 7.70201 0.183697
233.743 15.342 0.264317
1.10036 35.8187 -0.153381
237.024 14.6841 0.365395
222.651 10.953 -0.110738
225.32 26.0849 -0.296686
139.812 27.7404 0.135023
576.61 15.0059 -0.337083
175.792 14.1933 -0.347403
813.967 55.1822 -0.220287
183.088 3.84124 -0.504549
49.766 37.9602 0.385874
779.408 57.6227 0.426936
295.733 31.5308 0.400157
714.844 27.4335 -0.421671
822.357 48.6691 0.487181
316.485 9.20315 -0.106652
771.171 33.2314 0.357774
346.039 2.58764 -0.38284
438.239 23.8886 0.354063
712.376 16.9325 -0.500915
110.956 11.8232 -0.397339
509.109 3.78848 -0.514359
784.043 19.9965 -0.165651
93.0687 7.69033 0.2042
296.365 14.6223 0.181445
446.561 11.9201 -0.234852
836.476 5.24722 0.606558
419.378 1.96145 -0.520128
186.196 38.975 -0.303142
772.16 10.6176 -0.350681
135.175 35.9572 -0.174937
276.858 31.2767 -0.371176
422.374 21.5555 0.214396
605.562 14.0544 0.303399
408.042 9.87906 -0.475557
481.396 27.7452 -0.409521
803.501 51.4148 -0.416864
50.2636 10.7737 0.100236
314.886 38.5851 -0.266037
399.733 26.0897 -0.399611
432.205 20.8243 0.252855
550.209 45.126 0.356563
795.504 54.1992 0.213157
701.953 37.7771 -0.368058
237.664 34.7807 0.209045
14.6976 31.3677 0.171086
694.211 38.5193 -0.117669
537.22 42.4421 0.468726
241.614 39.8074 -0.101974
723.071 35.1257 0.111271
159.167 9.28261 -0.207832
386.56 21.9768 0.279561
488.899 42.2856 0.112803
436.395 20.5047 0.18639
799.669 55.4795 -0.330803
449.406 3.83602 0.498937
52.44 25.2951 0.319263
495.898 32.1548 0.346709
457.812 41.5623 0.388596
819.706 50.482 -0.219888
770.616 31.4539 -0.258248
571.377 19.138 -0.145228
811.923 46.6895 0.436498
308.766 2.18401 -0.44723
399.751 29.0987 -0.462682
30.6405 38.6695 -0.297196
779.117 36.4739 -0.15429
644.115 21.1899 -0.534793
488.187 0.769634 -0.477755
132.779 4.56438 -0.271892
449.187 40.6086 0.106491
12.6657 0.91979 0.341708
835.465 8.7801 -0.138685
[...]
POINT_DATA 13483
TENSORS Strain_matrix float
-0.0432707 0.00197812 0.498141 
0.014357 -0.0178235 0.121541 
-0.000722199 -0.00106795 0.0680872 

-0.14246 0.0260728 -14.426 
0.0158893 0.410368 -19.4431 
0.0419213 -0.0319658 1.41392 

-0.0208712 -0.00864079 0.635955 
0.00838368 0.00709823 0.498587 
-0.0148204 -0.000335377 -0.115491 

-0.13372 -0.318071 -2.12656 
0.520845 0.313368 1.01508 
0.131144 -0.0694216 0.532123 

-0.149461 -0.00199052 0.0813623 
-0.0228686 0.0857909 -0.257118 
0.0135695 0.0188574 0.25769 

-0.00980649 0.00114851 -0.00299292 
0.00426213 0.00782849 0.569011 
0.00140589 -0.000570045 0.103954 

-0.0221949 0.00365559 0.0226197 
-0.00123566 0.0088451 0.00990709 
-0.000320467 0.000327464 0.00527362 

-0.0269905 0.0370367 0.02735 
-0.00229104 0.0122681 -0.00883977 
-0.00362952 -0.000496152 0.0151167 

-0.180967 0.1188 0.880168 
-0.0179434 0.190686 0.570412 
-8.43031e-05 -0.000524069 0.0286172 

-0.371749 0.189637 1.36809 
-0.14912 0.231985 -2.51985 
-0.0216092 0.0233303 0.284052 

-0.0111439 -0.00479786 -0.0382337 
0.00707251 0.00267243 0.0419095 
-0.000105653 0.000186365 0.00378537 

-0.0132126 -0.0052081 -0.00327744 
0.001539 0.00436347 -0.000348972 
0.00335225 0.000557967 0.0334067 

-0.0797361 -0.197208 0.468005 
0.0167454 0.10346 -0.243806 
-0.000682395 0.000973943 0.0624171 

-0.0555071 0.082777 0.232926 
-0.09108 0.0342116 0.00973979 
0.0156244 -0.016509 0.348163 

-0.0119934 -0.00337919 0.0629461 
0.00312947 0.00712863 -0.0228712 
-0.000270255 -0.000592371 0.01466 

-0.0170128 -0.0256843 -0.136451 
0.0290327 0.00633068 -0.0660487 
0.00102008 -0.00291819 0.0232235 

-0.0141501 -0.00917903 -0.00640658 
0.00721168 0.00300696 0.00573677 
-0.000202475 -0.000301147 0.00860016 

-0.0156267 -0.0062107 0.00726009 
-0.000463804 0.00340691 -0.00904089 
7.02499e-05 0.000197312 0.0213967 

-0.0116736 -0.0677355 -0.0312136 
0.030743 -0.00707447 0.00838977 
-9.94293e-05 -5.65022e-06 0.0220388 

-0.0237383 0.00705715 0.109968 
-0.0368308 0.0175937 0.114891 
0.00112762 -0.000851384 0.0773846 

-0.0684397 -0.0184216 0.0471089 
0.0374083 0.0142808 0.119893 
0.0175268 -0.00870809 -0.0613166 

-0.086784 0.086313 -0.0675096 
-0.0567127 0.168911 1.40354 
0.0044689 -0.00696156 0.206926 

-0.0197202 -0.072113 -0.137265 
0.0813484 -0.0138369 0.121105 
0.00899394 -0.00765797 0.0796578 

-0.0123142 -0.0685645 3.15636 
0.181022 0.032938 -1.41864 
-0.0126599 0.0177439 0.269706 

-0.0175429 0.014574 -0.0524834 
-0.0595658 0.000437362 0.249295 
0.00359095 0.00443743 0.0109002 

-0.0132195 -0.00144592 -0.00283838 
0.0125475 0.00669455 -0.00411874 
-0.00214903 0.000418897 0.00435526 

-0.0487494 -0.012743 2.32991 
0.0554884 0.0402326 1.8671 
-0.00125123 -0.000702792 0.454347 

-0.0305052 0.0109774 0.393321 
-0.0245603 0.00346738 0.828175 
0.00133507 0.00338247 0.0668215 

-0.0150586 0.00167844 -0.304577 
-0.00795073 0.00700513 -0.731901 
0.000999524 -0.000430006 0.0792145 

-0.167517 0.570042 -0.551573 
-0.148413 0.252955 0.642513 
-0.0405346 -0.000987436 0.280993 

-0.0118259 0.0121072 -0.0579482 
-0.0294708 0.00213756 -0.0144507 
0.000706088 -0.00121006 0.0288003 

0.00293796 0.00146374 -0.0453595 
-0.0323283 0.00643079 -0.0535681 
0.00445104 0.00332631 -0.00396986 

0.0641848 -0.264533 0.143582 
0.36566 0.0706031 0.0550299 
0.00676493 -0.00907002 -0.0885371 

-0.0747365 0.00042557 -0.0891775 
0.0395906 0.0611913 -0.131248 
0.0215348 -0.0701663 0.285206 

-0.010247 -0.0361943 0.0195039 
0.0238256 -0.0134 0.0533122 
-0.000181495 0.000735535 0.0100327 

-0.0428898 -0.0352895 -0.111337 
-0.0776518 0.00307897 -0.0875095 
0.000331687 0.0034651 0.0068001 

-0.0229463 0.0121994 -0.135533 
-0.00469642 0.029655 -0.0320589 
-0.00166892 0.00937372 0.0612394 

-0.0598926 0.109102 0.0993581 
-0.0210042 0.103801 0.0630536 
-0.000442377 -0.000443575 0.00919808 

0.00667211 0.025554 0.0151245 
-0.0184059 -0.00415332 0.0324901 
-0.00109759 -0.00127332 0.00301356 

-0.0469898 -0.0235424 -0.131227 
0.00347761 0.0307889 -0.023871 
-0.00773257 0.00133623 -0.254814 

-0.0588162 -0.0332281 -2.61672e-05 
0.00748102 0.0430159 -0.0966212 
-0.00354229 0.0027705 0.0482434 

-0.00437382 0.0340686 0.061938 
-0.00742372 0.00996158 0.0161108 
0.00360469 -0.00347234 0.0557489 

-0.264864 -0.0933445 0.143817 
0.14302 0.139762 -0.0923798 
0.00312063 0.0444763 0.460355 

-0.0166242 -0.00422436 0.0631939 
-0.00585058 0.00399889 -0.00248214 
0.00421797 0.00347777 0.00895011 

-0.0182695 -0.00284772 -0.0380557 
-0.0160947 0.00580263 0.0181368 
0.000185341 0.0014871 0.0141683 

-0.0159913 -0.000354872 -0.0104518 
-0.00408612 0.00427466 -0.00347665 
0.000266644 5.52143e-05 0.030521 

-0.302583 -0.0168805 -7.46689 
0.115836 0.183302 -8.28985 
0.0125432 0.00943896 0.409792 

-0.00851491 0.0263302 0.0012336 
-0.0256861 -0.00260168 0.000250602 
-0.00423342 -5.1997e-05 0.0341344 

-0.016225 0.0423615 -0.0491261 
-0.0416567 0.0121358 -0.0099331 
0.000315348 0.000303239 0.0142781 

-0.353177 -0.00558379 0.250722 
0.286887 0.273576 0.823413 
0.0236104 0.00981773 0.143398 

-0.0106522 -0.00358515 -0.0223606 
0.00409289 0.00177015 -0.000610324 
0.000144896 0.000712627 0.0108125 

-0.0513261 -0.0152296 0.449974 
0.261066 -0.0604196 -0.355404 
-0.0198973 -0.0367186 -0.126989 

-0.00347486 -0.0084544 -0.0488399 
0.0106964 -0.000759532 0.0534488 
0.0034398 -0.00166158 0.0169928 

-0.0348347 0.00956999 0.0207876 
-0.00743961 0.0179001 0.00305548 
0.000378308 -0.00101644 0.0164864 

-0.0164838 -8.63466e-05 0.150672 
-0.00127342 0.00570609 0.472093 
0.000105097 -0.00204632 -0.0133088 

0.0437556 0.0130192 0.810271 
-0.00840632 -0.0316782 0.420772 
0.0324845 0.0176493 0.0047626 

-0.12824 0.33836 1.1613 
-0.310273 0.210881 0.334967 
-0.000248208 0.0010939 0.00144596 

-0.0137454 0.031424 -0.0665124 
0.000470845 0.00132355 -0.000481754 
-2.48916e-05 -0.00877663 0.021182 

-0.00704973 0.0101294 -0.0347628 
-0.0141176 0.000630948 0.0304359 
0.00268976 0.0021169 0.0274142 

-0.00461823 -0.0162167 -0.100245 
-0.0111738 0.016732 0.0207958 
0.00152322 0.00138421 -0.0239896 

-0.0285686 0.0252797 -0.0426343 
0.00680681 0.0801075 -0.0242207 
-0.00482951 0.0117301 0.0276881 

0.00968485 -0.0450863 -0.36386 
0.00805235 -0.00603547 -0.128249 
0.00149945 -0.00278298 -0.0182255 

-0.00846918 0.00172071 -0.0104685 
-0.00100307 0.00283521 -0.00214413 
5.74125e-05 -0.000937803 0.0105172 

-0.527144 -0.0880803 -0.797107 
0.049603 0.2385 -0.230712 
-0.00697965 0.000107417 0.465203 

-0.0176858 0.0022462 -0.0181209 
-0.00838029 0.0101159 -0.0114215 
-4.24484e-05 0.000370661 0.00461333 

0.00372114 0.0226242 0.0326064 
-0.018658 0.00330807 -0.0264792 
0.0181736 0.0164058 -0.0903674 

-0.263248 0.288006 0.0935422 
-0.0675621 0.0684452 -0.17067 
0.0393867 -0.0511659 0.362334 

-0.0139216 -0.10771 0.0792516 
0.105192 0.02248 -0.0657443 
0.0429006 -0.0132709 0.714119 

-0.0159509 0.00149344 0.369469 
-0.00592157 -0.00323536 -0.386119 
-0.000208857 0.00154524 0.0720117 

-0.0509543 0.0587926 -0.0294946 
-0.0810672 0.015503 -0.224784 
0.00711661 0.00182992 0.0709581 

-0.0783693 0.46042 -0.460357 
-0.136708 0.0621094 -0.14028 
-0.00799777 -0.0104333 -0.0648284 

-0.0133516 -0.00290243 0.0164735 
-0.00197872 0.00484105 0.0133255 
-0.00171639 -0.000271287 0.0128553 

-0.227053 0.201863 0.782335 
0.0281746 0.145899 0.464742 
0.00108439 0.000672574 0.0578217 

0.0111061 0.0332866 -0.0423355 
-0.0230821 -0.0162735 0.0636129 
0.00289146 -0.000603117 -0.00436383 

-0.00937864 -0.00657094 -0.0811961 
0.00732192 0.00770693 0.00985515 
0.000416792 0.00042303 0.0260671 

-6.84839e-05 0.0247583 -0.00917134 
-0.0200446 -0.00316584 0.00754919 
-0.000667937 0.00153796 -0.00307702 

-0.188296 0.306408 -2.00061 
-0.0297344 0.243573 -1.66296 
0.00949351 0.0114737 -0.0570594 

-0.0288836 0.012572 0.0920535 
-0.00913924 0.00779468 -0.0492044 
-0.00282974 -0.00306572 0.0551004 

-0.0793706 0.219268 0.492818 
-0.176761 0.116252 -0.86121 
0.0529062 0.015339 -0.175608 

-0.160965 -0.196698 0.273714 
0.389771 0.238988 0.217062 
0.00729656 -0.0178564 0.0271508 

0.0222825 -0.211749 0.0764562 
0.265277 0.0353914 0.016759 
0.000649639 0.00203116 0.0331252 

-0.0130012 -0.0456962 -0.259091 
0.0292011 -0.00265137 -0.0262925 
0.000459379 -0.0014798 -0.015727 

-0.0157768 -0.00450384 0.127689 
0.0157408 0.00157478 0.0209084 
-0.017567 0.00117489 -0.0639854 

0.0138671 -0.0720764 0.253889 
0.0239014 -0.0189484 0.17523 
-0.0571391 0.0185096 0.305749 

-0.0831585 0.0129147 -0.0220056 
0.0209998 0.0212857 0.0307446 
-0.000893492 -0.000762219 0.0625728 

-0.036307 -0.204085 0.00977983 
0.150021 0.0354979 -0.166126 
0.0460924 -0.0219534 0.380152 

-0.0717698 1.03251 0.683188 
0.0578898 0.0919232 -0.755498 
-0.00402678 0.0668536 0.206144 

-0.0243276 0.00105667 0.0196389 
-0.00558504 0.0121201 0.0114429 
-0.000130923 -0.000190217 0.035412 

-0.0229986 0.068825 -0.015634 
-0.0489491 0.0121688 -0.021257 
0.00468533 0.00286621 0.0276034 

-0.0163656 0.00987664 -0.0126667 
-0.0031994 -0.00136753 0.0432686 
-0.000156737 0.000110311 0.0467677 

-0.00892024 -0.0212751 -0.0123369 
-0.0042621 -0.000119211 0.0195463 
0.00704672 -0.0117607 0.00882871 

-0.256436 -0.0921007 0.255931 
0.0846416 0.170555 -0.0626327 
0.00808266 -0.00585568 0.0309494 

-0.0796792 -0.189457 0.365489 
0.190755 0.11313 1.98795 
0.0117557 0.0044782 -0.0511179 

-0.0135032 -0.00363184 0.0203737 
0.00137579 0.00976522 0.0265854 
0.000331753 -0.00031064 0.00941338 

-0.01166 0.0224187 -0.0700303 
-0.0180358 0.00523324 -0.00553261 
-0.00076455 -0.000160293 0.0057139 

-0.0330138 0.106471 -0.231237 
0.0218802 0.0167853 0.0121226 
0.000620256 -0.231123 0.527223 

-0.021703 0.0076434 -0.0189492 
0.00129632 -0.0050794 -0.0269808 
-0.000343004 -0.000290151 0.0467444 

-0.125228 -0.344586 0.255825 
0.527251 0.278708 -0.178442 
-0.00326777 0.00173351 -0.0127061 

-0.208703 0.127491 0.461051 
-0.0896005 0.157035 0.144997 
-0.00274649 -0.000341667 0.0579675 

-0.0235812 -0.0951743 0.022552 
0.0169761 0.0656148 -0.0274746 
0.000945097 -0.000943654 -0.00135556 

-0.00706733 0.00282253 -0.0472185 
-0.000808852 0.0022751 0.293634 
1.25754e-05 0.000423292 0.031263 

-0.0257793 -0.18776 -0.140578 
0.1684 0.0797471 -1.34391 
0.0145959 0.00704485 0.33526 

-0.0125701 -0.0043559 -0.0756886 
-0.000734982 0.00404101 -0.141769 
0.000119748 0.000320559 -0.0100786 

0.0119492 -0.102619 0.0238636 
0.153381 0.0184128 -0.103246 
-0.0123514 -0.00391219 -0.0209144 

-0.0113556 -0.00291759 0.00107178 
0.000277612 0.0072266 0.0263542 
-0.00032311 -0.000299752 -0.00499841 

-0.0261737 0.104299 -0.0746712 
-0.128489 -0.00201235 -0.0739181 
0.0255476 -0.00278175 0.111837 

0.0355837 0.0876793 -0.00472568 
-0.0497017 -0.0524463 -0.195046 
0.0235109 0.0415662 0.0540814 

-0.0178475 -0.00189749 -0.0815054 
0.00660677 -0.000500793 -0.0907967 
0.000268826 0.00231748 0.00403968 

-0.0231249 0.00924189 0.0187814 
0.00665948 0.00115986 -0.00734769 
7.56493e-05 0.00186349 0.0416182 

-0.0433993 -0.00872822 -0.030622 
0.0243312 0.00741411 -0.0693216 
-0.00316703 0.00298318 0.0700615 

-0.00910483 0.0114092 0.452139 
-0.0131464 -0.0178041 -2.17575 
7.245e-05 -0.0010077 0.0661584 

-0.0578264 -0.0414748 0.76906 
-0.0399694 0.0330759 0.571158 
-0.00223108 -0.0018794 0.0434551 

-0.00261248 0.00500996 0.0346365 
0.01133 -0.00761762 0.0152706 
0.000636498 0.000347394 0.0139892 

-0.232215 0.176252 2.09749 
-0.0823006 0.23928 -0.00788843 
-0.00391848 -0.00666147 -0.211127 

-0.0226608 -0.0234086 0.0514712 
0.0242927 0.00409913 0.373086 
0.0243032 0.0281237 0.19828 

-0.0143849 0.0020982 -0.111795 
-0.005049 0.00787135 0.0656765 
0.0075605 0.00879454 -0.0434782 

-0.0569815 0.0794426 -0.125444 
-0.012231 0.0796822 -0.144733 
-0.00061341 0.00205446 0.00626032 

-0.066421 0.0184385 0.234606 
0.0141224 0.115293 0.178612 
-0.0322267 0.0249702 -0.00285309 

-0.0874891 0.0178731 0.00330242 
-0.0383209 0.0654085 -0.125551 
0.00126887 0.000318659 0.00430605 

-0.0216841 -0.0183858 -0.09533 
0.0192909 0.0123021 0.157358 
0.000388563 0.00133619 0.0134145 

-0.0332519 0.157616 0.0411553 
-0.0772799 -0.00110244 -0.0561192 
-0.00306525 0.00018183 0.0551627 

-0.207139 0.119246 -0.309781 
-0.188094 0.116426 0.00417132 
-0.00185048 0.0221992 0.237391 

-0.00955286 1.96736e-05 0.00350951 
-0.00210771 0.00346906 -0.00422972 
0.000204762 0.000471166 0.0117784 

-0.0837016 -0.0497951 -0.213473 
-0.047958 0.0849793 0.257883 
0.0027769 -0.0023496 0.0380986 

-0.0181755 -0.0207414 -11.0617 
-0.001332 0.0361269 13.1697 
-0.000123129 0.000732933 0.669303 

-0.0120699 0.00606406 -0.123198 
0.000669178 -0.00111001 0.07716 
-0.000883553 -0.000476807 0.0203594 

-0.00549209 0.0041455 0.0364708 
-0.016463 -0.001176 -0.034225 
0.00319575 -0.00266322 0.017296 

-0.025532 0.017688 -0.0782708 
0.0556317 0.00929957 -0.0529381 
0.00454415 -0.000269964 0.0191437 

0.0124706 -0.136277 -0.0140947 
0.12759 0.0327843 0.0211734 
-0.0169729 0.020883 -0.000537824 

-0.0143409 0.00523535 -0.751472 
0.0206265 0.0118962 1.47236 
-0.00148907 -0.00640981 -2.07877 

-0.116209 0.0579113 0.155648 
-0.0140868 0.0492294 -0.151762 
0.00660374 -0.00113458 0.0192677 

-0.021079 -0.104082 -0.0122606 
0.141665 0.0123291 0.00384807 
-0.000686151 0.00177471 0.0393124 

-0.0205501 -0.00263765 1.05805 
0.0795923 0.0281125 0.874534 
-0.00114956 0.000853877 0.0188721 

0.00189096 -0.0616356 0.114212 
0.0711221 -0.0147749 -0.0745918 
-0.0100166 0.00488034 0.109628 

-0.111123 0.00601762 -0.0838406 
-0.111413 0.0995544 0.0384443 
-0.00142478 0.0023455 0.023784 

-0.0245375 -0.00499433 0.0868296 
-0.00354966 0.00676686 0.0324971 
-0.000627655 0.000719297 0.00248688 

-0.099509 0.0781112 0.486872 
0.195136 -0.00556088 -1.33329 
0.00193847 0.00101746 0.0192247 

-0.012379 -0.00305989 0.15469 
0.0041089 0.00943171 -0.0757859 
-0.0010512 0.00230094 0.116175 

-0.0409265 0.0872031 -0.0069133 
-0.0325355 0.00200769 0.0726982 
-0.00384904 0.00278385 0.0813701 

-0.00423401 -0.0282929 -0.00238999 
0.00517748 -0.00115528 0.120481 
0.0184903 -0.0219101 0.127543 

-0.0308418 0.0382767 -0.0775806 
-0.0371115 -0.00737639 -0.0684325 
0.0253064 0.00758639 0.0733964 

-0.00810468 0.0325848 0.0143986 
-0.0456963 0.00818806 -0.0310801 
-0.000642393 0.00114923 -0.000963023 

-0.00675055 -0.0166685 -0.131766 
0.0557791 0.0298257 -0.283187 
-0.00103572 0.0131764 0.0943871 

-0.0126541 -0.00408223 0.0709711 
0.00654458 0.0144932 0.0829364 
0.0235008 -0.0207202 0.415942 

-0.0157387 0.00375595 -0.00417571 
-0.00603666 0.0171045 0.0329577 
-0.000492193 4.82678e-07 0.0027029 

0.0357872 -0.305296 -0.00117355 
0.347876 0.089431 -0.0444128 
-0.00652672 0.00316387 -0.0195223 

-0.0607823 0.0349857 -0.923044 
0.162404 -0.00605478 0.316133 
-0.0654033 -0.0332682 0.174272 

-0.0108222 0.0159267 0.0278582 
-0.011347 0.0081588 -0.0520931 
-0.000107896 -0.00107551 -0.0164007 

-0.0350684 -0.0634426 0.331633 
0.0530195 0.0142539 0.297472 
-0.00843951 0.00728551 -0.0738547 

-0.053502 -0.0356596 -0.165204 
-0.0168032 0.0253271 -0.0412122 
0.00049057 0.00107521 -0.0139137 

-0.00737592 0.00618745 0.0347652 
-0.00449012 0.00971073 -0.597817 
0.000235166 -0.000196989 0.0454627 

0.00745816 0.000362925 0.00504308 
0.0101033 -0.000597308 0.0204381 
0.000449593 -5.59415e-05 -0.00502141 

-0.0238023 -0.00254236 0.270459 
-0.00535339 0.00885247 0.231485 
-0.0141708 0.0101595 -0.00172335 

-0.0175678 0.00621372 -0.0857289 
-0.0101214 -0.000466877 0.0757128 
-0.000606932 0.00062648 -0.00520802 

-0.0152666 0.0325519 0.0849184 
-0.0260322 0.0177207 0.189002 
0.000535738 -0.00108137 0.100474 

-0.0173266 -0.0115436 -0.0276791 
0.0177769 -0.00726719 0.012542 
0.00246669 -0.00211143 0.050837 

-0.017622 0.0893461 0.637734 
-0.127687 0.0160418 0.0222883 
-0.00336802 0.00454353 0.0996831 

-0.0178006 0.00875694 -1.01181 
0.0033005 0.0122378 0.102758 
0.000508868 -0.000336349 -0.00304683 

-0.014832 0.0384955 -3.0747 
0.118666 0.0065174 2.3854 
0.0422533 -0.107398 1.7217 

-0.0390785 0.0461123 0.0766894 
-0.0463844 -0.00255066 0.157253 
-0.000679421 -0.00589235 0.00986045 

-0.0208406 -0.0436248 0.192318 
0.0236716 0.0035132 -0.575345 
0.00422964 -0.0106375 0.482773 

-0.57818 -0.00984236 0.0977189 
-0.306521 0.322489 0.216166 
0.116661 -0.0927878 0.643248 

-0.108956 0.0631306 -1.54306 
0.14245 0.0595977 -0.33314 
-0.00163252 -0.0325674 0.0861122 

-0.0552315 0.026116 -1.47099 
-0.0398803 0.258652 -25.5885 
0.00076535 -0.00639995 0.364471 

-0.0954102 0.0436871 -0.320184 
-0.123725 0.0634928 0.651461 
0.000924151 -0.0026464 0.153843 

-0.199942 -0.208522 -0.47508 
0.831924 0.0506103 0.552826 
0.028902 0.130915 0.224938 

-0.00849581 -0.000724197 -0.0251301 
0.00706743 -0.000921991 0.00756115 
0.00115423 -0.000658215 0.0204282 

-0.00878756 0.00268936 0.0497901 
-0.0308128 0.00556048 0.0243588 
-0.00169879 -0.00324108 -0.0193614 

-0.0132247 -0.00551017 -0.0129432 
0.00350324 0.00420865 0.00493212 
-0.0017511 0.00344771 0.00296147 

-0.0279554 0.00309238 0.0435241 
0.0056286 0.013888 -0.0296359 
0.000153226 0.00143836 0.0486446 

-0.0146451 0.00177414 7.88543e-05 
0.000373908 0.00776109 0.0161454 
8.02075e-05 0.00100059 0.00241112 

-0.0136052 0.00136333 -0.0429734 
0.000955236 0.00158869 -0.00327593 
0.000619811 -0.00171166 0.0251603 

-0.00804861 -0.0121122 -0.0237268 
0.00250738 0.0541465 -0.220868 
0.00295346 0.000642298 0.00194692 

-0.0640566 0.0393606 -0.512342 
-0.010167 0.05826 -0.014319 
0.00452229 0.0104506 -0.0764609 

0.000470342 0.0587597 -0.057035 
-0.0469923 0.00595079 -0.0450826 
-0.0139598 -0.0313784 0.0513549 

0.016336 0.0253438 -0.463572 
-0.0272126 -0.0345035 0.779579 
0.000153109 0.00367974 0.0173468 

-0.19882 0.109901 7.43612 
-0.0878365 0.0768967 0.865379 
0.00913969 0.0273022 -0.332099 

-0.0212769 0.000362315 -0.0274063 
0.00960546 0.00493484 0.00456962 
-0.00588633 -0.0413923 0.124407 

-0.00842241 0.0273553 0.0715422 
-0.00542237 0.00499362 0.0743359 
-0.00590966 -0.000743685 0.0335228 

-0.0818429 -0.0466213 -0.0285524 
0.00437512 0.0200332 -0.0925635 
0.00666017 0.013522 0.0731105 

-0.0656756 -0.0565335 0.250991 
0.0262114 0.0958443 0.550513 
0.000797454 1.97853e-05 -0.0207671 

-0.0494106 0.00274449 0.103525 
-0.00983177 0.0026626 -0.0711508 
0.00198469 0.00319682 0.0199416 

-0.0164168 -0.0208923 -0.0116453 
-0.000496236 0.00895116 0.0205026 
-0.000952307 0.000344037 0.0124654 

-0.0156086 -0.00507174 1.13383 
0.00583733 0.00502711 0.673787 
-0.000906633 0.000565738 -0.0135741 

0.000494392 -0.0497363 -0.00616269 
0.0256789 -0.0281636 -0.118683 
-9.71022e-07 0.00110211 0.00175745 

-0.0260238 -0.0166814 0.0319551 
0.0144262 0.00540984 -0.0181691 
-0.00316335 0.00616133 0.0476102 

0.00517569 0.000897812 -0.0165796 
-0.00167623 -0.00543772 -0.000319729 
7.10344e-05 0.000528409 -0.00519 

0.0993618 -0.522906 -0.630126 
0.536375 0.20066 -1.08527 
-0.0324449 -0.012304 0.707991 

-0.0142303 -0.00218722 0.0116005 
0.000632181 0.0055688 -0.014464 
0.00129572 3.68055e-05 0.0267042 

-0.0675692 -0.0690121 0.0569478 
0.0624904 -0.0136917 0.104085 
-0.00487235 0.00808548 0.150338 

0.0609553 -0.3182 0.0961356 
0.423298 0.0756316 -0.243248 
0.0385182 -0.00571274 1.05844 

-0.00758274 -0.00198962 0.0381141 
0.00959781 0.00558739 0.0565285 
0.000807015 0.000943602 0.019746 

-0.194689 -0.441098 -0.733769 
-0.0301593 0.0574601 -0.00762828 
-0.0373034 -0.0387873 0.0338304 

-0.00144989 -0.0702716 0.211669 
0.0960212 0.00937474 -0.200537 
0.00574174 -0.0137155 0.0841903 

-0.140614 0.0115561 -0.225298 
0.223876 0.0974169 0.693623 
-0.0190802 -0.0281412 0.000544023 

-0.0203088 0.018979 0.00822263 
-0.0169927 0.00536814 -0.007298 
0.0010623 0.000780542 0.0224435 

-0.0169152 0.149842 -0.762178 
-0.13252 0.0451329 -0.525908 
0.0215986 -0.0104918 0.375731 

-0.0290503 0.00654366 -0.0100398 
-0.00652751 0.00656424 -0.0573142 
-0.00032822 0.000700783 0.0185706 

-0.0450783 0.00703083 0.0363578 
-0.00184817 0.0312098 -0.00492538 
-0.0255209 -0.0316557 0.263541 

-0.00456237 -0.098758 0.0790828 
0.116577 0.0145733 0.0602903 
0.00848699 0.00863237 -0.0654517 

0.00922682 -0.0582438 -0.0837714 
0.0498014 0.00847149 0.177372 