# vtk DataFile Version 3.0
Output file generated by Yade's KinematicLocalisationAnalyser
ASCII
DATASET UNSTRUCTURED_GRID

POINTS 13483 float
543.457 44.5186 -0.416133
649.518 57.7697 -0.516873
116.094 6.12697 0.427825
676.896 14.2928 0.47955
464.312 21.1221 0.317988
305.604 39.5809 0.599362
151.373 7.06131 -0.461034
525.07 11.019 0.223917
465.932 43.1576 -0.158988
616.296 33.53 -0.536713
204.172 8.80954 -0.0925345
249.279 6.39018 -0.303478
575.309 55.3652 -0.13854
564.367 34.1318 -0.0764875
133.088 18.64 0.442718
215.221 35.7328 -0.288471
211.481 13.2542 0.257842
280.634 9.65552 0.43061
329.607 36.2423 0.493746
481.942 8.79135 0.395248
397.477 39.6404 -0.109044
523.208 56.1008 -0.253966
671.264 50.5212 0.481676
618.184 89.2266 0.430846
439.401 17.7116 0.296456
234.467 46.8225 0.130768
465.579 45.0278 -0.507735
537.204 21.8066 0.293721
42.9691 16.2803 -0.50453
624.171 70.3182 -0.376407
460.881 4.83654 0.447944
17.995 24.6469 0.316538
659.273 68.7602 -0.255309
461.827 14.4738 0.551504
75.2007 46.5378 -0.108853
482.501 37.579 0.350641
488.235 16.0249 -0.484129
332.434 22.506 0.212935
491.777 26.6932 -0.337088
338.46 36.4822 0.516799
234.516 14.7271 0.335711
418.468 39.2563 0.0684273
591.717 14.6481 0.120609
186.542 6.3226 -0.429996
53.9039 7.48966 0.0906397
65.8841 8.89841 0.251966
599.384 27.9168 0.522559
22.9438 11.7544 -0.253598
526.32 66.5565 -0.379423
588.184 45.7386 -0.382662
166.339 33.4558 -0.302563
648.543 44.7424 0.127353
32.9279 30.3327 0.113459
491.3 2.8844 0.399903
137.277 7.63266 0.509474
530.193 40.8673 -0.414368
470.407 45.0052 0.123095
169.937 0.973931 0.263179
32.0962 2.29167 -0.362672
338.422 18.6395 0.274359
537.795 73.9523 -0.131983
447.102 44.1363 -0.195858
385.789 1.03969 0.208412
607.48 27.2071 0.463392
25.1091 46.2888 -0.236432
249.747 32.533 -0.330037
613.834 23.97 -0.271519
588.68 78.0793 -0.305918
403.513 8.41156 -0.600583
525.49 3.69817 -0.513852
630.926 34.9593 0.399331
126.86 7.80532 -0.276303
469.927 47.2229 -0.117427
448.704 25.8422 -0.095835
286.651 17.2479 -0.340705
20.5537 13.9967 0.247931
669.311 69.9874 0.346801
322.928 42.7114 -0.334711
587.268 40.2685 0.351204
595.765 31.2973 -0.256915
666.892 16.7217 -0.282815
449.5 47.2124 -0.179546
89.8802 41.413 0.267027
609.644 75.8903 0.206844
567.871 67.004 -0.0925132
673.029 61.0551 -0.122634
667.781 0.768777 0.562974
283.689 29.0966 0.484244
563.341 19.4365 -0.12387
23.8658 5.23809 -0.5895
129.77 40.3876 0.17589
477.703 18.6871 0.27695
655.452 32.8144 0.604114
190.618 29.3865 0.259216
42.2312 35.8426 0.319471
471.123 1.1016 0.177556
229.783 8.75454 -0.443313
648.572 72.7604 -0.306298
645.945 34.1491 0.285193
350.083 21.2464 -0.267046
157.86 28.4783 0.472092
501.14 49.6624 -0.419104
368.956 16.5379 -0.497595
401.732 31.8974 -0.118361
366.505 5.77912 0.515004
506.802 10.3602 -0.110041
674.578 27.9001 0.250203
77.6419 41.6127 -0.41211
326.431 5.02207 -0.234007
519.015 10.8744 -0.544111
350.083 46.5642 0.518211
23.4789 27.653 0.453059
29.8309 5.56641 -0.377026
513.199 48.7985 0.453045
470.826 39.6375 0.159009
24.5849 40.0728 -0.413207
91.5338 33.6479 -0.221622
317.642 17.1068 -0.281806
545.373 31.2499 -0.151497
456.249 58.4454 0.175779
614.48 7.13994 -0.549355
610.041 9.90448 -0.316733
376.687 39.7397 0.11576
560.432 48.6524 0.10996
231.962 18.1439 0.475379
321.929 3.88767 0.467106
100.187 34.0112 0.320394
113.037 25.6613 0.264302
501.162 45.3971 -0.08117
299.684 18.8631 0.499419
623.996 73.6304 -0.107055
592.933 78.9904 0.116361
453.571 34.3464 -0.400331
650.761 12.3105 0.355647
414.967 26.9669 0.235066
271.42 24.1393 -0.315798
591.559 63.538 -0.276653
273.003 30.9315 0.371465
534.681 12.1117 -0.198957
323.822 39.3281 0.204447
472.022 20.4214 0.446467
357.022 33.2059 -0.0906374
418.112 18.8969 0.128781
310.113 45.736 -0.366244
186.801 30.6599 -0.128837
653.453 59.7912 -0.199597
671.597 29.1845 -0.345948
5.96644 12.6756 0.431169
420.183 25.4264 -0.382697
36.5047 23.6218 0.0736533
367.437 33.3186 -0.472027
386.297 26.0932 -0.266597
72.7401 11.8946 0.505766
49.9112 34.1149 0.477798
221.64 13.7113 0.473487
541.261 67.1589 0.377079
534.056 23.7357 -0.510759
73.6312 21.4377 0.486773
619.068 93.7109 -0.407188
640.377 4.09143 -0.555287
581.874 71.1673 -0.461967
599.503 10.2584 -0.596019
510.971 28.3164 -0.515266
524.468 54.7929 -0.433501
476.38 26.2847 -0.394299
676.488 9.76604 -0.282787
220.586 25.4235 -0.114771
125.537 37.6031 -0.208685
242.438 6.9086 -0.403601
92.4014 4.57019 -0.270955
62.4407 10.9536 0.232589
271.189 38.1711 -0.307688
16.8517 26.4798 -0.363034
517.177 20.2455 0.453033
529.399 62.2209 -0.23873
446.743 22.979 -0.376269
677.095 77.8884 0.351626
396.947 8.7855 -0.13087
424.098 41.1995 -0.364728
499.278 3.36445 -0.264517
21.2885 25.3554 -0.3758
537.042 4.4574 0.563939
508.718 4.17917 -0.31932
202.519 11.3177 0.509426
414.189 16.673 0.218913
306.388 6.56672 0.342738
379.562 21.3235 -0.42403
638.336 61.2809 0.105447
189.746 26.2805 0.459772
659.403 5.94566 0.383375
635.646 53.2736 0.403582
375.033 10.9703 0.204965
603.145 3.45889 0.693456
548.027 43.4096 -0.425234
623.052 20.0204 -0.386334
418.888 48.6178 0.298994
468.188 25.6109 0.380302
447.163 60.0512 0.233762
433.064 10.3015 -0.211406
585.717 71.9089 0.257935
584.917 68.0797 0.362593
189.01 39.9423 -0.342695
667.531 14.6306 0.0427345
523.58 48.8518 -0.301809
12.1048 17.3558 0.162352
399.274 27.1032 0.366037
184.446 23.9654 0.403642
91.4741 42.5066 0.215603
651.831 27.363 0.414896
579.449 77.5786 -0.245775
314.571 27.9798 0.349321
496.504 9.99423 0.338283
80.2534 47.068 -0.170929
243.695 26.0857 -0.460826
518.108 28.6861 0.35609
461.644 33.3529 0.444908
258.602 0.886629 -0.35168
502.548 59.8819 -0.385359
498.394 40.275 0.474464
466.602 57.6367 0.382844
468.555 5.31058 -0.554081
605.945 49.2486 0.351764
176.498 12.7617 0.194882
484.442 60.5969 -0.404687
513.991 66.2734 -0.120867
71.6647 0.953123 -0.271729
247.565 4.69506 0.162413
670.076 30.4003 0.197562
666.909 18.6351 -0.580484
676.356 33.511 -0.564961
298.998 8.67438 -0.258554
628.629 25.2381 -0.469678
396.902 47.5156 0.416487
436.37 0.823465 0.59143
573.227 65.7447 0.512482
25.1503 33.7416 -0.298968
324.712 45.5815 -0.582286
248.489 2.87494 0.374851
662.739 71.4207 0.184446
638.172 78.677 0.229353
283.038 11.0532 0.271364
586.545 61.2341 0.0866946
521.242 2.52895 0.23375
506.426 6.30002 0.449915
95.0439 18.7772 -0.479827
298.941 1.05377 -0.23392
337.352 2.22648 -0.383469
13.8095 7.66887 0.449937
4.62451 31.3855 -0.247515
158.921 19.0032 0.353489
66.5197 43.103 -0.22289
65.9244 30.0534 -0.331929
414.388 15.0028 -0.482762
360.104 36.7045 -0.499385
646.753 46.0822 -0.149513
19.2617 4.00214 0.276842
69.1043 7.00423 -0.167235
549.248 65.9024 -0.171445
290.449 0.943742 0.395508
357.81 17.3153 -0.0967893
232.168 4.72124 -0.356369
576.216 42.5185 0.190702
438.425 8.35614 0.534255
630.583 22.3454 0.557757
559.905 52.3313 0.335886
588.483 37.0422 -0.116625
409.877 28.2119 0.52209
101.231 47.4347 0.325451
497.274 50.3061 0.0909961
618.99 12.5762 0.276752
235.648 32.6026 -0.237231
31.0024 19.6436 0.183629
331.034 14.1901 0.498739
106.226 42.7354 -0.476237
265.289 43.8554 -0.222556
417.176 2.28787 -0.268648
657.109 43.3131 -0.452354
596.977 2.2671 -0.559799
326.892 3.51226 0.592979
296.832 28.3401 0.139518
448.389 56.9826 0.222864
80.2617 8.03206 -0.45699
195.219 46.0102 -0.386307
648.493 35.7293 -0.42998
481.9 63.5012 0.0626726
197.543 41.9579 0.288071
158.504 44.3433 -0.394306
676.42 55.1082 -0.408075
673.378 28.908 -0.639408
564.593 4.62252 -0.643215
188.081 25.6482 -0.0991497
510.587 32.3275 0.114306
513.565 29.5621 0.268575
401.321 5.64765 -0.157672
466.277 1.22802 0.390847
644.244 47.5393 0.495101
84.2971 33.7362 -0.220157
583.182 32.3509 0.510314
270.33 15.8225 -0.348705
9.23708 2.41634 -0.315389
124.123 39.1608 0.186723
66.5296 24.7154 0.485325
623.386 78.7054 0.315502
662.02 80.2996 -0.169802
183.049 29.0261 -0.183084
670.112 26.2142 0.44627
43.8295 37.8501 0.268872
90.5771 30.3257 0.156203
573.896 29.4424 0.399388
405.8 19.8555 -0.478068
486.636 17.0137 0.152331
236.247 30.7138 0.188992
566.093 18.4105 -0.695371
676.989 26.9162 0.448848
28.0082 34.5306 -0.275891
266.514 7.77346 0.20806
219.712 15.6771 0.27285
1.092 35.9929 -0.147336
222.787 14.9024 0.391751
208.922 11.1444 0.133559
212.39 26.4302 -0.308397
130.461 30.2319 0.115368
511.85 15.0022 -0.422715
164.344 14.3775 -0.33139
658.607 65.4176 -0.234235
171.801 3.98277 -0.488037
45.7765 38.6186 0.36871
641.051 72.0421 0.555916
277.936 33.7156 0.38224
591.519 53.5222 -0.456271
664.624 59.129 0.591406
297.143 9.35712 0.133719
626.378 50.638 0.370871
323.917 2.50131 -0.44104
409.113 23.5289 0.370107
589.264 34.0655 -0.511287
104.277 12.0434 -0.467908
468.276 3.72126 -0.62869
631.567 19.9086 0.230825
87.0036 7.96639 0.27582
278.189 14.8731 0.194627
415.182 12.4655 -0.227995
677.083 5.7185 0.704862
390.66 2.00977 -0.542618
174.301 39.6672 -0.33069
621.447 10.1379 -0.425176
127.462 38.5532 0.193863
260.761 32.422 -0.361901
393.979 22.5475 0.215807
536.462 14.7224 0.39342
379.984 9.53475 -0.573712
440.336 35.394 -0.442876
651.033 58.0593 -0.500737
46.8746 11.8543 0.12542
295.006 39.1431 -0.322234
373.902 27.7362 -0.370768
402.378 21.3793 0.244564
494.495 48.3436 -0.478586
656.378 73.411 0.251263
590.66 69.1757 -0.317827
223.149 37.131 0.434738
13.6282 34.2723 0.147737
583.085 67.6588 -0.153267
491.111 52.6377 -0.592415
226.863 42.0219 -0.107959
608.326 72.7464 -0.114661
148.61 9.42626 -0.236899
361.057 23.9389 0.291027
449.083 58.9392 0.143809
406.591 21.4278 0.199956
645.124 60.6208 -0.320703
417.642 4.2848 0.654798
48.2125 25.9132 0.307327
459.571 52.3242 0.326134
425.028 46.3511 -0.417772
664.738 62.5249 -0.252556
626.926 47.2093 0.250038
506.584 19.0435 -0.163528
658.186 56.5081 -0.523001
290.069 2.21894 -0.504182
374.16 31.2939 -0.448155
27.8582 41.7571 -0.301617
633.435 45.2806 0.178968
553.383 33.8464 -0.501334
449.747 0.756996 -0.484588
124.021 4.72267 0.357251
417.274 44.911 0.107424
11.6427 0.929524 0.358378
673.634 12.6796 -0.0902629
364.049 40.8076 -0.465631
[...]
POINT_DATA 13483
TENSORS Strain_matrix float
-0.0440716 -0.138137 -0.211004 
0.304418 0.0862079 -0.111405 
0.00096406 0.00265402 0.051157 

0.0339079 0.115991 0.498066 
-0.00211027 0.00240967 -2.88068 
-0.00611821 -0.00822573 -0.37657 

-0.0197905 0.00161724 0.00908382 
0.0152545 0.0162137 -0.144123 
-0.00185506 0.00169062 0.0367503 

-0.0303514 0.0592421 0.0930726 
-0.0826223 -0.0705818 0.273521 
-0.00534277 -0.0151197 0.182759 

0.0906215 0.0897414 0.273936 
-0.0905644 -0.0287047 0.271654 
-0.0731059 0.0200974 -0.192049 

-0.0187209 -0.000473711 -1.33623 
0.0239827 0.0178221 -1.99907 
-0.000808618 -0.000161922 0.255373 

-0.0137114 -0.000265613 -0.0463362 
-0.0109144 0.00812586 0.014277 
0.00683832 0.00296247 0.959991 

0.000398675 -0.00478597 -0.0208323 
0.033555 -0.0157948 0.0742012 
0.00203388 0.000512496 0.0598545 

-0.312029 0.323064 -0.320099 
-0.0747358 0.116079 1.10792 
-0.00536779 0.0200877 0.0474015 

-0.0665417 -0.0518722 0.0223239 
-0.581573 0.0931155 -0.15766 
0.000778589 0.0167019 0.285696 

-0.025552 -0.0193485 -0.0255164 
0.0163588 0.0053374 -0.00101585 
0.00126119 -0.0814033 0.186811 

-0.0168008 0.00463699 -0.0184252 
-0.00417237 -0.00483095 -0.00644759 
0.00423328 0.00143501 0.0542211 

0.0114193 -0.00422004 0.0167609 
-0.00310821 -0.0119817 -0.0314973 
0.00177609 0.00132149 0.0463215 

-0.0708167 -0.175498 -0.0291423 
0.331339 0.105153 -0.13487 
-0.00968209 -0.0350495 0.135255 

-0.072976 0.0252669 -0.371569 
0.052205 0.0668872 -0.632195 
0.00279269 0.000912891 0.0518059 

-0.00719253 -0.0323017 -0.0352732 
0.0235846 0.00127595 -0.0176078 
0.000580049 -0.00119505 0.0103752 

-0.00679012 0.00448213 -0.00241635 
-0.00074426 -0.0012005 -0.00487216 
0.000488503 0.000246501 0.00726019 

-0.0250568 -0.00443267 0.010505 
-0.0102781 0.0115199 -0.0112631 
0.000280759 -0.000101163 0.021386 

-0.0302959 0.0496435 -0.742673 
-0.120464 0.0177719 2.84217 
-0.0224403 0.0146265 -1.30509 

-0.00151382 0.0596562 -0.0115248 
-0.123642 0.00377824 0.00988847 
0.00452763 0.000878163 0.010212 

-0.0234471 -0.104793 -0.274136 
0.0644832 -0.00918025 -0.261646 
-0.0254717 -0.0175356 0.137677 

0.00119029 -0.64773 -0.202314 
0.359089 0.119381 -1.84978 
-0.00338835 -0.0229063 -0.151371 

-0.0276557 -0.0983201 0.831841 
0.165516 0.0307209 1.6815 
-0.00492752 -0.0165914 -0.0942319 

0.0556986 -1.62453 -157.658 
-0.0127055 0.235988 34.2918 
0.00353173 -0.00509962 -0.514675 

-0.0183355 0.0073777 0.121456 
0.0066821 0.0052068 -0.00356135 
-0.00124415 -0.00591327 -0.00269591 

-0.0109874 -0.000632226 0.0120958 
0.00754613 0.00479176 -0.0118799 
-0.0076284 0.00151941 0.00989507 

-0.222954 0.347983 2.0463 
-0.0950982 0.295059 20.237 
-0.00357592 -0.000648152 0.315609 

-0.533168 -0.396219 -0.292911 
-0.00102604 0.216872 -0.858858 
0.00328311 0.0540121 0.468876 

0.00569551 -0.0271985 -0.130439 
0.00869361 -0.000111405 0.259261 
-0.000378864 8.66006e-05 -0.0220276 

-0.171427 0.309445 0.920171 
-0.0478904 0.177586 0.594146 
-0.00170531 -0.00338925 0.0592608 

-0.13449 -0.0237699 -0.188998 
-0.0835172 0.00902365 0.438425 
0.0232737 -0.0272433 0.327289 

-0.00788602 -0.0314918 -0.571644 
-0.121953 0.045771 -0.254997 
-0.00287035 0.00178871 0.0231705 

-0.0364314 0.125449 0.0799313 
0.0363187 0.0413567 -0.630075 
-0.00482112 -0.0402546 -0.262797 

0.0202916 -1.08869 1.9195 
0.0801403 0.791303 -2.60113 
0.0568453 -0.0274267 0.0849912 

-0.00255908 0.00176644 0.0100672 
-0.00968382 -0.00512088 0.0143625 
-3.58676e-05 0.000599444 0.0068753 

-0.18485 0.192585 0.0192956 
-0.21691 0.272553 1.22014 
-0.0259767 -0.00665445 -0.0992645 

-0.0030621 0.0373747 0.19432 
0.0166727 -0.0339409 0.508714 
0.00562286 0.00959419 0.0121254 

-0.00900856 0.00954588 0.0300282 
-0.0383838 0.0174628 -0.0706509 
0.00271112 -0.00191942 0.00157067 

0.0474945 -0.115346 -0.266815 
-0.070835 -0.0475098 -0.124234 
0.00974305 0.00445288 -0.0322366 

-0.0272803 -0.0389297 -0.549324 
0.0312303 0.0227896 1.106 
-0.000372253 0.00864215 -0.265082 

-0.00585852 0.0199501 -0.00821621 
-0.0188354 0.00157602 0.0292091 
0.00267926 -0.00218828 -0.00551607 

-0.0566437 -0.168954 -0.126788 
0.0169024 0.0733031 -0.336553 
0.0421886 0.0677157 0.154273 

0.0185524 -0.211256 -0.511559 
0.046879 0.083773 0.328488 
0.0308515 -0.0230418 -0.0962742 

-0.0111822 0.00399911 -0.00111583 
-0.000836073 0.00130602 -0.0196384 
0.000322129 -0.000741244 -0.00357614 

-0.0225236 -0.00123922 0.0213819 
0.0545703 0.0214538 0.0130441 
0.00889713 0.00112061 -0.0167622 

-0.0158928 -0.0275837 0.0519473 
-0.00674951 0.0160594 -0.0468367 
-0.0101777 -0.000492458 0.0625327 

-0.00334077 -0.0840587 -0.436002 
0.0861668 0.0255489 0.630253 
-0.00434547 0.000910644 0.0299339 

-0.0121095 0.00749301 0.0242499 
-0.0300699 0.0303842 0.00539307 
0.00795183 -0.00598186 -0.041469 

-0.577161 -0.0304689 -0.849728 
-0.0828878 0.0967864 -0.579526 
-0.00319167 -0.011952 0.0673642 

-0.0517752 -0.0607602 0.201964 
-0.343626 0.00692804 -0.14386 
-0.00417428 -0.00331818 0.0700892 

-0.00315959 0.0325181 -0.0267791 
-0.0278555 0.00352163 -0.0103173 
0.00090964 0.000913177 0.00947788 

-0.00674926 -0.00405247 0.00360102 
0.00256794 -0.0134819 -0.00675429 
0.000193038 -0.000348502 0.0443312 

-0.0211406 -0.0707501 0.0981268 
0.00604899 0.0246195 0.0273248 
0.000197249 -0.00195023 0.00919943 

0.0207277 0.0185391 0.00778979 
-0.00272483 -0.0100647 0.0368515 
-0.0064583 -0.00551455 -0.0196021 

-0.0318465 -0.0422709 0.556386 
0.0399682 0.0236167 -0.163168 
0.00106175 -0.0059535 0.296359 

0.0121078 -0.193546 0.220671 
0.174666 -0.052711 -0.864301 
0.00835046 0.00948383 -0.168163 

-0.552577 0.345035 -0.224282 
-0.150988 0.399013 0.804763 
0.0136528 -2.61469e-05 0.0421901 

-0.00793541 0.029127 -0.0724648 
0.00223572 0.0111994 -0.00825024 
0.00538555 0.0103114 0.00824603 

-0.00179794 -0.013956 -0.0145067 
-0.0023922 -0.0142785 0.00224694 
0.000758748 -0.000132694 0.0278361 

0.00681431 0.0143596 0.222721 
-0.0673535 -0.0547906 0.311093 
-0.037136 0.0172114 0.146666 

-0.155114 0.36287 -1.56738 
0.104917 -0.270178 0.642261 
0.00911975 -0.0459826 0.323111 

-0.0593471 0.0527029 0.779803 
-0.0252038 0.00939255 -0.173076 
-0.0334651 -0.0270049 0.409598 

-0.0211331 0.0273382 -0.00179278 
-0.00258725 -0.000797188 0.0139825 
-0.0177625 0.0280695 0.00237966 

-0.0830374 -0.0757145 -1.39836 
-0.0242712 0.0462251 0.265894 
0.0615021 0.0155023 -0.0598417 

0.0104022 0.0114169 -0.00677019 
-0.00699223 -0.0124324 0.0413379 
-0.0028178 -0.00193112 0.010395 

-0.00784844 0.0152806 -0.0843833 
0.010772 0.0013104 -0.146889 
-0.00225864 -0.00107468 0.0191415 

-0.448447 -0.195525 -0.464638 
-0.219436 0.191798 0.45883 
0.0209321 -0.0449553 0.523469 

0.00774226 -0.00598046 -0.00433793 
0.0162185 -0.00106009 0.0142014 
-0.000186906 -0.00144504 -0.0221358 

-0.0429935 0.0144576 -1.72775 
0.00659177 0.0213593 -3.5106 
0.00198888 0.000180683 0.317641 

-0.0795013 -0.00857594 -0.0878147 
-0.220775 0.0211938 0.492843 
0.00911496 -0.0224807 0.0918351 

-0.315086 -0.233438 0.0315423 
-0.271067 0.197875 0.0683493 
-0.0395405 0.0129645 -0.0787723 

-0.0266413 0.0241559 0.0300596 
-0.0350061 0.00108649 0.0183678 
0.000489949 -0.0158404 0.0129061 

-0.450477 0.487307 -0.516996 
-0.187039 0.473049 1.37439 
-0.034133 -0.00525699 0.0311186 

-0.555218 -0.613669 -1.12631 
0.623939 0.749143 0.740501 
-0.0400161 0.123003 0.0356362 

0.00136093 0.0136918 0.0977316 
-0.0102948 0.0220927 -0.0913029 
-0.00310593 0.000309885 0.0301802 

-0.0183259 0.0199178 0.02243 
-0.0050247 0.0401748 -0.000191625 
-0.0305336 -0.0213325 0.129283 

-0.106356 0.376501 -1.21747 
-0.218775 0.222112 -0.532353 
-0.0527819 0.0237357 0.203843 

-0.00488063 -0.034614 0.0426152 
0.0394095 -0.00112104 -0.0273457 
-0.000800189 0.00105377 0.0142391 

-0.102513 0.272603 -0.742305 
-0.295916 0.195722 -0.282639 
0.00289761 0.0649307 0.117065 

0.031046 -0.153386 -0.050093 
0.125296 -0.00355312 0.00428476 
0.000405623 -0.00341618 -0.00406721 

-0.0156311 -0.360653 0.0801145 
0.407539 0.168433 0.47743 
-0.026051 0.00600109 0.0711938 

-0.0398945 -0.100088 0.395085 
0.137765 0.0257626 -0.114841 
0.0555504 0.0102779 0.685425 

-0.0134952 0.0140301 -0.0199197 
-0.00682246 0.0058308 -0.0300758 
-0.000424977 -0.000692629 0.0216119 

-0.0114847 0.100579 -0.122527 
-0.102257 0.0205568 -0.0382434 
0.000825618 -0.00178895 0.00923902 

0.00905057 -0.0286829 -0.00709894 
0.0441562 0.00182511 -0.0019561 
-0.00138305 0.00217858 -0.0194557 

-0.0643991 -0.172372 -0.101436 
0.165194 0.00659422 0.0888369 
0.000526121 -0.00223393 0.06973 

-0.134394 -0.277031 -2.25323 
0.000270993 0.126247 -0.0407021 
0.0146245 -1.12344 1.0376 

-0.00264592 0.0299126 -0.0707442 
-0.0116944 -0.00977342 0.112059 
-0.00290941 0.00184906 0.00314678 

-0.134883 -0.376661 0.0991187 
0.123647 0.0702746 -0.376747 
-0.00732153 -0.00753063 0.142498 

-0.0223653 0.0071028 0.553239 
0.000321522 0.0137293 0.471621 
9.73974e-05 0.000256662 -0.0508814 

-0.0211246 -0.00639593 0.00401947 
-0.0115389 0.000801049 0.0186727 
-0.000319647 -0.00479894 0.0298634 

-0.077273 0.0614084 0.00652839 
-0.242069 0.050785 -0.126855 
0.0291466 0.00481035 -0.105299 

-0.114973 0.0607885 0.728746 
-0.0995482 0.117366 -3.95222 
0.00256693 -0.00208036 0.0668007 

-0.001783 0.0044215 0.0412203 
-0.0181811 -0.00212286 0.0241854 
-0.000331712 -0.000623282 0.0114865 

-0.0127683 0.0395799 -0.198423 
-0.0553983 0.0117304 -0.0203688 
0.000480567 0.00274755 0.0102172 

-0.71829 -1.05708 0.555296 
0.141223 0.450789 -0.287143 
-0.0129842 -0.121255 0.263514 

-0.0446227 -0.0266575 -0.126068 
0.0464441 0.0270129 -0.609383 
-0.00161145 0.00124506 0.153008 

0.00660721 1.15516e-05 -0.0608692 
-0.0208235 0.00961642 0.0145389 
0.000669369 -0.00236406 -0.0268632 

-0.0336592 -0.0862536 0.264193 
-0.00186119 -0.160619 0.214269 
0.000483799 0.00604507 0.109485 

-0.0585352 0.104034 0.182287 
-0.156664 0.0307693 -0.304385 
0.00656626 -0.00100623 0.00999429 

-0.0342746 -0.00181998 0.101289 
-0.0373043 0.0236783 0.158229 
-0.000587584 0.000602362 0.0223988 

-0.205882 -0.171877 -1.90436 
0.14788 0.0923185 0.131374 
0.0116572 0.0155562 0.0351705 

-0.00994291 0.0511236 -0.254818 
-0.0741035 0.0129318 1.58761 
-0.00553959 -0.000690372 0.386549 

-0.0628584 0.17093 -0.0694493 
-0.200452 0.0887922 0.293027 
-0.0119951 -0.00945519 0.0544668 

-0.149971 -0.0678266 0.42946 
0.12806 0.0697982 -0.600516 
0.00359928 -0.01569 0.0463208 

0.00304183 0.065597 0.00716026 
-0.070421 -0.0202144 0.00121453 
0.00184189 0.000853177 0.0306117 

-0.0220421 -0.0374495 -0.0302809 
0.0361578 -0.00781974 -0.0214265 
-0.0135773 -0.0153617 0.00497195 

-0.0200323 0.00337354 -0.00703273 
-0.0237332 0.000234488 -0.0390192 
-0.000851529 0.00112296 0.0253191 

-0.0236799 0.00511006 -0.00441204 
0.0203708 0.000317694 0.00127447 
-0.000208519 0.0017157 0.0347559 

-0.046564 -0.0597305 0.217964 
0.145464 -0.000330263 0.52871 
-0.00643756 0.00965333 0.128449 

-0.0278264 -0.0249629 -1.59283 
0.0222087 0.17415 6.65457 
-0.00450877 0.0061013 -0.303616 

-0.0376992 -0.00511998 0.797029 
0.0188095 0.0604194 -0.512653 
0.00919034 0.01076 0.0727561 

-0.00352884 -0.00599693 -0.000221336 
-0.00673657 -0.0139355 -0.00512652 
-0.00175324 -0.000210304 0.026989 

-0.202038 -0.184541 -0.215778 
0.32628 0.317794 0.358489 
0.0376188 -0.0267888 -0.341959 

-0.0391241 0.102608 -0.234497 
0.153662 0.115488 -0.617489 
0.0150547 0.00275327 0.115321 

-0.00990813 0.00494034 -0.0363181 
-0.00445836 0.00271823 0.0540767 
-0.000539409 0.00062832 0.00971406 

-0.111736 -0.182712 -0.28033 
0.00578468 0.0414541 -0.123236 
-0.00783317 0.0530419 0.156824 

-0.00308755 0.010605 0.0124421 
-0.0284799 -0.0149505 0.0493582 
-2.52584e-05 -0.00171242 0.0103521 

-0.353837 0.0851168 -0.0119252 
-0.207969 0.23263 -0.518391 
-0.0123353 0.0436674 0.0434868 

0.0168573 -0.139914 -0.0155338 
0.143903 0.0101964 0.028228 
-0.00273654 0.00119715 -0.00235806 

-0.104084 0.110673 -0.00880035 
-0.153314 -0.0363329 -0.0405176 
-0.0215254 0.00055609 0.0768344 

0.00834005 -0.029651 0.071553 
0.053783 -0.00613808 -0.126309 
-0.0036653 0.00175497 -0.0010561 

-0.0110748 -0.0168781 0.0374078 
0.00911441 0.00922093 -0.00844529 
-0.000679214 -0.000369932 0.00722735 

-0.13914 -0.0805705 -0.0261598 
-0.0381556 0.0424867 0.580777 
0.0355943 -0.00291338 0.119975 

-0.023678 0.0167557 -0.402455 
-0.0328521 -0.000134374 -0.430939 
-0.0147033 -0.00256398 -0.0198876 

-0.0155307 0.00835571 -0.0395394 
-0.00678732 0.0074601 0.138898 
-0.000306982 -0.000361516 0.015277 

-0.0489957 -0.0569794 -0.0646336 
-0.0393396 0.0152735 -0.183072 
0.000928141 0.000131502 0.0239068 

-0.00485211 -0.101458 0.137632 
0.0955964 0.0125847 -0.166172 
0.00286439 0.000360235 0.00477628 

-0.120585 -0.266426 -0.119399 
0.297145 0.135697 0.448777 
0.00473867 -0.0162421 0.324685 

-0.049225 0.0577005 0.17266 
0.0116169 0.0229291 0.38927 
-0.000221995 0.00285094 0.0613519 

-0.0751043 -0.0794834 0.219127 
0.0526657 0.0193724 -0.167708 
0.0073422 -0.0122995 0.0799127 

0.0195126 -0.00588165 0.00382156 
0.0206145 0.00114781 0.0260699 
0.00197473 -0.00954053 -0.0491999 

-0.0217368 0.074272 0.826961 
-0.0193232 0.0313288 1.68395 
0.00141229 0.00229018 -0.0749825 

-0.0505528 0.0306382 0.117858 
-0.142002 -0.070385 0.108742 
-0.00999786 0.00708119 0.127154 

0.0293449 0.039949 0.152394 
0.127416 -0.0174424 -0.198986 
-0.000862799 0.00283443 0.0132714 

-0.0586999 0.209371 0.309122 
-0.00510131 0.0238647 -0.140904 
-0.00294456 0.000373568 0.0499875 

-0.0194004 -0.0409345 1.28282 
0.00339593 0.00423783 -1.04395 
0.0114175 -0.012989 -0.0754409 

-0.121644 0.0474484 -1.44344 
0.0763563 0.10538 -1.55468 
0.0026776 0.0169529 -0.473002 

-0.0887498 0.00339254 0.0306335 
0.000458922 0.0254439 0.149868 
0.010071 -0.0262531 0.197747 

-0.000947757 -0.00880409 -0.0336854 
0.0379209 -0.0198681 0.0313032 
0.000539626 0.00120397 0.0166993 

0.0918664 0.106422 -0.293824 
-0.395519 -0.0198409 -0.713096 
0.00588583 0.0093663 -0.0241592 

0.00391128 -0.0330903 -0.0198646 
0.0109478 -0.0078064 0.047915 
0.0257469 0.0119419 0.0224523 

-0.118541 -0.201946 -0.077865 
0.250893 0.045548 -0.0254232 
0.00137394 -0.00977112 0.14643 

-0.00729596 -0.0238116 0.000528103 
0.023108 0.00215596 0.0126985 
-0.000531824 0.000263783 0.00551296 

-0.00309326 0.00365844 0.0202315 
-0.00488455 -0.00475109 0.0552011 
0.000125857 -2.88675e-05 0.00294339 

-0.170305 -0.0109642 -0.0989075 
0.0326006 0.00622252 -0.195866 
-0.000183873 -0.00276172 0.0636491 

-0.0435553 -0.0742035 -0.00680128 
0.0840826 0.00291548 0.0325037 
-0.00679338 0.000339107 0.0462854 

-0.00621749 0.0171883 -0.0117131 
-0.0223149 -0.00158524 -0.106507 
-0.00102042 -0.000450903 -0.00738154 

-0.0537602 0.198444 0.838864 
-0.039807 0.177146 -2.0027 
0.0110283 -0.0019876 -0.247876 

-0.0207606 0.0073185 -0.083576 
-0.072936 0.0145895 -0.0243001 
-0.000303907 0.00283167 0.0272419 

-0.00506509 -0.0139566 0.913842 
0.0068921 0.00580306 0.571731 
0.000723226 -0.000374831 0.117899 

-0.0956894 -0.089057 0.0586649 
0.0458981 0.0372831 0.606072 
-0.0108317 -0.00421181 0.031531 

-0.01998 -0.00659433 -0.684655 
0.0230971 0.0176978 -0.125684 
-0.00185318 -0.000433293 0.118107 

-0.0109341 -0.0109015 0.53921 
-0.0165027 0.00260477 0.578555 
0.000481122 0.000869634 0.0444425 

-0.0127391 0.00226965 -0.372255 
0.0203941 0.00345471 0.309191 
0.000527933 -0.00141456 0.0563954 

0.0545787 -0.0109126 -0.01528 
0.0189869 -0.0600731 -0.282814 
-0.0163376 0.00211096 0.00902001 

-0.0340023 -0.452244 -0.0773175 
0.265032 0.109671 -0.484618 
0.00148424 -0.015662 0.0708159 

-0.0350898 0.0322435 0.319852 
-0.0306112 0.0389196 -0.00291663 
-0.00146521 0.000172865 0.0257137 

0.00457476 -0.762453 12.7857 
0.0395031 -0.3623 0.444807 
0.00298762 -0.0345151 -0.140036 

-0.0392594 0.00301104 0.126462 
0.00367911 0.0186319 0.265392 
0.0459128 0.0316795 0.20558 

-0.000874169 -0.0399048 -0.0401665 
0.0410767 0.0104968 0.110925 
-0.0015697 -0.000205226 0.00604022 

-0.426389 0.306529 -2.39102 
-0.28797 0.359793 -1.56486 
0.0342485 -0.00164166 0.285913 

-0.0217784 -0.250729 2.92723 
0.0888381 0.0100113 -0.569191 
0.00589908 0.00188798 0.146263 

-0.122112 -0.387958 1.44662 
0.205752 0.207426 -1.05873 
0.058742 -0.0119731 1.47244 

-0.185277 -0.16841 1.3878 
0.0263694 0.206824 0.0806337 
-0.00124489 -0.0143551 0.002941 

-0.502333 -0.299225 -0.104728 
0.129563 0.244566 -0.305863 
0.000295235 -0.0264209 0.0426521 

-0.0090668 0.0103844 0.00338726 
-0.0105747 0.00852675 -0.0145534 
-0.000267177 7.85188e-05 -0.00144456 

-0.0558458 0.0103285 0.0447668 
0.0997943 0.0663911 0.274754 
-0.0148228 0.0107504 0.0949954 

-0.0126449 0.014507 0.00134987 
-0.00478504 0.00245362 9.07619e-05 
-0.00434679 0.00349293 0.0485984 

-0.00910761 0.00716087 -0.0532203 
-0.00327086 0.00194094 -0.013764 
-0.000179798 0.000902607 0.0214801 

-0.111683 0.00533573 0.574943 
-0.0683256 0.0885818 -0.0892322 
0.0318213 0.0537657 0.243654 

-0.019376 -0.0511747 -0.452563 
0.0343746 0.0397041 0.117079 
0.0251773 0.0218047 0.528744 

0.0315501 -0.157428 -0.289176 
0.161176 -0.0375142 0.400471 
-0.00035724 0.00135788 -0.0053169 

-0.00773139 0.0106182 -0.307167 
0.0614528 0.0116748 -0.164928 
0.0270588 -0.000476151 0.0799665 

-0.141454 -0.191601 -0.389125 
-0.0364162 -0.0372276 0.117097 
-0.00217795 0.00874529 0.13491 

-0.295496 -0.43742 -0.764279 
-0.027346 0.353262 -0.553014 
-0.00054229 -0.0508887 -0.195319 

-0.208505 -0.065938 -4.36448 
0.089356 0.362209 -3.31246 
-0.0434285 0.0237581 0.0878429 

-0.0246668 -0.00876033 -0.00894773 
-0.0189071 -0.00734392 -0.0293544 
-0.00214489 0.00307054 0.0485521 

0.0274435 -0.242853 1.09332 
0.294084 0.0773863 1.88553 
0.00791363 0.000614076 0.0904297 

0.00963865 -0.00673342 -0.00514956 
0.00315842 -0.00527455 0.0286456 
-0.00257199 -0.00268291 -0.00656147 

-0.206399 -0.105069 -0.0165447 
0.0195727 0.125137 -0.16746 
-0.0382009 -0.0025077 -0.0948226 

-0.0166408 -0.0347084 0.257002 
0.00478116 0.00125403 -0.202051 
-0.00106534 -0.0136017 0.0959768 

0.0232856 -0.00264757 -0.0061693 
0.00287653 -0.0288619 0.0360746 
0.00155544 0.00858997 0.105021 

-0.0162683 0.00581243 0.10771 
0.00342753 0.00541182 -0.235935 
0.00141874 0.0121848 0.113628 

0.0272106 0.0646304 -0.213707 
-0.0819074 -0.110997 0.338321 
0.00684757 0.00271976 0.0776619 

-0.0192144 -0.0165329 -0.0579722 
0.0181071 0.0126689 -0.00776122 
0.0250966 -0.0166243 -0.0479072 

-0.127822 0.073808 0.60354 
0.176265 0.0542281 -0.872956 
-0.00186699 -0.00341002 0.0397646 

0.00510026 0.0725321 -0.0193102 
-0.0563701 -0.00219306 0.0159263 
0.00179045 -0.000331282 0.00954949 

-0.00914332 0.00527106 0.141803 
-0.0146536 0.00524046 0.216158 
-0.000360475 0.000411637 0.0446381 

0.0890825 -0.0976474 0.439317 
-0.0033326 -0.0113083 0.190821 
-0.0149306 -0.00838882 0.0277874 

-0.0163723 0.0851836 0.0247646 
-0.0674196 -0.00394502 0.0798734 
-0.00529914 0.0221904 -0.0906757 

-0.0134905 0.105188 0.00101479 
-0.109412 0.0147296 0.128388 
0.00621143 0.00494847 0.11336 

-0.0938144 -0.479746 0.398967 
0.00629292 0.215004 -0.285205 
0.0655489 -0.0293346 -0.104309 

-0.137903 -0.186831 1.32287 
-0.218026 0.137281 3.27625 
-0.0029907 0.00508841 0.152893 

-0.229043 0.121067 -0.637582 
0.031348 0.0417358 -0.418434 
0.0197841 -0.0143387 0.123416 

-0.263982 0.0497675 -0.608327 
0.0732036 0.306186 0.945551 
-0.0135983 -0.0318359 0.0803935 

0.0561831 0.0380089 -0.0805911 
-0.12685 -0.013526 -0.0433078 
0.00278949 0.00206826 -0.0291564 

-0.0134887 -0.125558 -0.571936 
0.102954 0.00963932 0.552427 
-0.00738913 -0.0139916 0.00706837 

-0.00762331 0.0830205 -0.0924388 
-0.0859885 -0.00222622 0.0242753 
0.00779024 0.00965411 0.053142 

0.00697342 -0.0518817 0.230354 
0.0161961 -0.00965503 -0.0978114 
-0.0231229 -0.00530347 0.2435 

-0.0141475 -0.0227247 0.0550396 
0.0614769 0.0139307 -0.142954 
0.00991433 -0.0488026 -0.0117606 

-0.00921548 -0.00143102 -0.000779036 
-0.000288488 0.00159118 0.000799869 
0.000198359 -0.000407599 0.0163082 

-0.102119 -0.450478 0.0265609 
0.345697 0.272515 0.422586 
-0.00723336 -0.00373686 0.0422562 
