# vtk DataFile Version 3.0
Output file generated by Yade's KinematicLocalisationAnalyser
ASCII
DATASET UNSTRUCTURED_GRID

POINTS 13483 float
597.138 35.0715 -0.418141
727.167 55.6583 -0.464233
120.325 6.04292 0.448473
758.983 11.8443 0.458033
499.444 10.259 0.389539
316.731 37.889 0.486752
156.918 6.97999 -0.455149
566.854 10.1356 0.209736
496.957 28.8592 -0.136047
686.943 27.5956 -0.539478
211.009 8.8437 -0.10201
257.825 6.38946 -0.283354
642.605 40.7645 -0.139838
622.324 24.1902 -0.0806914
137.469 17.4147 0.471288
222.285 34.9526 -0.387792
218.434 13.0853 0.261881
290.384 9.61448 0.40776
342.406 35.2061 0.426531
521.587 8.56505 0.360767
413.104 37.3264 -0.103069
579.034 50.9768 -0.25403
749.905 49.423 0.48362
684.516 74.9805 0.426055
460.932 16.4281 0.294282
242.063 45.6582 0.134095
492.711 31.569 -0.456978
582.859 20.6014 0.231948
44.9779 15.8414 -0.47724
696.962 60.5563 -0.355903
484.454 4.80884 0.380158
17.7829 23.7269 0.31465
737.334 66.2433 0.256706
495.595 3.00998 0.513392
78.4529 45.476 -0.107987
521.673 32.2204 0.324436
527.934 16.1934 -0.419256
344.08 21.9826 0.181633
532.862 25.1965 -0.318466
351.938 34.9457 0.507917
242.321 14.398 0.314788
435.815 38.4851 0.0785798
657.654 9.72439 -0.152075
192.947 6.31909 -0.361455
55.9976 7.06985 0.106576
69.0286 9.05336 0.271121
668.442 20.1515 0.521578
23.6504 11.4587 -0.272116
594.806 53.7983 0.33918
658.058 32.7387 -0.318957
172.499 33.0489 -0.302217
727.76 41.9911 0.124304
34.997 28.8779 0.117871
531.667 2.99992 0.349236
142.441 7.44587 0.502489
580.338 36.724 -0.38039
503.593 30.6806 -0.11425
175.767 0.968456 0.258627
33.0521 2.34055 -0.330354
350.079 17.9966 0.256971
605.887 56.9284 0.135014
465.175 35.3814 -0.177341
402.299 1.03512 0.196605
676.33 18.1133 0.350048
26.6763 43.9838 -0.236492
257.676 31.5116 -0.316365
685.09 17.4681 -0.283572
656.66 62.0191 -0.345629
421.031 8.5268 -0.533925
567.604 3.61645 -0.378797
708.685 33.9993 0.397465
131.325 7.82764 -0.260234
499.013 32.0043 -0.135114
480.122 17.6785 -0.111753
296.684 16.903 -0.352276
21.0642 13.5683 0.268343
746.273 64.8874 0.314759
335.062 40.6782 -0.324931
654.632 28.2125 0.355893
665.479 24.2031 -0.255481
747.873 14.5353 -0.202443
468.544 36.1102 -0.172321
93.4145 40.6481 0.264867
677.663 60.9857 0.21141
635.775 51.929 -0.097573
754.049 57.0745 0.100316
745.772 0.773121 -0.47233
293.794 29.1124 0.453908
617.492 10.6516 0.135463
24.3901 5.06489 -0.491441
134.288 39.0932 0.16442
512.668 15.8784 0.188685
734.986 30.4085 0.616489
196.991 29.1585 0.238565
44.7446 34.9843 0.306797
495.697 1.13791 0.168494
237.25 8.78334 -0.409836
723.027 68.73 -0.289991
725.099 31.3182 0.275794
363.678 20.844 -0.26803
163.99 27.6964 0.460102
547.212 45.4222 -0.405869
383.144 15.1662 -0.498648
418.074 30.5968 -0.0960474
381.507 4.35846 0.407674
547.425 10.7197 -0.0986553
756.417 25.5674 0.222895
80.9794 40.5946 -0.398341
337.918 4.89383 -0.200115
560.93 9.94143 -0.605028
363.821 44.7746 0.504252
25.8359 25.3665 0.447447
30.7931 5.61204 -0.377608
560.091 41.9731 0.424179
505.405 27.689 -0.150253
26.5298 37.7755 -0.413915
95.2165 32.965 -0.226983
328.414 16.4273 -0.330623
596.321 24.1231 -0.133861
479.936 42.8681 0.288067
690.331 7.44067 -0.468761
685.386 9.44973 -0.200301
391.03 37.1954 0.100615
625.66 35.6605 0.10022
240.043 17.2939 0.556527
333.129 3.70192 0.465362
104.087 33.2642 0.304072
116.884 24.9593 0.263372
544.442 42.4001 -0.0953052
310.256 18.6701 0.49593
696.344 63.8449 0.103249
660.804 62.9211 0.11503
484.807 22.6599 -0.369079
728.109 11.1724 0.34664
432.766 25.8371 0.21864
281.027 24.0559 -0.30478
660.455 47.6137 -0.288768
282.292 29.1389 0.400811
577.074 12.3708 -0.231207
335.856 37.2572 0.20044
507.279 13.65 0.626834
370.897 31.5759 0.089489
437.002 17.4601 -0.101936
322.258 44.2134 -0.375285
193.166 30.16 -0.121258
731.737 57.0503 -0.146062
753.427 27.0182 -0.303243
6.06666 12.6214 0.427125
440.08 23.7955 -0.399209
39.1136 23.0168 0.0759701
381.252 31.5048 -0.471958
401.002 24.6577 -0.26234
75.8072 11.8601 0.500254
52.536 33.7194 0.46716
228.747 13.4884 0.454423
609.061 49.7659 0.155414
578.704 21.2386 -0.458967
76.7728 21.0589 0.506827
683.91 79.7748 -0.40598
716.63 4.09427 -0.586225
649.808 55.2734 -0.48034
669.571 4.31798 0.520595
554.251 30.1542 -0.409883
577.905 49.6842 0.446644
515.125 19.1597 -0.353923
758.381 7.7692 -0.339454
227.152 25.0874 -0.118533
130.032 36.2467 -0.204761
250.676 6.74933 -0.399443
95.8887 4.4702 -0.268871
65.4204 10.4776 0.235566
280.264 36.2245 -0.327516
16.9327 25.2407 -0.371594
558.804 19.7599 0.386792
595.587 48.7593 -0.242786
470.152 22.8873 -0.345013
755.362 69.821 -0.20451
414.158 8.68327 -0.117231
442.215 38.3343 -0.308306
540.03 3.38148 -0.212769
23.1874 23.4347 -0.459976
580.247 4.63102 0.482486
549.571 4.31917 -0.314345
209.172 11.3225 0.493124
432.841 16.608 0.185832
316.919 6.33252 0.353068
394.693 19.0644 -0.328088
714.519 56.3112 0.189573
195.63 26.0238 0.422473
737.371 6.47417 0.502018
714.562 49.8172 0.331354
390.158 10.3114 -0.162786
676.476 2.15415 0.44924
601.431 32.3328 -0.389379
698.417 20.6429 -0.374702
438.002 45.4876 -0.293586
501.801 15.692 0.461716
471.466 46.8343 0.225212
453.465 9.21889 -0.203577
653.674 55.8401 0.265563
652.794 51.7808 0.319404
195.396 39.5345 -0.337993
747.282 12.4483 0.120447
578.61 47.2346 -0.268655
12.1204 17.4324 0.182706
416.362 25.6445 0.340945
190.522 23.4164 0.405797
95.0075 41.7384 0.209274
732.18 25.7578 0.422671
647.65 61.7184 -0.257576
325.097 27.4787 0.355421
536.986 10.067 0.324704
83.523 46.0883 -0.169205
252.182 26.0569 -0.45241
561.056 27.5675 0.362748
493.672 22.5339 0.400613
267.397 0.887587 -0.342616
554.143 52.2714 -0.0502388
539.19 40.8618 0.481008
489.402 38.4112 0.395189
504.719 1.70623 -0.621673
678.381 41.3532 0.401174
182.547 12.6148 0.182671
508.788 42.5002 0.431431
566.239 55.6473 0.116014
74.4727 0.951548 -0.271732
256.052 4.73247 0.159905
752.043 28.3945 0.195209
748.251 16.445 -0.574879
758.36 31.421 -0.537453
309.415 8.602 -0.239261
704.219 25.4602 -0.40024
413.814 43.1449 0.388308
457.842 0.863716 0.513595
640.822 50.2747 0.48251
27.1098 31.4741 -0.320732
336.961 43.4711 -0.579315
256.983 2.88351 0.342693
741.147 68.2005 0.171051
708.147 75.4191 -0.214252
292.968 11.0218 0.23752
655.289 46.143 0.0900943
562.315 2.59585 0.30575
547.293 6.44291 0.440775
98.4945 18.8792 -0.481912
309.274 1.03437 -0.22867
349.32 2.29477 -0.34962
14.0947 7.69836 0.400398
4.5824 31.2553 -0.235659
164.689 18.9553 0.348572
69.5747 42.1682 -0.215893
68.6189 29.1904 -0.322768
432.703 14.847 -0.408632
374.036 35.1037 -0.483507
725.952 43.3121 -0.145803
19.6685 3.99201 0.266242
72.0471 6.99889 -0.149837
617.044 48.7894 -0.20075
300.564 0.93876 0.368479
371.995 16.1737 -0.0851352
239.899 4.69126 -0.37363
643.196 28.3152 -0.195609
460.529 8.82914 0.436435
706.212 22.2832 0.406992
624.591 38.9211 0.293569
655.488 24.9813 -0.0919967
428.314 28.0651 0.49991
105.073 46.5512 0.3204
543.784 47.7488 0.073862
695.434 13.2173 0.253969
242.742 31.7413 -0.247601
32.3186 17.721 0.169578
342.404 13.9518 0.502703
110.198 41.8637 -0.470665
273.396 42.4379 -0.206216
435.034 1.79482 -0.382713
736.439 40.7527 -0.454382
668.415 1.76642 -0.727856
338.474 3.3334 0.55379
307.239 27.844 0.142857
471.546 43.4926 0.205431
83.2783 7.84177 -0.474641
201.797 45.658 -0.378443
727.658 32.9697 -0.401172
504.037 45.1047 -0.0928675
204.155 41.667 0.277661
164.202 43.714 -0.295378
757.879 51.7347 -0.390404
755.248 26.6885 -0.632797
611.28 4.66992 -0.549958
194.214 24.8706 -0.0905167
556.323 33.6779 -0.100626
557.249 29.7774 0.267304
418.667 5.65458 -0.143691
490.706 1.16031 0.40072
723.359 44.779 0.468079
87.8834 32.9207 -0.213252
645.661 20.5243 0.4841
279.956 15.6261 -0.326335
9.55113 2.41945 -0.317994
128.521 37.9584 -0.184221
69.1603 23.7699 0.473117
694.723 68.0047 -0.31363
741.762 77.1239 0.00765604
189.364 28.5895 -0.174633
751.578 24.2966 0.361245
46.1769 37.0001 0.269694
93.5057 29.801 0.147365
632.02 19.3669 0.400863
423.653 18.6624 -0.444001
525.071 16.8591 0.115707
243.241 29.8216 0.192813
622.461 8.29179 -0.409745
758.939 24.5274 0.429389
30.2696 32.4627 -0.26818
275.852 7.75419 0.190576
226.792 15.4676 0.290528
1.07841 36.0811 -0.157014
229.86 14.6492 0.398924
215.876 11.0827 -0.107138
218.831 26.2899 -0.317146
134.865 28.8761 0.122193
553.166 15.4266 -0.347892
170.299 14.2933 -0.339888
737.045 62.9303 -0.226298
177.732 3.94305 -0.487957
48.432 38.0972 0.439353
715.245 67.9972 0.474736
287.514 31.6627 0.409514
660.358 38.4521 -0.425934
745.049 57.0224 0.532679
307.49 9.27607 -0.101317
703.778 44.627 0.385467
335.413 2.53891 -0.412206
425.691 23.7574 0.361839
658.252 23.7022 -0.505939
107.626 11.8116 -0.403537
492.834 4.05539 -0.488852
708.468 20.0018 -0.191979
90.3754 7.7684 0.269685
287.933 14.7771 0.188533
433.848 12.1609 -0.233454
758.291 4.92898 0.545043
407.333 2.01292 -0.518192
180.443 39.2851 -0.314897
697.405 10.4922 -0.399132
131.877 37.2757 0.190633
268.766 31.5942 -0.364565
410.35 21.9055 0.217375
579.605 14.4642 0.325066
396.059 9.91556 -0.49305
466.371 29.3375 -0.429483
728.743 55.373 -0.427504
48.732 10.9653 0.0953463
306.067 39.5176 -0.285887
387.831 26.2384 -0.410757
419.809 20.6292 0.288207
531.317 44.4886 0.358151
731.229 66.9754 -0.184922
658.705 53.0983 -0.345881
230.523 35.6115 0.325772
14.0137 32.4258 0.155366
650.866 51.7489 -0.141537
519.293 44.697 0.464024
234.392 40.6373 -0.106744
676.174 57.8339 -0.127668
154.124 9.33216 -0.228477
374.818 22.0997 0.283946
472.88 45.1444 0.152357
423.937 20.4128 0.192799
723.825 58.0614 -0.346285
436.405 3.96496 0.5311
50.9156 25.5112 0.319356
479.862 35.9308 0.331174
444.26 43.1991 0.352207
743.588 60.0125 -0.217248
703.407 41.019 0.290366
548.97 19.9094 -0.130941
737.292 53.9933 -0.489688
300.105 2.23037 -0.484469
387.896 29.2321 -0.467941
29.7202 39.6437 -0.300568
709.159 41.0678 -0.135323
608.723 25.7519 -0.617852
472.771 0.772635 -0.476075
128.533 4.68935 0.334897
435.612 43.021 0.108927
11.9968 0.931646 0.347521
755.721 10.0848 -0.0746275
378.259 39.2102 -0.425006
[...]
POINT_DATA 13483
TENSORS Strain_matrix float
-0.334526 -0.467661 0.259868 
0.0480494 0.295573 0.854607 
-0.0298205 -0.0115818 0.134028 

-0.0796344 0.0463283 0.839299 
0.0745712 0.0915356 -0.757651 
-0.000131019 -0.000205337 0.62131 

-0.00995422 -0.00449869 0.0330794 
0.00176335 0.00575634 -0.0335245 
-0.00182333 0.00271644 0.022014 

0.0050832 -0.0834524 -0.24868 
0.137977 -0.00518281 0.120211 
0.00695511 0.0102052 0.0535171 

-0.0306908 0.031668 -0.779633 
-0.0209427 0.0858389 0.19623 
0.00264341 -0.0240493 0.0832769 

-0.052728 0.0101547 -0.112542 
-0.0543303 0.0789541 -1.59465 
-0.0137147 0.00886426 -0.0477581 

-0.0151628 -0.00887928 0.0306765 
0.0107544 0.0045529 0.0700427 
0.000218199 0.000629356 0.0259008 

-0.0158482 -0.0224263 -0.0439046 
0.0417872 -0.00804586 -0.129813 
0.000411013 0.00483215 0.0831825 

-0.147978 0.0905164 0.532459 
0.184681 0.0452181 -0.219018 
0.00058938 -0.00665377 -0.0115434 

0.0372892 0.280538 -0.585475 
-0.318306 0.0127953 0.467058 
-0.0222736 -0.00653356 0.459563 

-0.00558573 0.0050195 -0.0129965 
0.00499686 0.000846568 -0.0204791 
0.000551112 0.000338455 0.0107273 

-0.00450849 -0.00573183 0.0234347 
-0.0038279 0.00354808 0.0126743 
-0.00593364 -0.00126569 -0.0452429 

-0.453465 0.0881238 -0.105974 
-0.137544 0.388887 -0.676228 
0.0385597 -0.0438128 0.285969 

0.186608 -0.24744 0.776989 
0.285779 -0.0377798 0.323355 
0.0369821 -0.0258749 0.208917 

-0.0082041 -0.00631594 0.228227 
0.00824369 0.00277944 1.07607 
0.000107158 0.000519736 -0.0286763 

-0.00623239 -0.0258675 -0.350912 
0.045989 0.0314322 -0.577583 
0.00421058 -0.00632775 0.0898122 

-0.00541647 -0.0010692 -0.00234911 
0.00409247 0.00347705 0.000752057 
-0.000221421 0.000341269 8.73354e-05 

-0.0147885 -0.00740822 0.0113947 
0.00279088 -0.00348732 -0.0109345 
9.62993e-05 0.000855997 0.0291021 

0.0122503 0.0179821 0.0565517 
-0.0263031 0.000619996 0.047788 
-0.0775608 0.00881776 0.226638 

-0.00457603 0.0277785 0.00544569 
-0.037945 0.000197567 -0.0102153 
0.00241415 -3.69939e-06 0.0186181 

-0.0123435 -0.021413 0.0182292 
0.0249719 0.00334856 0.00410256 
-0.00453034 0.00264575 0.0407897 

-0.325967 1.62808 -2.34966 
0.258659 0.722044 2.51523 
0.0152258 -0.0354897 1.39794 

-0.0641789 0.0352395 -0.184108 
0.142091 0.038569 0.316341 
-0.011389 -0.00531291 0.0832219 

0.0718927 -0.397922 -7.05256 
0.19427 0.0946503 2.49008 
0.00222842 0.0250537 -0.342322 

-0.00987993 0.0362028 0.0836474 
-0.044352 0.00441824 0.0226959 
-0.00749631 -0.00347595 0.0217188 

-0.0288777 -0.00715168 0.0200507 
0.0224043 0.0156515 -0.0210945 
-0.0105309 0.0012933 -0.00979454 

-0.0376046 0.0643128 0.503312 
0.0782878 0.040145 1.34641 
0.00507387 -0.00150371 0.091022 

0.00812304 -0.0144943 -0.324482 
-0.0108883 0.0079008 -0.423921 
-0.00630981 -0.00390451 -0.0250761 

-0.00518355 -0.00155979 -0.807263 
-0.00336927 0.00665449 0.24194 
0.000128744 -0.000104268 0.0450274 

-0.520081 0.854315 -1.0687 
-0.251584 0.225853 -0.34861 
0.0795835 0.0117961 0.167562 

0.0211975 -0.130331 -0.0690182 
0.0413273 -0.0541076 0.0353578 
-0.00489922 0.00425269 0.0669455 

-0.0056823 0.00935314 0.0909374 
-0.105607 -0.058665 0.232537 
0.00197375 -0.00277558 -0.0374344 

-0.0690417 0.0505088 -0.0388009 
0.128772 0.0837429 -0.406502 
-0.0497918 0.00539139 0.575258 

-0.393684 -0.0588107 -1.65654 
0.137617 0.277736 -0.708669 
-0.0519549 0.0819766 1.11727 

-0.00690794 -0.0468023 0.0542039 
0.0583807 0.00629725 -0.00185377 
-0.000242259 0.00143705 0.00632499 

-0.00849832 0.095312 -0.0586005 
-0.129771 0.0218113 -0.0824414 
-0.00374319 -0.0179644 -0.0577826 

-0.031438 0.104669 -0.865252 
-0.0156597 0.00507949 -0.225432 
0.00601187 0.00161415 -0.00759726 

0.00134355 -0.0478332 0.039512 
-0.0379941 0.0174203 0.0764362 
0.0224458 0.0033157 0.0508644 

-0.0124979 0.106106 0.187 
-0.109849 -0.0145087 0.0533295 
-0.00247435 -0.0212174 0.13295 

-0.0112897 0.049492 -0.102928 
-0.0127537 0.00931495 -0.0735869 
0.00245979 0.00736804 0.242923 

-0.0917424 -0.0874092 -0.114661 
0.0621024 0.0659709 -0.206991 
-0.0268152 0.107919 0.461195 

-0.0290069 -0.0513866 -0.0290099 
0.0563078 0.00418745 -0.0259222 
0.0153797 -0.00964718 0.132986 

-0.0804693 -0.0384621 0.0123465 
0.0390831 0.0806805 0.0591699 
-0.00581128 -0.00536692 6.19958e-05 

-0.0151167 0.0355685 -0.130327 
-0.042398 0.0277712 -0.990253 
-0.0237499 -0.0333705 0.0839361 

-0.0175467 0.00679554 0.0361528 
0.0128548 0.0231252 0.0403439 
-0.0173339 -0.0131457 0.0337066 

-0.0129573 0.00448937 0.0306821 
-0.00996874 0.00996244 -0.0400096 
0.00150326 -0.000590553 0.0294497 

0.0236721 -0.0877502 -0.135305 
-0.0123994 -0.0119949 -0.748269 
-0.0207186 -0.0201491 0.0380578 

-0.0109292 0.00880971 -0.00363839 
-0.0153811 -0.00802886 0.00583315 
0.00371308 -0.000229642 0.02711 

0.0514656 -0.124368 0.076447 
0.146115 -0.0184985 -0.0875497 
0.00434214 0.000735589 -0.0445739 

-0.0952307 0.0433748 -0.210402 
0.382007 0.136263 0.0711263 
-0.00401656 -0.00985644 -0.00992943 

-0.00547015 0.0317289 0.0279491 
-0.0063472 0.00617237 0.007844 
-0.00228764 8.69127e-05 -0.0049536 

-0.0359719 0.269661 0.287063 
-0.115417 -0.0598813 0.0893081 
-0.00743732 0.0217463 0.212704 

0.00323486 0.0127634 -0.00341898 
-0.0166911 -0.00786294 -0.00841615 
-0.00110821 0.000508781 0.00950684 

-0.0126976 0.0195389 0.0164769 
-0.0147323 -0.00700134 0.0107581 
0.00306583 0.000869821 0.0281445 

-0.0110053 0.00980334 0.142882 
-0.00089415 0.00631649 0.0191953 
0.000963549 -0.00123461 -0.0570559 

-0.0179838 -0.540874 -3.09187 
0.153049 0.00371518 2.01854 
-0.00391678 -0.0128153 0.0534704 

-0.00186943 0.145223 -0.0676542 
-0.114216 -0.0117177 -0.106042 
-0.00366453 -0.000354478 0.0485063 

0.0039156 0.125557 -0.0658943 
0.00735423 0.0283497 0.133186 
0.0118945 0.0609899 0.995023 

-0.00701145 0.0072047 -0.00550935 
-0.00238053 0.00249208 -0.00264445 
0.000168029 0.0019193 0.0101404 

-0.00642596 8.86091e-05 0.046194 
0.0174953 0.00642936 -0.00215241 
-0.00189251 -0.000344348 -0.00167957 

0.0479175 -0.12754 0.0544498 
0.0624946 -0.0889448 -0.036104 
-0.00154006 -0.00335039 -0.06083 

0.000352414 -0.0273224 0.0218019 
0.0422756 0.00066325 -0.0221678 
-0.000160489 -0.000778412 0.00304228 

-0.00435317 0.00576979 -0.000318789 
-0.000760745 -0.000194265 -0.000697996 
0.000133025 0.000228026 0.00511883 

-0.18988 0.382788 -1.07922 
-0.438737 0.373916 -1.33911 
0.0583854 -0.0365366 0.86566 

-0.0221211 0.0144115 -0.0200732 
-0.0217225 0.0199397 -0.0235151 
0.00428221 0.00344436 -0.0150669 

-0.0548108 -0.0133788 0.054393 
0.0228062 0.0217908 0.127805 
-0.019142 -0.0157577 0.135445 

-0.559676 0.465892 -1.99321 
-0.358429 0.447651 0.0441622 
0.0170767 0.00722469 -0.0235485 

0.0300832 -0.0854073 -0.0113866 
0.129435 0.00428003 0.0303405 
-0.000868207 0.000623676 -0.0292054 

-0.00691549 0.0023637 0.893594 
-0.00205028 0.00592852 -0.542766 
-0.000367654 -0.000107876 -0.0057569 

-0.0335561 0.0352466 0.122785 
-0.0236907 -0.00320581 -0.0163028 
-0.00724578 0.0023991 0.0602025 

-0.270672 0.571892 0.731853 
0.117517 0.244235 0.722596 
0.0531025 -0.0138934 -0.103568 

-0.00717667 0.00112642 0.00745453 
-0.000160528 2.39762e-05 -0.00402955 
0.000330148 -0.000151825 0.00926115 

0.0302489 0.184398 0.0746171 
-0.132635 0.0347688 0.235999 
0.0123685 0.00609022 -0.0266242 

-0.0515588 0.0621795 -0.761026 
0.212952 0.10498 1.42718 
0.0129989 0.0140245 0.152626 

-0.0117762 0.0164824 -0.0295408 
0.00792057 0.00925399 0.0252856 
-0.000152727 0.000431685 0.0366795 

-0.0175119 0.0178487 0.00448337 
-0.0127795 -0.00498664 0.00238724 
-0.0029156 0.00138209 0.0231358 

-0.12292 -0.120049 -1.4547 
0.0781444 0.223718 -1.80352 
0.000445122 -0.00496358 0.0199313 

-0.0394345 0.0405784 0.0354777 
-0.012887 0.0186733 0.0421101 
0.00438314 0.0250751 0.358371 

-0.386285 -0.13304 -0.329261 
0.0897301 0.205666 0.244268 
0.000813192 0.00634076 0.00775518 

0.0232431 -0.08141 -0.11834 
0.123902 -0.00787107 0.18578 
-0.0159566 -0.00651635 0.0808433 

-0.282433 -0.205212 -0.254119 
0.149406 0.268637 0.199074 
-0.016932 0.0363507 0.347949 

0.00607667 -0.0324493 0.0344625 
0.056154 0.00215682 0.00514165 
-0.000495239 -0.000636173 -0.00975569 

-0.00811388 -0.0143435 -0.0565716 
0.0119071 0.00261844 -0.0275977 
-0.000735761 -0.00207224 0.0121929 

-0.0351816 0.247967 0.610051 
0.0720034 0.108876 -0.0205446 
-0.0315942 0.00720146 -0.147489 

-0.00648856 -0.0674013 0.0314543 
0.0914578 0.00644797 -0.0600915 
0.0033324 0.003655 0.03842 

0.00223253 0.0691229 0.0574766 
-0.00855902 0.0133191 0.247576 
0.002913 0.0016364 -0.0202541 

-0.0380421 0.294229 0.9643 
0.0448748 0.0827062 -0.0418903 
-0.00449393 -0.0395717 0.146115 

0.0197969 0.0174214 -0.152606 
0.00993964 -0.014091 -0.0574398 
-0.000726765 -0.00177715 -0.0094287 

-0.13563 -0.324245 0.41227 
0.246319 0.088436 -0.073677 
0.0348254 0.0535609 0.415408 

-0.0133861 0.00367917 -0.0177154 
0.00475028 -0.00472013 -0.0389799 
0.0005027 -0.000272022 -0.00698213 

-0.0267184 -0.025015 -0.0300907 
-0.0305074 0.000924518 0.0276193 
-0.0217173 0.0383877 0.17094 

-0.153211 0.113704 -0.471109 
-0.0064075 0.0913472 0.245629 
-0.0142353 -0.00752227 -0.0484338 

-0.0440895 0.0224886 0.712718 
0.00614182 0.0340659 2.28848 
-0.000211719 0.00262729 0.0387988 

0.0171132 -0.0128739 -0.181405 
-0.00158251 -0.0185837 0.128069 
0.000501014 -0.000352783 -0.00358722 

-0.00616157 0.00762205 0.0190677 
-0.0117363 0.00111643 -0.0245053 
0.00018711 0.000212752 -0.00319402 

-0.39856 0.301717 -1.14143 
0.147475 0.320818 -0.194856 
-0.0299329 -0.165623 0.428287 

-0.0192962 0.0198186 0.00602184 
-0.00424393 0.0066979 0.0181687 
-0.000785791 0.000159051 0.0039754 

-0.0874348 -0.241008 0.126603 
0.231913 0.00715266 -0.0163117 
0.00849698 -0.000346779 0.110134 

-0.0670722 0.0155913 -0.0836472 
0.070393 0.0936151 0.0020531 
-0.0121243 0.00352736 0.0151366 

-0.00734151 -0.0155247 -0.00158134 
-0.00290873 0.0100884 -0.00372617 
-4.96795e-05 4.41778e-05 -0.00433742 

-0.0254617 -0.0199498 0.107787 
-0.00884587 0.00510016 0.323144 
0.00143785 0.00386809 0.0621313 

0.0406706 -0.449303 -0.463623 
0.380008 0.159199 0.575474 
-0.00120021 0.0235123 -0.228064 

-0.0023778 0.00111376 -0.056532 
0.0017696 -0.00145091 0.0191678 
-0.00033031 -9.67266e-05 0.00621745 

-0.0102279 -0.0173731 0.121973 
0.040167 -0.00112336 0.0394212 
0.013844 -0.00951166 0.0398727 

-0.00525786 -0.00154563 0.00702482 
-0.000330817 0.00274969 0.0566952 
-0.000893917 0.000520063 0.0146684 

-0.0220688 -0.033228 -0.0128619 
0.0270699 0.00560786 -0.00345635 
0.00737424 -0.000767757 0.0298495 

0.0123689 0.00221314 0.0102949 
0.0128943 -0.0104319 0.0105316 
0.00321654 -0.00244535 0.00367042 

-0.01323 -0.02991 -0.0261685 
0.0502602 0.0121266 0.120491 
0.00082614 0.00059964 -0.013453 

-0.00687825 0.00882145 -0.000803856 
0.00200371 -0.00559227 -0.00712543 
-0.000194663 0.00124434 0.0260149 

-0.111831 -0.0667088 10.7417 
-0.00663539 0.0242306 0.857216 
0.000728158 -0.000587351 0.947301 

-0.0373965 0.0171038 0.352861 
-0.000120759 0.13683 3.53366 
-0.000621795 -0.0175405 0.0174296 

0.0170407 -0.040416 0.172827 
-0.00410968 0.00248125 -0.185992 
0.00177928 -0.00222706 0.036519 

-0.0118588 0.00485793 0.027142 
2.9555e-06 0.000782228 0.044597 
-0.000581803 -0.000912194 0.0103761 

-0.706216 0.30456 2.58488 
-0.253818 0.249203 -1.15205 
-0.0774452 0.00960785 0.417949 

-0.00729789 0.202151 -0.162384 
-0.163482 0.0508064 0.0729923 
0.000938181 0.000215971 0.0194476 

-0.00823669 0.0122717 -0.0389755 
-0.00988118 0.00125675 0.011763 
0.000768778 -0.000133887 0.0111638 

-0.0816675 -0.00477216 0.0998973 
-0.0224485 0.0316512 0.116541 
-0.000444772 0.000110554 0.00675883 

-0.0175057 0.0153296 0.0554513 
-0.00713771 0.0110914 0.0317652 
0.00413094 0.00103611 0.0547202 

-0.283531 -0.927718 -0.949402 
0.190169 0.517907 1.73108 
0.00281503 0.0061305 -0.0239447 

0.00834546 -0.0804554 -0.00456762 
0.0778805 -0.000129722 0.0353885 
-0.00018129 0.000572286 0.00654492 

-0.21403 0.0641386 0.342406 
-0.114703 0.216843 -0.111528 
-0.0675275 -0.207563 0.20576 

-0.0237137 -0.0340233 -0.125311 
-0.0674077 0.0514438 0.159909 
-0.00102543 0.0100856 -0.0599484 

-0.00760759 -0.00328506 0.00541072 
-0.000270307 0.00370285 -0.00414758 
-1.98994e-05 0.000196013 0.00754647 

0.0849615 -0.0855413 0.354217 
-0.0528882 -0.0569115 -0.126229 
0.035521 -0.0397084 0.191064 

-0.0217735 0.00180463 -2.83854 
0.0057468 0.0126848 -4.16361 
0.00489065 -0.00683964 -0.0470604 

-0.00762316 -0.00670833 0.175431 
-0.0128675 0.0148102 0.295408 
-0.000487394 -0.00194365 0.228555 

-0.0475007 0.0706781 0.165321 
0.00900325 0.0638736 0.210296 
-0.00294214 -0.0191188 -0.0163794 

-0.0021117 0.0138817 0.0156956 
-0.0134985 0.00248416 -0.0527321 
-0.00154438 -7.79016e-06 0.00270962 

0.0294939 -0.41307 -0.632216 
0.366185 0.149587 0.442211 
0.0611313 0.0176772 0.175908 

-0.0396548 -0.0490855 -1.01608 
0.0788092 0.0543631 -0.161092 
0.00138476 0.0031892 0.160032 

-0.684925 0.22358 0.205065 
0.363758 0.664617 -0.313573 
-0.0884395 -0.0762801 0.886832 

0.104433 -0.0496701 0.064604 
0.0460644 -0.0396031 0.0299755 
-0.00263689 0.0021025 -0.0755812 

0.0244107 -0.101531 -0.798232 
0.186319 0.00460632 0.573178 
0.00122199 -0.00893815 -0.0226363 

-0.00263564 -0.0193264 -0.00407686 
-0.0060381 -0.00352086 0.00363493 
0.000321501 -0.000543341 0.0090964 

0.0247843 -0.0506531 -0.406945 
-0.21765 0.00627727 -0.184861 
0.00333569 0.00146799 -0.0270154 

-0.00400095 0.00900023 0.00966451 
-0.0123813 -0.000510748 -0.00580713 
-0.000420911 0.000396257 0.00379575 

-0.196393 0.808202 -0.436985 
-0.162189 0.338358 -3.3186 
-0.00881613 -0.0286804 0.0844172 

-0.000407787 0.000772527 -0.00738794 
-0.00159338 -0.00284676 -0.0177993 
0.000197015 0.000848758 0.0834701 

-0.034959 -0.00477898 -0.0113743 
-0.0187978 0.0309828 -0.075445 
0.00192802 -0.000775704 0.00156628 

-0.00520304 0.057294 0.04392 
-0.0113628 0.0169873 0.0697935 
-0.0432958 -0.10784 0.813423 

-0.0640943 0.078486 3.24557 
-0.0765319 -0.0223559 -13.9196 
-0.00377671 -0.00595931 0.574392 

-0.0083676 -0.000902935 -0.0220704 
0.0137363 -0.00428659 0.000778832 
0.000501923 -0.000200986 0.0143491 

-0.012107 -0.0410983 0.00794144 
0.00757285 0.0212168 0.00187408 
-0.00057167 -0.000534922 0.00433903 

-0.0157123 0.0338656 0.00742491 
-0.0537343 0.0152155 -0.0413069 
0.0293027 0.024231 -0.185632 

0.0118332 -0.00325717 -0.00483083 
-0.016591 -0.0113468 -0.0613735 
0.000525517 -0.000317789 0.00190524 

-0.0943404 -0.0611016 0.0783167 
0.129238 0.106405 -0.108117 
-0.0320397 0.0254421 0.113395 

0.00934536 0.0107325 -0.0798538 
-0.00381739 -0.00029482 0.0586877 
-0.0199168 0.010597 0.0629075 

-0.0118481 -0.000114881 -0.0327353 
-5.38923e-05 0.00486282 -0.0343796 
-0.000693168 -0.000554602 -0.0104434 

-0.0117242 -0.020177 0.155531 
0.0174893 0.00129464 -0.135398 
0.000961588 0.00082114 -0.0208217 

-0.00130372 -0.0319505 0.0313056 
-0.0524869 0.0264019 0.0906782 
-0.00134625 0.000791546 0.000475502 

-0.00746195 -0.00120525 0.316512 
0.00161678 0.00101335 0.107361 
6.20534e-06 -3.71782e-05 0.0126474 

-0.000706952 0.00518992 0.00664619 
-0.00380737 -0.00211597 -0.00978308 
-0.000380708 6.72108e-05 0.00686453 

-0.0055867 0.0431963 -0.152095 
-0.0147465 0.00532486 -0.264337 
-0.000113739 -0.000468833 0.0725215 

-0.00718953 -0.00477186 0.0974824 
-0.00248043 -0.000869648 0.151839 
-0.000371491 0.000859715 0.00932532 

-0.00780131 0.0040582 -0.316835 
0.00253703 0.000350707 -0.218846 
-0.000484347 -0.000430644 0.00651895 

0.0537193 -0.0836635 -0.0812229 
-0.0100173 -0.0132381 -0.0218699 
0.00836635 -0.00467169 -0.0675954 

-0.0351157 0.0196428 0.276721 
-0.0215077 0.0806611 0.295722 
0.00928816 -0.0122915 0.00988031 

-0.022418 -0.00716315 -3.2055 
0.0316634 0.0330052 2.93064 
0.00126905 -0.000250818 0.161474 

-0.185518 0.466154 -2.96942 
0.000378543 0.368006 -3.34407 
0.00516519 -0.0324197 0.476446 

-0.00329801 0.00714313 -0.144483 
0.000191597 -0.0023927 0.0520498 
0.00060471 -0.000360332 0.0336735 

0.012626 -0.126194 0.0745243 
0.13681 0.00923996 0.00549798 
0.00123629 -0.00078351 -0.190428 

-0.686523 -0.308362 -0.193654 
0.200467 0.396795 -0.697901 
0.173594 -0.0475978 0.365686 

-0.245231 0.0975176 -2.21099 
0.0658934 0.265435 -1.91958 
-0.0124718 0.00794446 -0.0800388 

-0.527831 0.539321 -4.42161 
0.0668674 0.411527 3.7763 
-0.0191386 0.00194315 -0.277653 

0.0061149 0.184237 0.106172 
-0.129002 0.0670496 0.207868 
0.00668149 0.00346972 0.070606 

0.0245309 0.238754 0.052136 
0.502579 -0.0312874 -0.295926 
0.038367 -0.0226572 -0.00369122 

-0.00499079 -0.0204217 -0.00398186 
0.00753863 0.00772883 0.0120372 
-0.000290302 0.00045252 0.00803427 

-0.00650976 0.0337718 0.134986 
0.00956233 0.0103044 0.0891172 
0.00891711 0.00594516 0.105737 

-0.0257746 -0.0138929 -0.264693 
0.0189072 0.0119133 0.0984767 
0.0322535 -0.00624001 -0.209399 

-0.0230949 -0.0304217 -0.0987645 
0.017729 0.0230599 0.054813 
0.0233069 -0.0176995 0.509737 

-0.0334729 0.0119501 0.00877952 
0.0322051 0.0186652 -0.0773872 
0.000496447 -0.000936679 0.0587168 

-0.00689859 0.00810769 -0.0370594 
-0.00894984 -0.000416758 -0.011048 
-0.000316892 -0.0022488 0.0185801 

0.0067419 -0.0133623 0.126572 
-0.212362 -0.00514067 0.334138 
-0.0341424 0.00694678 0.112975 

-0.16353 0.207929 0.755402 
-0.00721399 0.149317 0.674923 
-0.00109227 0.00174242 0.116679 

0.0151388 -0.154471 0.0368016 
0.175301 -0.0114038 0.167627 
0.00079466 0.0126625 0.0544711 

-0.0319951 0.00630013 0.319258 
0.011473 0.0476295 -0.244516 
-0.00443573 -0.00168527 0.0147846 

-0.0900063 0.0123108 1.26785 
-0.00888159 0.0715933 0.156338 
-0.0919866 -0.0608629 0.509534 

-0.00635019 0.0107135 0.00354826 
-0.00628555 0.0025645 0.000170284 
-0.000265148 0.000320977 0.00523191 

-0.041376 0.0471942 -0.302703 
-0.121865 0.00854144 0.0757652 
0.00968237 -0.00456201 0.0714624 

-0.00880991 -0.00546405 -0.00210904 
-0.00415063 -0.0303594 -0.00193531 
0.0013422 0.00173605 0.0659409 

-0.0877723 -0.0744859 0.0297944 
0.0683122 0.0361017 -0.0280768 
-0.00234722 0.000256781 0.024502 

-0.0102554 -0.0480034 0.0179712 
0.0139423 0.0209885 -0.0707994 
-0.00320413 -0.00253195 0.0649507 

-0.0113983 -0.0282964 0.0221567 
0.0201286 0.000204328 -0.0431902 
0.00154704 -0.0105416 -0.0421548 

-0.00788264 0.00480587 -0.315562 
0.00504198 0.00124399 -0.195094 
-0.000624901 -0.000276295 -0.0508378 

-0.0106853 -0.0203856 -0.00822842 
0.0200193 0.0255055 0.0662594 
-0.000342063 -0.000482132 0.00884115 

-0.0197155 -0.00113754 -0.379904 
0.0278157 0.00395854 0.0671085 
0.00094942 -0.000606172 0.0207438 

-0.000560278 0.000847002 0.000938137 
-0.00124531 -0.00150833 0.00562314 
0.000223549 -9.18299e-05 -0.00065339 

-0.149855 0.281573 -0.235173 
-0.125537 0.0744368 -0.0289377 
-0.00324171 -0.00786591 0.0881697 

0.0188683 0.018608 -0.464346 
-0.0199078 -0.0263405 -0.16402 
0.000270574 -0.000195969 -0.000214358 

0.0107107 -0.0276351 0.0193201 
0.0380014 0.0251645 -0.281626 
-0.00980364 0.0169897 0.0533687 

-0.0289865 -0.0313669 0.154734 
-0.0669645 -0.0355899 -0.173544 
0.0034976 -0.0166271 0.0666058 

-0.00268632 0.00336448 -0.00107901 
-0.00205157 -0.00171322 0.00528356 
0.000564584 0.000303421 0.0102601 

-0.414368 0.115008 1.02623 
-0.163224 0.305371 -0.565893 
-0.022957 -0.0327313 0.00697619 

-0.216874 -0.308725 1.05666 
0.139724 0.289154 1.46146 
-0.044918 -0.034952 -0.290131 

-0.258905 0.137795 -0.373328 
-0.251382 0.0229779 -0.305232 
-0.0100899 0.0161338 0.177053 

0.0271694 -0.00608248 0.0121828 
0.0120245 -0.0135322 0.0229999 
0.000277273 0.000927772 -0.0175007 

-0.0552229 -0.0146964 0.0912444 
0.00538804 -0.0673583 -0.284869 
0.00357322 0.00756485 0.200073 

-0.0417513 -0.0681094 0.00564606 
0.214662 -0.00849561 0.4257 
-0.0458802 0.0730217 -0.198946 

-0.0517296 0.0720681 0.11408 
-0.0606504 0.011065 -0.0532974 
-0.00082345 -0.0146534 0.120895 

0.00907559 -0.13438 0.149275 
0.133255 0.0262833 -0.0972423 
-0.0302513 -0.00175943 0.211868 

0.025555 -0.136214 0.0156682 
0.145557 0.0050184 -0.0154207 
0.0033183 -0.00211445 -0.00198929 

-0.00438884 -0.00316736 0.00133236 