# vtk DataFile Version 3.0
Output file generated by Yade's KinematicLocalisationAnalyser
ASCII
DATASET UNSTRUCTURED_GRID

POINTS 13483 float
395.296 54.7893 -0.459709
487.847 65.041 -0.511296
99.1959 6.01657 0.464021
512.726 18.4761 0.416292
338.676 24.9748 0.435057
243.878 57.2934 0.455371
126.847 7.27776 -0.482267
392.223 10.7623 0.255366
334.463 52.6384 -0.184771
461.814 40.1201 -0.610309
166.182 8.79487 -0.095495
202.791 7.48461 -0.289381
419.697 67.8996 -0.145027
414.019 43.0055 0.0809413
111.392 21.3356 0.453048
182.144 41.5278 0.430568
173.272 13.097 0.24723
218.957 26.8687 0.471383
257.744 67.8304 0.467063
354.293 10.0102 0.371031
295.049 72.1501 -0.109583
377.628 63.8429 -0.283642
509.408 56.0516 0.483403
464.833 102.166 0.429233
320.457 24.0232 0.346773
183.96 64.3492 0.121982
334.124 60.4172 -0.514407
398.208 25.2907 -0.274669
35.6224 17.3638 -0.499607
463.288 80.2539 -0.359794
337.318 4.82548 0.509126
15.959 27.0141 0.302888
496.699 76.5878 -0.2801
335.705 18.1949 0.704969
61.5053 53.1776 0.106443
346.862 40.8587 0.375543
360.286 17.1624 -0.499344
256.807 39.0883 0.192063
364.105 28.6142 -0.394606
264.468 65.7156 0.418128
190.864 17.1677 0.332156
304.343 61.7531 0.06639
441.562 23.057 0.140733
152.342 6.18509 -0.58026
45.6586 10.9633 0.106105
54.643 9.76686 0.297661
447.904 36.3873 0.541216
20.7506 12.0905 -0.311568
371.465 81.4996 0.435839
433.824 56.5704 -0.309036
135.707 43.0392 -0.296125
487.813 51.7256 0.116811
25.7499 36.6366 -0.113289
362.254 2.55684 0.622459
116.426 9.48156 0.604905
387.493 51.9123 -0.466625
335.799 54.3701 0.134049
139.794 1.02441 0.292055
29.2953 2.32951 -0.399388
252.784 26.5118 0.271062
382.207 90.217 0.131359
325.809 62.5499 -0.182027
283.776 2.52006 0.32452
456.182 36.7829 0.535106
16.239 54.7986 -0.272503
203.746 58.7314 -0.36888
458.505 30.9144 -0.267919
433.828 91.8922 -0.342769
297.297 10.5457 -0.622569
392.354 3.74378 -0.521981
473.689 36.5559 0.494245
108.919 8.52459 0.428572
335.875 58.0335 -0.141725
325.327 33.1626 0.0955978
223.727 34.104 -0.439599
18.5601 14.3666 0.306806
505.641 78.3939 0.359035
252.216 75.6712 -0.313117
432.273 51.8365 0.349879
443.976 39.4813 -0.274261
503.182 20.7119 -0.325239
326.132 66.7471 -0.188366
75.9107 49.216 0.291651
454.974 89.8482 0.21225
412.156 81.5997 -0.0248408
509.192 69.075 -0.108902
507.037 0.621451 0.689633
224.642 44.7892 0.418727
413.644 28.7439 -0.108821
22.3471 5.79754 -0.663129
108.628 45.4001 0.145006
350.586 20.1382 0.321202
492.454 37.92 0.632633
156.624 34.3679 0.253448
30.342 41.427 0.294168
345.011 0.997598 0.261235
189.375 8.93199 -0.694754
486.722 80.4837 -0.297731
484.483 39.1754 0.263346
259.893 29.0232 0.280806
131.585 35.0796 0.471447
360.822 54.5381 -0.494687
272.299 18.8384 -0.591282
297.064 48.849 0.133957
268.421 6.8298 0.673313
375.554 11.5609 -0.138436
510.448 32.611 0.240851
64.4782 48.8324 -0.485197
243.124 7.5417 0.241468
386.385 10.93 -0.579361
279.681 68.6283 0.437868
19.3341 33.7119 0.484525
27.2261 5.56781 -0.321021
369.629 55.8881 0.506036
338.555 42.1048 0.214964
13.0371 49.039 -0.317744
75.9656 39.1844 0.220605
237.551 20.622 0.354205
398.151 41.3556 0.126922
331.807 77.655 0.193239
456.518 7.0619 -0.540287
451.963 9.68456 -0.287438
288.077 56.5606 0.10412
410.541 59.0287 0.100599
189.664 22.6657 0.541553
239.888 5.9686 0.604754
81.8406 39.8707 0.332242
95.2858 26.7448 -0.268708
362.19 50.8541 0.0734527
236.997 28.4812 0.479978
462.276 82.1856 -0.109394
438.289 92.9976 0.118124
326.264 43.0882 -0.40863
492.249 13.9529 0.550241
302.015 36.3948 0.255158
211.708 43.5212 -0.300654
434.515 76.5753 -0.290152
216.958 52.2956 0.388186
401.009 11.5701 -0.21789
253.369 71.2875 0.188931
345.401 22.1362 0.567315
269.639 42.0991 0.114754
303.357 21.1742 0.135567
240.628 67.6972 -0.451139
153.163 36.6625 -0.134954
491.672 67.2579 -0.208748
507.385 33.7665 -0.319611
5.95103 12.9781 0.461092
302.55 30.574 -0.434962
28.7893 26.1535 0.0802593
282.11 43.0278 -0.578446
286.131 38.0457 -0.256625
60.5266 12.7154 0.508082
38.1359 38.8805 0.470243
181.803 13.2414 0.567935
385.703 83.5805 -0.374468
393.921 26.9485 -0.502318
62.0855 24.6441 0.532444
466.652 106.341 -0.405441
482.161 4.03934 -0.555034
426.881 85.058 -0.463882
448.606 18.8655 -0.544922
374.75 30.3956 -0.477967
379.219 63.0407 -0.457956
349.903 27.7473 -0.419742
512.5 13.879 -0.378199
181.909 27.6765 0.119093
106.009 40.6503 0.191045
198.052 11.6112 -0.614232
77.2066 4.88818 -0.297064
52.6948 12.4992 0.213726
220.559 60.3255 -0.300419
14.8923 28.3628 -0.366498
383.594 21.0013 0.642373
375.422 76.0371 -0.195173
323.308 30.2759 -0.435578
514.965 87.7825 0.350974
290.838 10.5351 -0.264611
306.858 49.2234 -0.489625
369.276 3.46757 -0.362183
18.1985 29.2714 -0.431055
403.37 3.9949 0.531526
376.914 3.90116 -0.327229
165.406 12.3624 0.553258
301.141 18.4685 -0.226104
229.016 7.00429 0.487069
282.163 26.8181 -0.395257
477.107 69.231 0.101781
155.549 31.6037 0.438736
499.508 6.26783 0.416151
474.697 62.0784 0.419974
276.538 12.7777 0.525577
446.074 3.30489 0.623948
399.684 55.5979 -0.419517
464.926 20.1035 -0.439262
314.099 69.8304 -0.22459
342.268 28.3033 -0.513652
322.117 78.2578 -0.19811
316.203 16.1732 -0.360391
430.799 85.7696 -0.248081
429.825 81.8792 0.331205
157.31 44.9917 -0.347249
504.278 17.8291 -0.152441
379.977 57.0548 -0.293294
11.7438 17.9231 0.171606
293.102 38.4714 0.363681
149.687 30.6735 0.412898
76.9852 50.6653 -0.242913
488.71 29.9085 0.568666
424.531 91.4881 -0.243043
248.541 44.5214 0.380268
366.671 10.1909 0.351746
66.5867 54.4413 -0.170794
197.853 43.7018 -0.482995
380.4 31.7944 0.353461
330.881 42.3242 0.466503
210.638 0.864842 -0.418686
359.109 64.4819 -0.455998
361.009 44.8904 -0.488036
342.382 75.3019 -0.377369
345.259 6.34995 -0.688172
447.157 58.5554 0.416134
145.91 14.6392 0.216607
351.897 72.5172 0.413563
364.933 75.487 -0.12119
59.2581 0.907086 -0.295172
201.479 5.9186 -0.21316
506.087 35.1396 0.278566
503.028 22.7011 -0.555347
512.427 38.0682 -0.578279
221.638 10.0221 0.386889
469.986 25.4122 -0.474984
294.345 81.3332 0.1462
322.292 1.90731 0.578361
417.537 79.8467 0.452763
11.7707 42.7909 -0.295026
254.722 78.0371 0.473392
202.396 4.20832 0.417228
499.757 79.6038 -0.257118
477.443 86.611 0.25761
220.642 29.1221 0.189152
429.511 74.3374 0.089593
388.377 2.55005 0.277983
375.003 6.8218 0.631779
80.796 18.4929 -0.550254
224.053 1.00666 -0.546659
249.77 4.39398 -0.478679
12.9811 7.94395 0.688207
4.16613 32.445 -0.261886
131.161 22.9913 0.352911
54.1228 47.9621 -0.225907
55.6896 35.1918 -0.29752
301.651 16.7082 -0.460797
275.708 43.4259 -0.480072
485.823 52.7936 -0.123735
18.0276 4.0233 0.302947
57.4602 7.6919 -0.199844
393.611 82.1509 -0.160349
217.408 1.63823 0.56719
266.023 23.1432 -0.0973571
191.176 5.682 -0.625933
423.395 53.9511 -0.205983
319.558 12.3269 0.488358
471.557 22.0729 0.430788
408.967 62.9152 0.312405
434.745 47.2672 0.110854
298.454 37.1145 0.517754
87.3218 53.5363 -0.30952
356.921 54.3108 0.0921153
461.035 12.5603 0.274439
194.682 48.1523 -0.242791
23.4718 24.4415 -0.167476
246.225 21.4273 0.702592
90.3602 46.8641 0.506476
217.536 68.5157 -0.188313
308.588 2.40851 -0.229513
494.625 48.9004 -0.464137
441.111 2.70321 -0.734242
242.745 4.07818 0.548469
236.341 40.5218 0.169533
322.926 74.9472 0.19649
66.9107 9.22719 -0.601977
164.312 49.6291 -0.415068
485.89 42.4558 -0.568656
358.352 80.1006 -0.0673986
165.659 44.9422 0.367648
133.715 60.366 -0.392198
512.638 62.6907 -0.417443
509.221 33.5648 -0.644142
429.683 5.192 -0.60839
153.702 31.6828 -0.110499
374.865 35.2823 -0.111477
376.976 31.973 0.300696
295.057 7.51439 -0.139902
341.762 0.781151 0.505866
483.173 53.8141 0.493549
70.2877 40.1055 -0.223053
433.324 42.5827 0.488588
210.441 32.222 -0.334123
8.2866 2.57801 0.419203
104.216 41.7032 -0.194123
56.7813 30.0062 0.429936
464.26 89.5738 0.291015
500.231 87.307 -0.183071
149.173 35.8184 -0.178139
505.842 30.6734 0.467081
32.1689 43.2021 0.256334
76.1623 35.7211 0.153921
423.793 38.9739 0.356908
294.419 25.8841 -0.5473
358.675 18.0141 0.152843
192.52 41.6359 -0.212546
416.129 27.2543 -0.468305
513.03 31.7094 0.467467
15.4762 42.8685 -0.266273
213.669 13.5103 -0.316464
179.863 15.7482 0.261879
1.06042 37.0902 0.158295
182.646 14.5585 0.442399
170.656 11.1475 0.200474
179.077 28.6646 -0.278691
111.952 34.399 0.13964
380.903 15.6069 -0.402194
135.797 18.1944 -0.367449
496.43 73.2957 -0.21874
141.119 5.82887 -0.624246
34.323 43.7162 0.369044
479.169 79.8064 0.560337
222.13 52.6793 0.392576
435.964 64.7683 -0.468798
503.651 66.0085 0.504882
221.417 12.0226 0.119778
465.206 58.3158 0.385415
241.682 2.67345 0.525705
297.562 30.3899 -0.428805
438.43 43.6535 -0.532555
88.3655 12.109 -0.621121
343.945 5.30908 -0.661521
473.235 19.8029 0.273659
72.4926 7.99633 0.368643
214.255 29.8013 0.197254
303.889 13.7637 0.200416
514.209 9.44076 0.519909
287.177 1.8739 -0.588671
146.352 50.5449 0.271454
463.404 10.1385 -0.484771
107.433 42.4745 0.182628
211.629 55.4665 -0.371518
290.281 28.7461 0.237156
403.036 14.1815 0.420841
278.482 10.047 -0.60821
319.347 49.7893 -0.412495
489.341 65.3379 -0.510338
39.9209 15.2785 -0.102031
238.611 51.2614 -0.361637
279.343 35.7242 -0.461094
293.793 24.1728 -0.396802
354.2 51.4213 -0.415556
494.38 81.6003 0.318566
436.092 83.0894 -0.348988
185.452 49.0835 0.434541
8.54841 42.9829 -0.158877
427.88 81.7038 -0.140291
350.2 57.6297 -0.620823
184.682 55.0961 -0.0955559
451.864 86.4094 0.114023
124.451 10.1574 -0.205241
269.92 30.1215 0.28854
323.797 76.8865 0.097399
295.394 28.9224 -0.246095
483.571 67.8743 -0.366294
308.904 5.49903 0.620584
39.5453 29.2672 0.333658
334.536 71.3482 -0.34315
306.129 54.3817 -0.382519
502.741 69.5482 -0.269434
468.193 54.9382 0.272594
376.331 20.4022 -0.237939
496.519 64.176 -0.557364
218.229 2.35958 -0.63689
283.522 42.2889 -0.457223
16.7671 49.7987 -0.293334
472.792 53.6531 0.163296
404.969 43.3517 -0.519427
326.634 0.820487 0.652919
106.2 5.68102 0.418403
309.505 64.6891 0.110839
10.6502 0.930073 0.364485
509.641 16.6411 0.12964
277.799 49.0281 -0.440726
[...]
POINT_DATA 13483
TENSORS Strain_matrix float
-0.0639103 -0.187283 0.802342 
0.144699 0.0750234 0.520651 
0.0047329 -0.00075071 -0.0156013 

0.00298296 0.0259826 -0.998103 
-0.0305595 0.00946379 -1.12834 
0.000338267 -0.000159301 0.106811 

-0.0171371 -0.0470084 -0.0621844 
0.0131222 -0.0131327 -0.133601 
0.00340295 0.00574873 0.107002 

0.0333356 -0.0194462 0.0424035 
0.0459844 0.00689939 0.0725073 
-0.00433135 -0.00489394 -0.0610095 

-0.039955 -0.00276441 0.0429229 
0.00247425 0.00155524 -0.111889 
0.000723831 0.00114599 0.0350621 

-0.0481493 -0.0777775 0.117064 
-0.0088525 0.125955 -0.628416 
-0.0126195 -0.0475511 -0.250408 

-0.161816 -0.0090621 -0.156044 
0.0786702 0.132774 -0.0771784 
0.0255655 -0.0187609 -0.00764304 

-0.0321951 -0.0218417 -0.0489549 
0.0195725 -0.00351266 -0.0159639 
-0.00550269 -0.00195703 0.045103 

-0.171564 0.136978 0.562434 
-0.0883526 0.14818 0.897252 
0.00449351 -0.00137335 0.0731572 

0.0146842 -0.0167838 2.3924 
-0.1164 0.0396306 -1.28241 
-0.00147557 -0.00429549 0.172583 

-0.239674 0.0342151 -0.412716 
-0.0649394 0.164712 -0.351515 
-0.00784458 -0.0103894 0.0934408 

-0.0454672 -0.16995 -0.0580852 
0.0681945 -0.141634 0.117436 
0.0187395 -0.0564458 0.307414 

0.00694446 -0.00337153 0.00279882 
-0.00352456 -0.000806637 0.0179865 
-0.00190642 -0.00161061 -0.0181656 

-0.000991624 0.0461104 -0.00677291 
-0.0282768 0.0166234 0.00274387 
-0.00046175 0.00285597 -0.0345682 

-0.123857 0.208468 1.44882 
0.0516681 0.0999301 -1.48133 
0.00185939 0.00239888 0.327798 

-0.223675 -0.23444 -0.931266 
0.376389 0.134282 -0.0298665 
-0.0337921 -0.0184837 -0.180909 

-0.140636 -0.288549 0.294816 
-0.09551 0.13903 0.0151582 
-0.00441073 0.000805464 0.0819948 

0.106661 -0.184428 0.0295618 
0.184241 -0.0223843 -0.438556 
-0.00350333 0.0350605 0.277629 

-0.0444006 0.0235393 -0.164715 
0.0464442 0.00454244 -0.0459939 
-0.000402845 0.000409625 0.0196257 

-0.0330392 0.00479042 0.00758576 
-0.0423503 -0.00884536 -0.0620712 
0.000196007 0.000705726 0.0561069 

0.0446105 -0.12513 -0.219158 
0.0408458 -0.0523557 -0.869559 
-0.00141297 0.0012704 0.0267767 

-0.044914 -0.0651474 0.0581838 
0.0245688 0.0542106 -0.0529796 
-0.00159409 0.00130392 0.00297962 

0.011352 0.0093856 0.00359301 
-0.0422867 0.00801043 0.0351033 
4.93389e-05 0.000505086 -0.0164125 

-0.073855 0.860973 93.0402 
-0.0317649 0.194893 19.248 
-0.00098257 0.00206524 0.234565 

-0.0137074 0.0223435 0.0041864 
-0.0101501 0.000980724 0.0311756 
0.000100155 0.000897038 0.0273632 

0.0533349 -0.190376 -0.170055 
0.297552 0.0394166 0.0999024 
0.0115002 -0.00370695 -0.087612 

-0.176929 0.189009 -5.63552 
-0.0275737 0.08311 2.13932 
-0.00198189 0.00393169 0.107219 

0.0170809 -0.315826 0.545062 
-0.0959331 -0.0626162 -0.513059 
0.0176209 0.0127196 -0.0602117 

-0.0163636 -0.0364767 0.168252 
0.0459904 0.0184755 -0.235604 
0.000566389 0.00201594 -0.00669674 

0.0363829 0.0513701 -0.0333821 
-0.124295 -0.0178588 -0.180505 
-0.0253263 -0.0607892 0.115228 

-0.0256228 -0.0122706 -0.0125534 
0.0167891 -0.00351162 0.0315252 
-0.0001793 -0.00172874 0.0104412 

-0.0122658 0.0225545 0.0990802 
0.0686344 -0.0149364 -0.264413 
-0.000973736 -0.00105893 -0.000292781 

-0.0149454 0.0475122 -0.362693 
-0.076014 -0.0070825 0.1104 
-0.0328463 -0.018436 0.178231 

-0.0184658 -0.000802837 -0.112212 
-0.00569243 -0.00857307 0.208088 
0.00124388 0.00113697 -0.00957147 

-0.00779639 -0.0503237 0.0359689 
0.0416198 0.00771477 -0.0117918 
-0.00175134 -0.0311141 0.100435 

-0.055393 -0.163551 0.773858 
0.164248 -0.122916 -0.378774 
0.00436549 -0.0036874 0.129972 

-0.0215867 -0.0372776 -0.434352 
0.0165365 0.024802 -0.48474 
-0.0017665 0.00422593 0.0554138 

-0.307411 0.190733 -0.835259 
-0.282351 0.0971398 0.157684 
-0.00095649 -0.0132494 0.0547925 

-0.0803955 -0.185182 0.50471 
0.115567 0.12056 -0.711861 
-0.0345805 -0.0134015 0.155104 

0.0100992 -0.0418789 1.18492 
-0.0433483 -0.0360684 0.736282 
0.000569127 -0.0022499 -0.0105003 

-0.172021 -0.186016 0.398396 
0.136228 0.272863 1.66836 
0.0395546 -0.00750125 -0.242657 

-0.420991 -0.0475486 0.460726 
-0.0371372 0.226894 -0.162057 
0.0404338 0.00876966 0.329192 

0.0166826 -0.0292549 -0.00648571 
0.0431699 0.00102852 0.010841 
0.00144944 -4.74982e-05 -0.0103013 

-0.0745108 0.0346736 0.47373 
0.0540911 -0.0275025 -0.532194 
-0.00564771 0.0179435 0.0577978 

-0.0213707 0.000478731 0.0302739 
-0.0205887 0.0193827 -0.0042795 
0.00917621 -0.000804469 0.043751 

-0.0135463 0.0239812 -0.00288966 
-0.0312112 -0.00473963 0.0409966 
-0.00219256 0.0018344 0.024829 

0.0176159 -0.0393451 0.298394 
0.0363285 0.0075885 -0.272471 
0.000292606 -0.000527632 -0.0424145 

-0.00931007 -0.00574596 0.00226909 
0.0322894 -0.00564954 -0.0244821 
0.00879989 -0.00230087 0.0209424 

-0.0729007 0.0359209 3.74821 
0.023109 0.0482517 2.16505 
-0.0327797 0.0786918 0.519436 

-0.00801946 -0.0478679 -0.0255998 
0.0577431 -0.00196499 -0.0789967 
-0.000692723 0.00224331 0.0155482 

-0.521168 0.332352 -8.76022 
-0.0648091 0.446138 -1.54876 
0.0189562 -0.0126568 -0.161426 

0.0123529 0.00674978 0.0260829 
-0.0218367 -0.00566997 0.0168554 
-0.00180613 0.000607804 -0.011861 

-0.419989 -0.990049 -0.316565 
-0.215356 0.156324 -0.170912 
-0.0629832 0.0134195 0.285858 

-0.0335402 0.011498 0.0341741 
-0.00605619 -0.0130227 -0.00320005 
0.00489097 -0.00107292 0.00855169 

-0.227756 0.123291 0.192332 
-0.118387 0.13706 -0.566644 
0.0164523 -0.00930828 0.173207 

-0.0206933 0.0271046 0.178185 
0.0827138 0.0589632 0.737801 
-0.00085503 0.00366371 -0.0459592 

-0.186885 0.0152631 0.411285 
-0.143314 0.042387 0.251738 
0.0141713 0.0200678 0.129164 

-0.103682 -0.154298 1.08027 
0.0236973 -0.0541663 0.0207648 
-0.0532498 -0.0452442 -0.0305778 

-0.0727901 0.0261598 0.104225 
-0.00724882 0.0215078 0.122999 
0.00225795 0.00548312 0.0611634 

-0.0492553 0.325312 0.767871 
-0.0891154 0.0586499 -0.141295 
-0.00169318 0.0198629 0.0679175 

-0.149702 0.425379 0.982839 
-0.0172679 0.0265064 0.139805 
0.00105012 -0.00348986 -0.0117681 

0.0165243 -0.0456848 0.201025 
0.270611 -0.0112716 -0.0244951 
-0.00126308 0.0456838 -0.0288568 

-0.0347072 -0.00390661 -0.0318525 
0.0105966 0.0040308 0.0233778 
-0.00226731 -0.000850601 0.0238469 

0.00324223 -0.0862162 -0.178343 
0.12673 -0.0116544 -0.0807556 
0.00027701 0.000452495 -0.0161573 

-0.140332 0.230707 -0.150003 
-0.055633 0.00853811 -0.116502 
-0.00126058 -0.000752535 0.125341 

-0.145358 -0.00796863 0.466316 
-0.0387885 0.138991 -0.312322 
0.0140614 -0.0136189 0.110631 

-0.13283 0.0975621 0.346738 
-0.148618 0.169649 0.0716662 
-0.00114931 -0.000524381 -0.0211128 

0.00152417 -0.0298033 -0.00194565 
0.0240294 0.000996885 -0.0148771 
-0.000125472 -0.00327548 -0.0193261 

-0.0704224 0.0124099 -0.024555 
0.0504063 0.0124953 -0.017897 
-0.000608531 -0.00591379 -0.013315 

-0.050686 0.0606092 -0.0154895 
-0.0379967 0.0290375 0.0111822 
-0.000201268 0.00209829 0.00889984 

-0.0710853 -0.0112697 -0.313281 
-0.0125854 0.143157 -0.0490752 
-0.00522251 0.00621103 0.0554687 

-0.346514 -0.238851 -0.570173 
0.288814 0.202624 -0.955611 
0.0193212 -0.0087471 0.436778 

-0.159741 0.176889 0.235617 
-0.098701 0.193311 0.314461 
0.0155562 -0.000600139 0.104843 

-0.0176558 -0.0126301 -0.0201832 
0.0465573 0.00119582 -0.017593 
0.00238223 0.00545349 0.0315438 

0.0893245 -0.197998 -0.996175 
-0.218072 -0.0775575 1.9821 
-0.00261227 -0.00198392 0.084088 

-0.0593626 -0.0600571 0.00674801 
0.0147372 0.0344669 -0.00226397 
-0.00599001 0.00310901 0.0737632 

-0.00822141 -0.000549609 -0.0652499 
-0.047807 0.0547876 0.276188 
-0.000258774 -0.00381468 -0.034528 

-0.0168175 -0.0630806 0.16644 
0.0807423 0.0130553 0.122419 
-0.00135943 0.000691781 -0.00547438 

-0.0188598 -0.0280046 0.0607479 
0.0596532 0.0104074 -0.0575759 
0.00888256 -0.0556013 0.147188 

0.00167945 -0.0346103 0.00169074 
0.0435855 0.00954838 -0.0105773 
-0.000747364 0.000727705 -0.0255439 

0.0304949 0.0542179 0.0251426 
-0.0692935 -0.0262892 -0.229391 
-0.00202329 0.0035239 -0.0279321 

-0.00419399 -0.0926849 0.140578 
0.189805 0.00401293 0.51842 
-0.00279952 -0.00038666 -0.0464896 

0.00639924 -0.00405974 0.187813 
0.0885677 0.00945841 0.0940139 
0.00891773 -0.00682833 0.170636 

-0.0156863 0.00267136 0.00251091 
-0.101537 -0.00408309 0.00277717 
-0.000835053 0.00401597 0.00635093 

0.0120598 0.00599245 -0.0103244 
-0.0045306 0.001505 0.0110986 
-0.00213513 -0.00301266 -0.0220375 

0.00302373 -0.00266398 0.00776988 
-0.000218356 0.00446637 0.0067464 
-2.60646e-05 -3.0696e-05 -0.0112071 

-0.00440687 0.0147569 -0.0878488 
0.00369225 -0.0178917 0.0906805 
-0.00276224 0.0255967 0.0139168 

0.086855 0.259483 -0.258706 
-0.261441 -0.0378073 0.108118 
-0.00234904 -0.00259793 -0.0880492 

-0.0119319 -0.0775668 -0.0036264 
0.0535256 0.000195602 0.0181241 
0.00181935 -0.00957033 0.0219948 

-0.0438206 0.0111196 -0.0421822 
-0.000869017 0.00582866 -0.308357 
-0.00342995 0.000285564 -0.147412 

0.0912784 -0.305939 -0.00746821 
0.376618 0.0601402 0.00857313 
0.000437712 -0.00635597 -0.060574 

-0.0235996 0.00172345 0.0200914 
-0.000783555 -0.00253882 0.0178285 
-0.00299304 -0.00519878 0.0386934 

-0.0142452 0.00556148 2.46407 
-0.00669588 0.0239079 -1.03266 
-0.00484145 0.000202012 0.426247 

0.043881 0.181413 0.396107 
-0.237262 -0.00282186 0.104145 
0.0281271 -0.0015881 0.0852441 

0.0136029 -0.00162832 0.0447229 
0.0141799 -0.000269159 0.104855 
0.0189158 -0.0245027 0.0467544 

-0.0262264 0.0473101 0.0486386 
-0.00652533 -0.00153243 -0.0135455 
-0.00319424 0.00584022 0.0419533 

-0.142539 0.00371456 -1.98309 
-0.0231335 0.078348 4.13455 
-0.00309428 -0.00202388 0.319181 

0.0632138 0.0526896 -0.0721441 
-0.0208246 0.0117439 -0.00455327 
-0.00419365 0.00531631 -0.0507054 

-0.105619 0.0818672 -0.356529 
-0.0376372 0.18107 0.207546 
-0.00724406 0.00539879 -0.0978836 

-0.288323 0.264782 0.345052 
-0.0943612 0.276818 -0.61777 
0.0118589 0.00996693 0.112821 

-0.24975 -0.0734366 -2.24469 
-0.0882518 0.226516 1.27388 
0.00462466 0.00853134 0.956898 

-0.012779 -0.0182215 -0.181313 
0.0284206 0.00339763 -0.0388891 
0.0015355 0.000741807 0.00454894 

-0.0323297 -0.0226771 0.691467 
0.0880183 -0.047136 1.08068 
-0.00800733 0.00350123 0.106649 

-0.706328 0.498562 -0.494724 
-1.0644 0.520987 0.688173 
0.0101456 0.0139426 0.216196 

-0.0251751 0.0224993 1.42554 
-0.00300593 -0.00199509 5.15751 
0.00168636 0.00173875 -0.0433714 

-0.0183345 -0.00959652 -0.0172578 
0.00144859 -0.00518069 3.36058e-05 
-0.00021407 -0.000155765 0.0155228 

0.0326637 0.000723384 0.041242 
-0.00103242 0.00203015 0.0057766 
-0.000115607 0.00277657 -0.0231455 

-0.00158697 -0.035446 -0.0711254 
0.0611778 0.0208317 -1.17251 
-0.018439 0.000218245 -0.0983088 

-0.136385 0.104513 -0.303105 
0.234455 0.169985 0.15903 
0.0273629 0.0828234 0.146242 

-0.0403249 -0.00933161 0.316294 
0.0143692 0.0100552 -0.043833 
-0.000723755 -0.00498147 -0.0473023 

-0.673737 -0.0723695 -7.7812 
-0.231919 0.0559563 -3.42082 
0.00499823 -0.0212633 0.97275 

0.0214335 -0.266728 -3.08706 
0.0919168 0.0622232 1.66547 
-0.00206922 -0.00243676 0.274524 

-0.0272674 0.0176898 -0.017729 
0.0035101 0.00952367 -0.020801 
-0.00551699 -0.00199645 0.00988571 

-0.00766878 -0.0311812 -0.0251769 
0.0295815 0.0130483 0.292374 
-0.000129126 -0.00058851 -0.0360934 

-0.041313 -0.324449 0.2084 
-0.0516085 0.136291 0.274184 
-0.0186711 -0.0167052 -0.000416866 

0.010439 0.129087 -1.06493 
-0.117031 0.0199681 -0.0920306 
-0.0122204 -0.0180206 0.0783717 

-0.0185867 -0.067284 0.272294 
0.0981202 0.0289856 -0.101575 
0.00434715 -0.0228721 0.0664473 

-0.78719 0.300228 0.169348 
-0.165175 0.384859 0.360546 
-0.0358198 -0.0570237 0.187246 

-0.209614 -0.215947 -0.182537 
0.146211 0.19209 -0.237639 
-0.0055414 -0.00634342 0.0712642 

0.0306047 0.0440228 -0.0756149 
-0.0419233 -0.020149 -0.0397295 
0.00338268 0.00228893 -0.025329 

-0.0197056 -0.0307447 -0.00881746 
-0.010264 0.03153 -0.0200988 
9.95774e-05 -0.00504926 -0.0095576 

-0.0118207 -0.0723733 0.0248454 
0.0791618 -0.0116955 -0.0619284 
0.0124804 0.000198581 0.058902 

-0.0453678 0.17211 0.0516284 
0.0469265 -0.0219671 -0.112126 
0.0240226 -0.064849 0.423898 

-0.0125195 -0.105764 0.0687493 
-0.107231 -0.00350037 -0.00924012 
-0.00916081 -0.0153751 -0.014291 

-0.154674 -0.20346 4.71725 
0.193254 0.211071 2.7606 
-0.0083098 0.0263183 0.230294 

-0.155231 0.0582327 0.347792 
0.00915802 0.0968146 0.448203 
-0.00343371 0.000586055 0.237901 

-0.203217 0.0990245 0.112183 
-0.150091 0.0853061 0.199404 
-0.00462988 -0.0275536 0.190124 

0.00665548 -0.0640615 -0.0656387 
0.120351 -0.0113867 0.090885 
0.0171042 -0.00675036 -0.0434361 

-0.00396101 2.74041e-05 -0.0516732 
0.0194731 0.00503284 -0.0291937 
-0.00120952 0.00178314 0.00494978 

0.0270059 0.394822 -1.23314 
0.00365132 0.377332 -0.756365 
-0.0250577 0.00348013 0.0609959 

0.0308596 0.0330695 -0.139055 
-0.0807582 -0.0750015 -0.064194 
-0.001839 -0.00320762 -0.0157825 

-0.0034242 -0.0353268 0.00558788 
0.0331299 0.00347781 -0.00842567 
-0.000556752 5.65788e-05 0.00408727 

-0.0447671 -0.0568807 -0.898053 
-0.200809 -0.008988 -0.917338 
-0.0120054 0.025929 -0.106889 

-0.0320962 0.0568918 0.282123 
-0.0731712 0.0464415 0.120938 
-0.00599626 0.00835216 0.116283 

-0.000911748 0.0661289 0.0509996 
-0.00379884 0.00640802 -0.0659119 
0.00166349 0.00673043 -0.00578703 

-0.16808 0.061414 0.129388 
0.177413 0.148006 0.205288 
0.0322339 0.0200304 -0.0702922 

-0.0207841 0.207959 0.496085 
-0.193261 0.107728 0.392669 
-0.0172667 -0.00468347 -0.0672709 

-0.0575914 0.190924 -0.167659 
-0.107293 0.0300873 -0.467646 
0.0114938 0.0218096 0.00632079 

-0.04108 -0.00794067 -0.0433931 
0.0268585 0.0195622 -0.0450056 
-0.0285872 -0.00957956 0.0776175 

-0.061693 -0.0108413 -0.001726 
0.0863106 0.0242479 -0.0330935 
0.00124165 -0.00180461 -0.00514833 

-0.0135603 -0.00551351 -0.169165 
0.0141509 -0.00851427 0.0828514 
0.000147215 0.000540093 0.0437125 

-0.0627993 -0.154152 -0.380848 
0.0475952 -0.00601272 0.0175113 
0.00325961 0.00140929 -0.0263694 

-0.00612575 0.0583132 0.148169 
-0.0683787 0.00408535 -0.169827 
0.00442274 -0.000612322 0.0162713 

-0.0638057 0.030808 0.261075 
-0.102679 0.0668289 -0.7952 
0.0138759 -0.0239289 -0.173882 

0.0351209 0.160117 -0.0991137 
-0.19217 -0.0457612 0.0889698 
-0.00995129 0.0454656 0.0980714 

0.00225166 0.0184584 -0.000626152 
-0.0164152 0.00204646 0.00623263 
0.000319746 -5.05605e-06 -0.00570517 

0.0368535 -0.0189814 -0.00603304 
0.00115403 -0.00707974 -0.0336778 
0.00716529 0.000401866 -0.0321984 

-0.0196784 -0.0145656 -0.128146 
0.0242663 -0.00392044 -0.211558 
-0.000318553 0.000404673 0.10086 

0.00112528 0.0447253 -0.538125 
0.0141404 0.0162998 1.30723 
-0.0043362 -0.00650905 -0.059381 

-0.0269611 0.226357 0.0211686 
-0.06102 0.0441111 -0.0477854 
-0.00305813 -0.00320227 -0.0114991 

-0.0777292 0.290832 8.00448 
0.0297108 0.0409206 -2.30489 
0.00258765 0.0023921 0.405209 

-0.0855164 0.447619 -2.40062 
-0.0550654 0.216326 0.5533 
-0.00293293 0.00403969 0.0581354 

-0.0411586 -0.0191195 -0.403701 
0.0714251 0.0284113 0.216785 
0.00895775 -0.0180366 0.0255532 

-0.0459 -0.0624629 0.987093 
-0.0123207 0.0256128 0.917667 
-0.00176626 0.00867426 0.362195 

-0.027887 -0.08838 0.166096 
0.00709766 0.0308996 0.664062 
-0.00421096 -0.00200392 0.0389072 

0.00170666 -0.0203297 0.00454409 
0.032022 0.00668547 0.020427 
-0.000596179 -0.00347203 -0.00804105 

-0.106506 -0.145183 -1.84257 
0.028439 0.0554598 0.362238 
0.0100945 0.00720058 0.203551 

-0.0260664 -0.0462212 -1.92016 
0.00907186 0.049139 1.59855 
-0.00118765 -0.000423913 0.328476 

-0.132901 0.476753 0.41623 
-0.0186066 -0.0563187 -2.05235 
0.00130943 -0.0109669 0.632278 

0.0191086 0.0123871 0.0270795 
0.0100808 0.00746335 0.00131142 
-0.00266983 0.00028407 -0.0265471 

0.0100974 -0.00815781 -0.0685017 
0.0242908 0.00172161 -0.458678 
-0.00642496 -0.00827519 -0.0726941 

-0.0359999 0.381038 1.04928 
-0.132309 0.0954913 1.26399 
-0.0160245 0.060719 0.372742 

-0.253287 0.0551242 -1.91626 
-0.0628313 0.219194 -0.84445 
0.0105485 -0.00427464 -0.0459603 

-0.0287965 -0.0611596 0.254562 
0.0531153 0.0257086 0.208621 
-0.000357638 -2.46854e-06 0.0225296 

-0.0213531 -0.0255143 0.198862 
0.0919108 -0.0327347 -0.116835 
-0.00387777 -0.000154818 0.0868174 

0.0193155 -0.0349439 0.00708891 
0.0377739 0.00886471 -0.0239047 
0.00129636 0.00234688 -0.0118757 

-0.393875 0.205676 0.401721 
0.0540453 0.0640266 0.052136 
0.000791503 0.0078888 0.112791 

0.127811 -0.317119 -0.0176906 
0.385403 0.0251095 -0.00242633 
-0.00307349 0.01044 -0.0580538 

-0.272593 -0.271174 -0.558413 
0.0374317 0.29005 1.57708 
4.38211e-05 0.000619506 0.231831 

-0.0228267 -0.00235471 -0.00643139 
-0.00535723 0.00275029 0.0120636 
-0.000771555 -0.00261042 0.0271947 

-0.0202684 0.0409012 0.0124946 
-0.0457784 0.00531194 0.00785562 
-0.00116887 -0.00286077 0.0241005 

0.0265843 0.178022 0.158794 
-0.219487 0.0322295 0.10879 
0.00189789 -0.00301601 -0.00704901 

0.014455 0.0570696 0.188276 
0.0921054 -0.0294536 -0.285526 
0.0016002 -0.00125477 -0.0117245 

-0.0549663 -0.0384469 4.20698 
0.0312877 0.0107135 -5.64688 
0.00350128 0.00751374 0.713846 

-0.124029 0.0284597 -0.095235 
-0.0310159 0.0353294 -0.0746449 
0.000736683 0.000532489 0.013565 

-0.0190962 -0.00204688 -0.0092043 
0.0532057 -0.000857698 0.0557544 
0.00434293 -0.00169814 0.0127042 

-0.274463 -0.0873149 -2.21439 
-0.101695 0.18744 -3.61516 
0.0671753 -0.0388652 0.409881 

-0.0251958 0.00398068 -0.00850183 
-0.0197005 -0.0165983 0.0135627 
0.00427795 -0.00426233 0.0512469 

-0.110384 -0.0398613 -0.704558 
0.0418417 0.0557155 -0.151289 
0.00645785 -0.00423523 0.106657 

-0.0289259 -0.00504545 -0.0144779 
0.00689293 -0.00683405 -0.00525472 
-0.00189638 -0.00283865 0.0161559 

-0.0480009 0.087152 1.42818 
0.281821 -0.0640652 -0.541234 
-0.0184601 0.00685564 0.165207 

-0.00129715 0.01731 0.296192 
-0.0252464 0.0504377 -0.242427 
-0.00872761 -0.00290799 -0.0329021 

-0.0132699 -0.00206217 -0.01335 
0.010113 -0.00415551 -0.0148846 
0.00151431 -0.00131453 0.0344642 

-0.179951 0.00692149 -0.628912 
-0.096058 0.108299 1.09131 
-0.00480681 0.010022 0.212277 

-0.00305774 0.0352161 0.0646114 
-0.178769 -0.0153593 0.0439367 
0.00115857 -0.00266261 0.0237897 

-0.0114006 -0.0211669 -1.4678 
0.0339324 0.0165028 0.154252 
-0.000172684 0.00347575 0.25573 

0.00723479 0.118269 -0.333602 
0.0219981 0.0340893 0.167252 
-0.00640756 -0.00321473 0.0983732 

0.00515816 0.064324 -0.0182967 
-0.0765857 0.00649064 0.0190001 
0.00275932 0.000550943 -0.0137719 

0.0193661 0.0548153 0.404677 
-0.201805 -0.0437763 1.6423 
-0.00244854 -0.00343126 0.00310433 

-0.000576153 -0.0215225 -0.0343277 
0.0225964 -0.00210855 0.0192061 
0.0140655 0.0203298 -0.0646679 

0.0252073 0.0274366 0.159536 
-0.0688262 0.0119387 -0.0393077 
0.00603058 0.00362411 0.0173416 

-0.152109 0.0891517 -0.112187 
-0.0179029 0.0855577 0.0231001 
-0.0193059 -0.00528193 0.0164455 

-0.0169593 0.00342953 0.439661 
-0.0608724 -0.0251946 0.432865 
0.00571235 0.000317481 0.0796202 

-9.32005e-06 0.0073762 -0.971248 
-0.0158778 0.0248033 0.374952 
0.00552242 0.0103731 -0.0797508 

0.0415552 -0.0179796 0.0926233 
-0.0356964 0.0153017 -0.393296 
-0.0146917 0.00541898 -0.0293054 

-0.333784 1.13012 1.05156 
-0.94861 1.0084 0.74951 
0.090303 -0.00286027 1.09907 

-0.0567591 -0.046219 0.000951217 
0.0753751 0.00525591 0.165631 
0.00524242 -0.00211615 0.107083 

-0.281853 -0.169977 -0.996235 
-0.29679 -0.233112 -1.18875 
0.0209122 -0.00943134 0.0821838 

-0.0107268 0.0278933 -0.0144471 
-0.0237785 0.00323153 -0.00534025 
0.000454431 -0.00271319 0.00668779 

0.0146184 -0.0260441 0.00959243 
0.0263335 -0.0149784 -0.0334464 
0.00422172 0.00231314 0.0102324 

-0.00500821 0.0152231 -0.0563531 
0.0367118 0.0302407 0.0312302 
0.00381808 0.00428197 -0.036006 

0.0100061 0.17208 -0.0202601 
-0.237357 0.033148 -0.000259193 
0.00144737 -0.00233479 -0.00994319 

0.00407224 -0.0762896 0.184201 
-0.0262613 0.0531421 -0.208177 
-0.0303722 -0.0055633 0.126721 

-0.00375063 -0.0740189 -0.0312944 
0.0606533 0.00672039 -0.0243678 