# vtk DataFile Version 3.0
Output file generated by Yade's KinematicLocalisationAnalyser
ASCII
DATASET UNSTRUCTURED_GRID

POINTS 13483 float
470.726 50.9676 -0.443132
569.195 61.367 -0.527273
109.637 6.15328 0.452734
595.011 16.2653 0.476121
407.186 23.615 0.37123
282.457 46.3832 0.594852
143.186 7.26016 -0.454689
463.368 10.7896 0.242998
406.126 48.166 -0.144774
540.259 34.7448 -0.442135
191.298 8.91296 -0.0935524
233.954 6.76964 -0.275434
499.537 64.022 -0.140996
491.475 40.7997 -0.075414
125.758 19.5067 0.455376
204.403 37.3294 -0.161306
198.602 13.2627 0.275409
261.39 12.5784 0.531171
299.945 51.9388 0.48755
423.757 9.83078 0.373494
359.072 55.3075 0.0968071
454.16 60.932 -0.284064
590.314 53.5778 0.547424
544.686 97.2855 0.425224
387.702 22.4601 0.330978
220.468 52.1953 0.122546
406.133 55.4076 -0.470682
472.309 22.8405 0.264514
39.3322 16.4407 -0.492009
544.807 75.8432 -0.334442
405.668 4.80645 0.498978
16.7424 26.3654 0.308122
578.298 72.8723 -0.261675
405.25 16.9156 0.457862
69.928 48.3064 0.102554
419.7 39.3813 0.379285
430.096 16.7588 -0.496149
303.205 32.2395 0.19676
433.398 28.2254 -0.30088
306.662 50.0287 0.482643
220.136 14.9275 0.330545
370.875 51.6604 -0.0627369
518.227 19.471 0.130529
174.35 6.16186 -0.554234
50.155 8.74944 0.0778894
60.7885 9.37443 0.250572
525.822 32.392 0.535361
21.3519 11.8879 -0.320987
450.491 77.437 0.393804
513.551 52.6731 -0.308138
155.324 36.2865 -0.30507
569.231 48.1523 0.123708
30.4976 33.1221 0.125979
432.139 2.51729 0.570042
130.54 7.2428 0.513729
462.77 47.7473 -0.435671
408.357 49.917 0.122727
160.774 1.39103 0.301602
30.8037 2.33639 -0.356155
307.585 24.3919 0.305475
462.154 85.453 0.131391
395.741 57.298 -0.182279
345.029 2.51247 0.345367
533.898 31.9195 0.5294
21.9253 50.4303 -0.235738
235.638 37.134 -0.322055
536.953 25.7293 0.239316
513.651 86.7949 -0.277014
359.405 10.3565 -0.634245
463.599 3.68361 -0.503097
552.535 35.5376 0.518909
119.999 8.09055 -0.276888
409.623 53.3666 0.120795
392.939 30.9236 -0.105779
267.284 18.9175 -0.37718
19.1677 14.3242 0.262337
587.579 74.8337 0.33383
294.768 59.8913 -0.403445
511.785 48.0187 0.349969
522.201 35.8332 -0.273659
585.196 19.3837 -0.370598
396.65 61.3158 -0.20004
83.8626 42.4988 0.263273
534.827 84.7098 -0.207149
492.122 76.0064 0.0933173
591.241 65.352 0.130004
587.836 0.644592 0.718142
264.537 30.7639 0.413688
491.297 26.3382 0.0729694
23.1988 5.79157 -0.649348
122.521 41.9078 0.180554
419.896 19.9444 0.299235
574.583 35.8323 0.609356
179.518 30.4181 0.248701
37.8974 38.27 0.319472
413.795 1.04406 0.242859
216.307 8.52333 -0.451241
567.799 76.4131 -0.330805
566.881 35.1267 0.278585
316.314 27.1495 -0.244784
148.151 30.6045 0.454601
436.031 52.6998 -0.463388
331.676 19.0152 -0.506725
357.287 40.2307 -0.0978105
328.779 6.91595 0.618281
446.189 11.8063 -0.130914
592.694 30.1615 0.279044
72.4135 43.0477 -0.460036
299.348 6.12758 -0.196553
457.312 11.0064 -0.538077
321.234 54.4846 0.56671
21.9356 29.2193 0.466214
28.4124 5.84046 -0.32404
445.171 53.6874 0.543683
410.089 41.3695 0.147587
20.9321 44.5168 -0.41143
85.5435 34.4958 -0.217219
291.661 18.9505 0.363959
474.494 37.3327 -0.138879
403.413 71.3576 0.151312
537.02 7.17794 -0.536611
532.461 10.1183 -0.206958
344.538 47.1085 -0.110403
487.094 55.2375 0.109121
218.43 18.5859 0.491916
296.047 5.71102 0.590135
94.0597 34.9986 0.350855
106.309 25.8765 0.271585
436.865 48.8535 -0.0759359
280.971 20.5076 0.508499
543.332 77.5745 -0.119022
518.051 87.8441 0.116343
395.871 39.6886 -0.374581
572.995 12.9087 0.312775
368.124 33.8708 0.246323
251.918 27.5191 -0.303815
515.999 72.6163 -0.280713
254.601 34.9292 0.396078
472.941 11.6236 -0.204614
295.556 54.9132 0.186937
414.574 21.81 0.553969
323.448 39.6097 0.0812063
368.832 20.7964 0.128273
282.265 54.9471 -0.415372
175.768 31.7132 -0.122679
572.966 63.7161 -0.207554
589.759 31.7148 -0.366603
5.98327 12.9159 0.449818
368.314 28.1564 -0.459911
33.5606 24.3809 -0.0818175
335.313 38.6361 -0.46472
346.562 32.913 -0.265579
67.5987 12.1356 0.508921
45.3441 35.8471 0.479413
208.373 13.5392 0.490633
465.402 78.6918 -0.146039
469.075 24.7439 -0.486817
69.2298 21.4829 0.483142
546.48 101.509 -0.404765
562.887 3.98453 -0.566696
506.855 79.7907 -0.474772
524.867 14.6122 -0.497354
448.777 30.1753 -0.450469
455.697 60.0315 -0.451072
418.935 27.5981 -0.387041
594.675 11.8685 -0.499936
207.603 25.1304 -0.117393
118.272 38.738 0.187696
227.868 8.08165 -0.531038
86.5009 4.5348 -0.29028
58.061 11.621 0.179979
255.889 42.6177 -0.299564
15.2757 28.3927 -0.349367
454.577 21.4829 0.526279
454.878 71.9006 -0.193618
390.792 28.5783 -0.44605
595.772 83.2298 0.362999
352.63 10.8119 -0.240105
375.989 46.9636 -0.504155
439.582 3.52283 -0.285912
19.6721 27.1301 -0.418869
475.378 4.1851 0.554836
447.46 3.96117 -0.296613
189.694 11.4476 0.519184
367.391 17.163 -0.224899
282.778 6.24467 0.413643
341.29 25.3131 -0.43492
558.301 64.866 0.106549
178.113 27.3221 0.423096
580.446 6.21208 0.42551
556.096 57.4222 0.475046
336.301 12.217 0.309671
526.286 3.31161 0.611835
476.531 50.7233 -0.455452
546.189 19.9225 -0.436762
378.434 60.8152 0.319189
410.95 27.6067 0.396887
393.974 72.5182 0.220439
382.994 14.0657 -0.360815
510.717 80.587 0.2588
509.91 76.6103 0.338675
178.24 41.015 -0.343273
585.938 16.6686 -0.221654
455.709 54.1424 -0.30263
12.0742 17.5773 0.170683
355.79 33.9346 0.366158
172.641 25.3561 0.40458
85.4813 43.5552 0.225751
571.091 28.6791 0.544203
504.373 86.1287 -0.245485
292.433 33.878 0.34218
436.958 10.2706 0.330376
75.1013 48.397 -0.183597
229.199 28.9783 -0.469316
454.594 30.9589 0.430915
401.253 40.0079 0.447471
242.416 0.873546 -0.432783
435.512 62.7754 -0.440171
435.074 43.1095 0.336945
413.643 69.039 0.37869
413.719 6.41806 -0.665679
528.033 54.9132 0.433423
165.813 13.6523 0.213894
426.33 69.545 0.566009
442.212 73.5566 -0.13414
66.118 0.974191 -0.316979
232.45 5.0896 -0.234047
588.576 33.1877 0.32231
585.205 21.2587 -0.626024
594.406 35.8608 -0.522671
275.608 8.30898 -0.408983
551.137 25.3517 -0.463272
355.945 68.1237 0.308649
387.073 0.774482 0.630154
497.783 74.1624 0.439147
20.8161 38.1749 0.310031
296.528 62.2281 -0.0460818
233.36 3.33361 0.457483
581.419 75.893 0.189956
558.306 82.0014 0.263047
263.206 14.0851 0.321814
511.082 70.071 0.0948528
459.272 2.51744 0.240544
445.538 6.91027 0.623828
89.6727 18.8113 -0.497201
275.387 0.936387 0.267067
308.188 4.19999 -0.34832
13.4099 7.84661 0.591194
4.64299 31.6911 -0.25774
149.577 19.8194 0.33107
61.5798 44.5224 -0.228002
61.3103 31.2907 -0.323389
367.998 15.4597 -0.439717
328.254 40.8899 -0.519191
567.228 49.1446 -0.128959
18.8248 3.98654 0.284369
63.7362 7.33405 -0.172667
473.279 77.0608 -0.15786
268.629 0.917399 0.399905
322.826 22.1185 -0.0878907
218.728 4.68552 -0.375614
502.306 51.6866 -0.191294
386.575 10.4493 0.490709
552.718 22.0279 0.426732
485.941 58.7388 0.302665
513.328 43.5399 0.0826451
363.117 36.0464 0.463866
95.205 48.3353 0.326841
432.122 52.7786 0.0840992
541.864 12.4967 0.268039
223.257 35.2195 -0.223313
27.9408 22.6068 0.151815
301.083 18.4993 0.501129
100.09 43.3731 -0.510351
250.525 48.7391 -0.202185
371.303 2.22423 -0.287696
576.217 45.7847 -0.583027
521.083 2.90721 -0.592142
299.774 4.3264 0.487988
277.563 30.2878 0.176954
394.405 69.2369 0.201832
74.5443 7.6518 -0.579713
184.293 47.161 -0.394872
568.171 39.0409 -0.640198
428.807 73.8035 -0.0795811
186.595 42.9645 0.326302
150.072 49.2676 -0.386219
594.799 58.7965 -0.43533
591.534 31.2828 -0.611723
503.05 4.45457 -0.635444
176.533 26.4067 -0.0978686
447.929 34.1284 -0.131355
451.387 31.5514 0.327102
356.806 7.70348 -0.188724
410.331 0.818875 0.442994
564.602 49.9623 0.481702
78.2714 34.6818 -0.216463
511.422 39.8369 0.460551
250.856 17.4791 -0.353283
8.6718 2.51599 0.39446
117.234 40.6825 0.195135
62.2597 25.8864 0.48319
545.433 84.2032 0.315491
580.564 84.5765 -0.171458
171.891 30.3336 -0.182995
588.202 28.4175 0.547467
39.6294 40.1317 0.269553
84.4293 31.2169 0.161671
501.698 36.645 0.35256
359.911 22.6774 -0.474841
428.558 17.9088 0.124994
223.303 32.2022 -0.184071
494.358 25.1114 -0.578393
595.08 29.1708 0.463796
23.4659 38.4841 -0.279868
249.463 7.47671 0.214448
206.534 15.5323 0.30964
1.09632 36.1517 -0.146476
209.468 14.7492 0.410493
196.005 11.1495 0.138033
201.269 27.6509 -0.282455
123.321 31.7717 0.127361
451.709 15.7099 -0.398515
154.3 15.1657 -0.426196
577.957 69.5575 -0.220732
162.109 5.18798 -0.645907
41.6986 40.7428 0.376236
560.35 75.3003 0.561892
260.574 36.7736 0.420574
515.915 60.2452 -0.529303
585.302 62.9278 0.530992
274.718 9.85872 0.229562
546.694 53.4826 0.404929
297.7 2.69167 0.511309
362.419 28.7157 -0.377248
516.093 40.0308 -0.526015
98.0491 11.9191 -0.515237
412.555 5.2979 -0.666052
554.315 19.6658 0.255635
81.0887 7.92282 0.264733
258.391 17.1673 0.202002
369.737 13.1108 0.340076
596.183 7.6304 0.581407
348.808 1.89057 -0.557939
163.735 41.7759 -0.272928
544.183 10.037 -0.424886
120.428 39.8353 0.198122
244.396 36.3689 0.366673
352.872 27.084 0.241825
474.669 14.1584 0.437878
339.5 10.0277 -0.586129
388.936 45.6204 -0.467915
570.675 61.7497 -0.521148
42.9818 12.9128 0.121708
275.84 40.7843 -0.333158
337.78 32.3096 -0.404882
357.332 23.5867 -0.276021
428.724 50.7104 -0.444694
575.409 77.4616 0.260881
515.779 77.9521 -0.338544
212.353 39.8457 0.440626
14.2292 36.8829 0.150314
507.969 76.5064 -0.154179
424.942 56.3444 -0.548001
215.228 44.7738 -0.0954902
531.799 81.1783 -0.106704
140.374 9.44652 -0.247426
326.488 28.8573 0.262007
395.523 71.0007 -0.0995651
360.736 26.0957 0.198687
564.862 63.9928 -0.360686
371.742 4.19391 0.651844
43.95 27.1623 0.324341
406.249 64.9954 -0.341191
376.321 51.9399 -0.451056
584.241 65.97 -0.280916
548.444 50.6044 0.280509
446.857 21.0102 -0.15099
578.022 60.837 -0.471354
268.159 2.26916 -0.577657
339.044 36.5229 -0.47284
24.3912 45.6958 -0.31387
554.333 49.2733 0.157409
481.879 40.0751 -0.507579
394.674 0.765434 0.572823
117.105 5.20405 0.403689
374.196 57.2204 -0.104347
11.1334 0.943564 0.343629
591.797 14.6314 0.105952
331.988 45.3525 -0.451414
[...]
POINT_DATA 13483
TENSORS Strain_matrix float
-0.0906415 -0.0858059 -0.271124 
0.123138 0.114522 -0.0391286 
0.0164142 0.0161367 -0.145253 

-0.0240201 -0.0291523 0.346449 
0.0390791 0.00773971 -1.35219 
-0.000925568 -0.00231392 0.00819252 

-0.041203 -0.017067 0.272709 
0.0267179 0.00956318 -0.113052 
-0.0164379 0.0399908 0.0589803 

-0.0701423 -0.00896024 0.0686757 
-0.0225807 -0.0165809 0.0472016 
0.00177238 -0.00126895 0.0878711 

-0.006819 0.0283614 -0.0713841 
-0.0282969 0.000621177 -0.00203755 
-0.0179976 -0.00934985 0.0211709 

-0.161621 -0.13082 -1.95788 
0.149999 0.189274 -3.57038 
-0.0057211 -0.0114217 -0.667553 

-0.0583729 -0.0533716 0.629521 
0.0507067 0.0445642 0.426771 
-0.00393848 -0.000934051 0.0731906 

0.013292 -0.00211741 0.000358334 
-0.00900917 -0.0058472 0.000380361 
-0.0026798 0.000214544 0.00104362 

-0.132886 -0.0821343 0.215948 
-0.327693 0.14638 -0.170581 
0.0017137 0.00348751 0.0711599 

-0.14006 0.13478 -0.206416 
-0.193253 0.0911415 0.00307553 
-0.0823758 0.047558 -0.154643 

-0.0135007 -0.0183298 0.0280782 
0.00670079 0.00951402 -0.00503672 
-0.00289259 -0.00360987 0.0253355 

-0.0386127 0.0132094 -0.401496 
-0.00897771 0.0610677 -0.57904 
0.00243712 -0.00428428 0.186435 

-0.0429186 0.122834 -0.184905 
-0.0896431 0.0490527 0.124162 
-0.00199135 0.000462951 -0.0534874 

0.00680857 0.0281619 -0.0492029 
-0.0396658 -0.000140756 0.0451209 
0.00140856 0.00140901 0.00655812 

-0.0405298 0.104784 0.100773 
-0.0261509 0.0389836 0.318682 
-0.000667077 5.1705e-05 0.0837342 

0.0344237 -0.0747599 0.0276224 
0.105185 0.00413766 0.00790803 
-4.2794e-05 0.000601017 -0.0587092 

-0.0298627 0.00434333 -0.0181738 
0.0119952 0.0154999 0.0276179 
-0.00119778 0.000236261 0.020446 

-0.174239 -0.0605919 -0.0717044 
0.0860519 0.00129059 0.0593546 
-0.0854035 -0.0948876 0.479937 

-0.0922176 -0.0177341 1.23515 
-0.0556351 0.0890779 -0.0870261 
-0.0100786 -0.0332801 -0.196024 

-0.0158204 -0.00365454 -0.0732897 
-0.03258 0.0196635 -0.0256624 
-0.0128206 -0.00586654 0.024864 

-0.239497 -0.412391 0.059498 
-0.208386 0.250065 -0.758702 
0.00012248 0.0847687 0.473895 

0.0405167 -0.0315111 -0.433055 
0.190296 0.0035352 0.547136 
-0.000259469 0.0276234 0.000220478 

-0.00865511 -0.0288509 0.158601 
0.0238905 -0.00586174 0.312369 
7.67059e-05 0.00481633 0.228968 

-0.107903 0.522089 14.8847 
0.0274285 -0.305313 -14.8259 
-0.000627458 0.00232609 0.189951 

-0.0320091 -0.54924 -0.280485 
0.049972 0.0520702 0.481916 
0.00236792 0.0254761 0.204319 

-0.0338211 -0.0234632 -0.779061 
-0.0552176 0.0191401 0.238641 
-0.0253155 -0.142059 0.481628 

0.0198497 0.0272194 -3.98878 
-0.255084 0.0482222 -0.776836 
-0.00335249 0.00373523 0.286236 

0.00726256 -0.297208 0.246358 
0.250453 0.0295571 -0.391043 
0.00436263 -0.0145066 0.0306881 

-0.0329107 0.0144429 -0.470026 
0.0092492 0.00161163 -0.281611 
-0.00143443 -0.0033555 2.66601e-05 

-0.0310912 0.0739468 0.0752284 
-0.105107 0.0137239 0.729868 
-0.0788009 0.026301 -0.276235 

0.0165824 -0.0252005 0.00654912 
0.0524405 -0.00907252 0.0456464 
1.80512e-05 0.00134909 -0.00721535 

-0.0278218 -0.0748804 -0.00505769 
0.0357755 0.0445251 0.0546037 
0.000204865 -0.00254035 -0.0215844 

-0.0286606 -0.0355053 -0.133764 
0.0686466 0.0105837 -0.0894488 
0.00142315 0.00381788 0.0560117 

-0.169117 -0.126591 -0.260808 
-0.0295724 0.257533 0.636205 
0.00483742 -0.115606 -0.106223 

-0.0309572 0.000601889 -0.0659912 
0.0549302 -0.0441077 0.238769 
-0.000758141 -0.0029158 0.000666395 

-0.0100199 -0.0596146 0.203288 
0.0153049 -0.00160711 0.24174 
-0.00267907 0.00165515 0.0215414 

-0.0196343 0.0599204 0.365252 
-0.0838508 0.024466 -0.50174 
0.00486681 0.0181594 0.0747055 

-0.496394 -0.20882 1.25931 
0.230502 0.313167 0.146224 
-0.0360814 0.0136245 0.000123396 

-0.12808 -0.244207 -0.278241 
0.156203 0.153895 -0.41653 
0.00914581 0.080333 -0.194817 

-0.0565492 0.103875 0.327316 
-0.11038 0.0166916 -0.0980152 
-0.000144188 0.000248627 0.0079481 

0.00625909 0.00554952 0.126274 
-0.00120207 -0.0232899 0.00137496 
-0.00170999 -0.000569294 0.0220486 

0.165349 0.586096 -0.104188 
-0.721681 0.328049 0.833161 
0.0461147 -0.0156737 0.250736 

-0.00741956 0.0465459 -0.0074102 
-0.0698459 0.00721873 -0.0220037 
-0.00311568 -0.000571908 -0.000537133 

-0.052422 0.0195137 -0.780311 
-0.000759543 -0.0107704 -0.346359 
-0.00186688 -0.00423324 -0.0190693 

-0.0249387 0.00550812 -0.0413391 
-0.0305222 -0.00481653 0.0132039 
-0.00583517 0.000841332 0.104121 

-0.0232276 0.0505562 -0.000580891 
0.0535155 0.0536796 -0.0940199 
0.00875722 -0.00732716 -0.0377424 

-0.015239 0.0641964 -0.0190835 
-0.0789272 -0.0194359 -0.0732676 
-0.00452501 0.0040281 0.0248181 

-0.0154775 -0.00764126 0.0830654 
-0.0411103 -0.0111912 0.0721185 
-0.00963888 -0.00609438 0.0518779 

-0.00318665 0.0819599 -0.468395 
0.0663003 -0.116584 -2.43339 
-0.0243096 0.0436459 0.136365 

0.00725554 0.0779611 -0.148668 
-0.0719562 -0.0249307 -0.048668 
-0.00340523 -0.000464277 0.048695 

-0.228307 0.31671 -0.0192094 
-0.13494 0.217173 0.50645 
0.0953278 0.00665184 -0.100484 

-0.0529514 0.156433 0.0906523 
-0.0117516 0.0507004 -0.1294 
0.00676809 0.00404242 0.0422307 

-0.00509495 -0.00245905 0.0405485 
0.00663498 0.00225535 -0.00612832 
0.00106435 0.000802787 -0.00189645 

-0.0920117 0.163931 -0.0856246 
-0.0116598 0.127887 0.626014 
-0.0102786 -0.0204722 0.218941 

-0.0285669 0.00804876 0.0358817 
0.00406633 0.0161753 -0.00846042 
-0.00201516 -0.0011891 0.0151453 

-0.0168906 -0.00289512 0.716616 
0.0201092 0.0417308 1.93089 
0.00385484 -0.0494055 0.0343832 

-0.067748 -0.01736 -0.133185 
-0.225711 0.0779448 0.217603 
0.00339962 0.022538 0.0700862 

-0.0336247 0.107123 -1.04161 
0.0405376 0.0393962 0.186588 
0.0176784 -0.118065 0.254551 

-0.0455334 -0.0907044 -0.025486 
-0.00525189 0.0616186 0.321296 
0.00522337 0.0146021 0.0363718 

-0.248932 -0.0338751 1.00744 
0.0365782 0.23589 -0.56019 
-0.00251097 -0.0255178 0.17604 

-0.137934 0.622877 0.692065 
0.00873907 -0.136263 0.270957 
-0.00382387 -0.0107264 0.668554 

-0.133107 -0.379325 0.0463735 
-0.05579 0.0803716 0.312847 
-0.0247039 0.00119577 0.208931 

-0.0692835 -0.00547491 0.0547339 
0.0470267 0.0900189 0.0173111 
0.000758203 0.00452133 0.0333376 

-0.0529432 0.0856288 -0.31279 
-0.111702 0.00364449 -0.388873 
0.000335848 0.00512007 0.0370222 

-0.0075701 0.0104113 -0.00387803 
-0.0122828 0.0031676 0.00197498 
9.54754e-05 -0.00531194 0.00373635 

0.00567293 -0.0373681 -0.0196449 
0.0203368 -0.000193828 0.131637 
0.00347438 -0.00235665 0.00736676 

-0.00746753 0.041825 0.0454013 
-0.0863646 0.0199231 0.0831672 
0.00146901 -0.000784915 -0.0515223 

-0.00289433 0.0130341 0.00346178 
0.00387913 0.00154599 0.0367073 
0.00606399 -0.00955572 0.0166285 

0.0151733 -0.0293407 1.5892 
-0.00123941 -0.0175773 1.01232 
-0.000461748 -0.0019148 0.245838 

0.0207202 -0.0168771 -0.012118 
0.0138355 -0.0302342 0.00173368 
-0.00107682 -0.00140366 0.0158615 

-0.0985106 -0.0796751 0.0798553 
0.00330797 0.0393313 -0.357063 
0.00445267 0.0115178 -0.0477596 

-0.0220272 0.00488014 0.0447662 
-0.0219954 -0.00509343 0.0176009 
0.00249752 0.00337953 0.0263262 

-0.00947226 -0.012279 -0.189256 
-0.150622 -0.000469269 0.0808642 
0.00195943 0.00163205 0.06157 

0.0703896 0.20719 0.155876 
-0.38427 0.0174902 0.0797247 
0.00367427 0.0019725 -0.0424037 

-0.0343432 0.0701447 0.32849 
-0.0580088 0.0465276 -0.851319 
-0.00475889 0.00127098 0.192972 

-0.00532788 0.0254011 0.102069 
-0.0243437 0.0118092 -0.0237389 
-0.00264261 0.00211587 -0.00751105 

-0.0884478 0.0523847 0.217405 
-0.0121061 0.0527667 -0.037306 
0.00144099 -0.0345474 -0.108783 

-0.0636218 -0.173661 0.617402 
0.0303756 -0.189378 14.158 
-0.0019572 0.0202904 0.0752737 

0.0161434 -0.00610366 0.030083 
-0.00447884 -0.0441333 0.0599532 
0.00276188 -0.0025183 0.0162557 

-0.00567245 0.0323662 5.96529e-05 
-0.090377 0.0060147 -0.00778082 
-0.00106637 0.00646519 -0.00398063 

-0.0257898 0.023945 0.054211 
0.00362083 -0.000713671 0.041635 
-0.00277643 -0.00481269 0.024078 

-0.121625 -0.144008 0.450888 
-0.149748 0.054268 1.8205 
0.00944029 -0.046934 0.495253 

-0.102359 -0.0222299 -0.0795194 
0.0256978 0.0780141 0.117332 
0.0185522 -0.038965 -0.00310222 

0.0236175 0.129303 0.0412538 
-0.0514717 0.040353 0.0837997 
0.00109408 -0.00309726 -0.0431228 

0.0228385 0.0365947 -0.0263062 
-0.0218915 -0.00239762 -0.00249881 
-0.00122907 0.000850693 -0.0406738 

-0.07182 -0.0440524 0.243815 
0.0851074 -0.00197983 -0.293722 
-0.0167194 0.00851427 0.0499152 

-0.0703725 -0.139909 -6.48909 
-0.0050026 0.0352235 0.669252 
0.0035597 -0.0215479 -0.298141 

-0.0393442 0.118827 0.115498 
-0.0422762 0.0680745 0.110161 
-0.0501243 0.0260483 -0.130715 

0.0279211 0.0228025 0.0640044 
0.0219303 0.00168358 -0.012104 
0.011195 0.0114765 -0.0778124 

-0.0331058 -0.0179842 -0.429959 
0.00251357 0.00680334 0.234515 
-0.00832649 -0.0106524 0.0579752 

-0.0153391 -0.0757177 0.0120283 
0.0653258 0.00353259 0.00751137 
0.000206542 9.70255e-05 0.0228645 

0.0226773 0.0246901 -0.00286124 
0.0334241 -0.0563785 0.176125 
-0.0255 -0.00513112 0.0234894 

-0.0620017 0.0506198 0.100368 
-0.0624673 -0.0469794 0.251463 
-0.0119798 0.00133882 0.132238 

0.0109175 0.0284254 -0.118698 
-0.0587415 -0.000760832 0.179058 
-0.00117508 -0.00172319 -0.0243244 

-0.0064114 -0.00196449 -0.0429761 
0.00334842 0.000740834 -0.00986878 
5.28985e-05 0.000997527 0.00621201 

-0.181271 0.0582932 0.328789 
-0.116234 0.333624 -0.478419 
0.00998562 0.0455769 0.0105011 

-0.0250246 -0.0167649 0.0542651 
0.0266807 -0.00375361 -0.133157 
-0.00201735 -0.00317685 0.0444792 

-0.0199906 -0.0702132 0.00233972 
0.0450652 -0.00702156 -0.000148521 
0.00212011 0.00103066 0.0174037 

-0.0963986 -0.195065 0.37326 
-0.0379264 0.105675 -0.353758 
-0.0167333 0.0118339 0.124887 

0.0118506 0.269948 -0.0501096 
-0.200208 0.131697 -0.0477435 
-0.0019481 0.00801965 -0.0115135 

-0.155851 -0.0168699 4.11985 
0.108391 0.17172 -0.332436 
-0.00301151 0.0104548 0.231187 

-0.0118866 -0.0696062 1.8738 
0.0926857 0.0305927 -0.0828895 
-0.00131567 -0.000563531 0.0655891 

-0.055242 0.00288502 0.191051 
-0.0172934 0.0113031 0.877319 
0.00444229 0.0213422 0.00199063 

-0.380549 1.08976 0.410855 
-0.355488 0.479599 1.05939 
0.0540625 0.0771208 0.612958 

-0.0788027 0.0778192 0.998358 
-0.131584 0.093244 -1.34719 
0.0012307 3.99159e-05 0.0847899 

0.0511186 0.0595643 0.289791 
-0.0357729 -0.0263317 -0.0445269 
-0.0173088 0.00398598 -0.0578035 

-0.0311108 -0.00150536 -0.00476794 
0.00244843 -0.000278059 0.00257619 
-0.00144472 -0.00166446 0.038992 

-0.0240255 0.0237023 -0.0309518 
-0.0179728 0.0332559 -0.316807 
-0.00356715 -0.00229382 0.224057 

-0.0554978 -0.0222257 -0.278181 
-0.0561339 -0.0130495 -0.414151 
-0.00475947 -0.00653357 0.0578606 

-0.0041573 0.0252136 0.729461 
-0.0375315 -0.0270409 -0.920826 
0.00626563 -0.00191197 0.0395874 

-0.157127 -0.150506 -1.95168 
-0.0372385 0.388775 9.29436 
0.009101 0.0247282 0.998545 

-0.007355 0.00630969 -0.0852327 
0.0126781 0.00469489 0.193503 
-0.00081188 3.89059e-06 0.085333 

-0.0421605 -0.0633037 -0.0563395 
0.0366161 0.0295964 0.108142 
-0.00143895 -0.00123328 0.0156108 

-0.144587 -0.0497827 -4.07534 
0.000264147 0.176498 -4.19556 
0.00737101 0.0109385 -0.141747 

-0.0322642 -0.153636 -0.290439 
0.218703 0.0994639 -0.316206 
0.000806577 -0.0069563 -0.0189131 

-0.0132883 0.00213736 -0.0348287 
-0.00255248 -0.00166783 0.0504564 
-0.000418928 0.00131886 0.0366574 

-0.0577176 -0.0239439 0.0196456 
0.0446435 0.0263841 -0.0567666 
-0.0019769 -0.000176337 0.0417629 

-0.0713498 -0.0814528 -1.04502 
0.147539 -0.022071 -0.068667 
-0.0758593 0.0294763 0.823842 

0.0102221 -0.00656788 -0.0437259 
0.0784673 0.023305 0.0526672 
-0.00845349 -0.014853 -0.0409406 

0.00346061 0.138705 -0.0349782 
-0.152259 0.00230305 -0.00936031 
0.00140774 0.000449095 0.0233515 

-0.0115965 -0.00721282 -0.0448311 
-0.00569423 0.00906066 0.111271 
0.000542291 -0.00210502 0.0231451 

0.0174001 -0.015313 -0.0967101 
0.0550537 0.0194312 0.00509869 
-0.000248726 0.000254632 -0.0710086 

-0.0114159 -0.415936 0.572677 
0.270179 0.0987233 -0.250686 
-0.00585719 1.23238e-05 0.10133 

-0.00397838 0.0630321 -0.052233 
-0.0532167 0.0126329 0.0268597 
-0.00110115 0.000423878 0.0171934 

-0.102101 0.133749 1.04406 
-0.0408596 0.0597156 0.284856 
0.00297525 0.00141911 0.0990313 

-0.13302 -0.112586 -0.448808 
0.0538766 0.0982548 2.42495 
-0.000312581 0.019764 0.226065 

-0.0232075 -0.00117536 -0.118537 
-0.00341345 0.022216 -0.15146 
6.96283e-05 0.00116 0.00405872 

-0.00273007 -0.00782163 0.159883 
-0.00840681 0.0134257 0.0308408 
6.52996e-05 0.00219214 0.00830554 

-0.0574601 -0.0527391 -0.235179 
0.0204729 0.0874482 -0.376985 
-0.00136202 -0.00331694 -0.029858 

-0.200121 0.195023 -1.09466 
-0.0210861 0.135021 -0.657149 
0.0413417 0.0160353 0.794129 

-0.0252189 0.0749623 -0.0571906 
0.0662873 -0.0145106 0.0593707 
0.00270142 0.000531619 0.0292701 

0.01526 0.020256 0.0182249 
0.0121216 -0.00586317 0.035184 
0.0125509 -0.00452681 0.0403605 

-0.153249 -0.179221 0.117867 
0.0947162 0.0720305 -1.6541 
0.00273711 0.00567222 0.127725 

0.0028442 -0.0241154 -0.0391454 
0.0986225 -0.0301378 -0.0344408 
0.00414072 0.0129903 0.0420803 

-0.455436 -0.0435374 1.15817 
-0.208165 0.375818 -0.306567 
-0.0110117 -0.00883941 0.0188666 

-0.241703 0.352296 -0.827273 
-0.21097 0.212485 0.699906 
-0.0364939 0.0188938 0.0994134 

-0.0310694 -0.012592 0.892147 
-0.0315034 0.104469 -1.43875 
-0.0220501 -0.000936357 0.115891 

-0.156609 0.249804 -0.541216 
-0.178285 0.101012 1.52124 
-0.00812839 0.00430335 0.183755 

0.0209892 -0.031468 -0.0155431 
0.0219817 0.0543788 -0.120468 
-0.00263649 -0.00555621 -0.0853008 

-0.0283747 -0.099314 0.138729 
-0.0628267 0.0764524 -0.190168 
-0.0049409 -0.00200397 -0.0699622 

-0.0168639 0.0753557 -0.510285 
-0.015721 0.0118548 -0.0599177 
-0.000717614 0.00306843 0.0628337 

0.0141386 0.106299 -0.0391324 
-0.197255 0.0257295 0.0802773 
-0.00212203 0.000659768 0.0066232 

-0.0925067 -0.332563 -0.0829143 
0.0501074 0.0108677 -0.347983 
0.00426899 0.00989998 0.0796606 

0.0401465 -0.279916 -0.164681 
0.358723 0.066761 0.0173825 
-0.00324846 -0.0288603 0.00116666 

0.00629491 0.0551052 0.0230899 
-0.0837877 0.00383997 0.0581314 
0.000498859 -0.00166365 -0.0127609 

-0.0301226 -0.049067 0.0544261 
0.0782727 0.0236392 0.0233938 
-0.00250761 0.00642336 0.0485478 

-0.0374803 0.0072484 -0.0507576 
-0.0156482 -0.000136355 0.0322352 
-0.00647311 -0.00677184 0.0323126 

-0.0115078 -0.00594784 -0.104146 
-0.00314608 -0.000650733 0.034556 
0.000475622 -0.00160051 0.00656241 

-0.203259 -0.13202 -1.47238 
-0.0613285 0.170225 1.97626 
0.0161464 0.00524986 -0.0675716 

-0.0803621 -0.00902991 -0.133462 
0.00442044 0.0901266 -0.174512 
-8.29831e-05 -0.00135998 0.00313252 

-0.0101736 0.377418 -1.24209 
0.0108698 -0.0577708 1.28632 
-0.0105285 -0.000194228 0.0620331 

-0.0775338 0.0268991 -0.250395 
0.0983209 0.0428706 -0.600057 
-0.00428346 0.0124532 0.0480159 

0.000997436 0.018833 0.495702 
-0.011697 0.00222191 -1.59249 
-0.0019472 0.0023809 0.246782 

-0.00975847 -0.00913296 -0.0690952 
0.00881572 0.00147122 0.138457 
0.000431362 0.000453356 -0.00801821 

-0.0325672 0.0186586 0.0121904 
0.0103276 -0.0192974 -0.0633418 
-0.0014313 0.00144774 0.100488 

0.0553627 0.0785289 -0.0111581 
-0.0371675 -0.00314922 0.0239914 
0.000397018 -0.00362758 -0.0396917 

-0.196895 -0.211962 -0.297855 
0.133252 0.186752 -0.59693 
0.00584396 0.00687491 0.245781 

-0.0151893 0.0143057 0.083422 
-0.0296022 0.0102025 0.243917 
9.3215e-05 0.000724799 0.0445215 

-0.131601 0.722554 -1.95797 
0.0399497 -0.413527 1.53766 
0.000155486 -0.000341881 8.90808e-05 

0.00796306 -0.0110886 -0.00537942 
-0.00882245 -0.0236528 -0.00153048 
0.00307898 -0.000341197 0.0184844 

-0.0036665 -0.00187337 -0.0937063 
0.0184936 -0.000127236 -0.0245061 
-0.00350314 -0.00402864 -0.0302993 

-0.00883195 0.0942575 0.137029 
-0.140004 -0.0256562 -0.0136184 
-0.0221102 0.0461361 0.34555 

-0.0548458 -0.14924 0.0773639 
0.0755909 0.0535854 -0.615281 
-7.04763e-05 0.00127585 0.142878 

-0.0193458 -0.0154896 0.91047 
0.0931247 0.00484437 -1.08884 
0.0194097 -0.00187949 0.175967 

-0.00983951 0.0238054 0.18452 
0.0539413 0.0221705 0.145184 
0.0010354 -0.000692948 -0.0541832 

-0.066076 0.0769996 -0.192762 
-0.0374525 0.00806139 0.494381 
-0.00304689 -0.0133505 0.0651191 

0.0227008 0.0304256 0.0444217 
-0.024716 -0.0452359 0.122138 
-0.00368528 0.000469686 0.0483579 

-0.00202464 -0.0523907 0.0469868 
0.0542164 0.00518882 0.00175537 
-0.00227372 -0.00776565 -0.0392549 

-0.0755386 0.0318027 0.268563 
0.0556348 0.114918 -0.794592 
-0.0087334 -0.0179505 0.0142995 

-0.00510217 -0.00572594 0.0313317 
0.00907445 -0.00840071 -0.0641984 
-3.63919e-05 0.00051325 0.0157888 

-0.0435986 0.096714 0.0586971 
0.00983824 0.116997 0.0855626 
-0.00993651 -0.00233762 -0.0393481 

-0.0130299 0.0387812 0.498521 
-0.0283122 -0.00508846 0.257529 
-0.00322455 -0.00140995 0.0195463 

-0.023893 -0.0295701 0.0503251 
0.000988993 0.0340766 -0.0865711 
0.000722938 -0.000988991 -0.0182436 

-0.120187 -0.0821696 -0.627496 
-0.162997 0.00233064 -0.26535 
-0.00862749 0.0030019 0.119794 

-0.568558 -0.240329 0.761353 
-0.0744338 0.449334 -0.124933 
0.0369479 0.08847 0.238383 

-0.0835191 -0.0782935 -1.85102 
-0.17217 -0.0554465 1.4947 
0.00926606 0.0445443 -0.0928905 

-0.155342 -0.0673483 -1.43644 
-0.129672 0.0845754 -0.958969 
0.0237957 -0.0217727 -0.181548 

0.0108523 -0.00993011 -0.00197879 
-0.0191512 -0.00697307 -0.00153757 
-0.00166312 -0.00201095 0.000611559 

-0.106368 0.145128 -0.635979 
-0.262952 -0.0391491 0.201903 
0.0228446 -0.046052 -0.334288 

-0.00416423 -0.0250754 -0.10821 
0.0281566 0.0507974 0.142057 
-0.00207869 -0.00446479 -0.0247688 

-0.00685464 -0.0110077 -0.0334874 
0.00587257 0.0099326 0.0561963 
-2.06954e-05 3.83603e-05 -0.00770182 

0.0191647 -0.0139244 -0.0333295 
0.0262304 -0.0185067 0.0863689 
-0.000749444 -0.00386335 0.00543026 

-0.195591 -0.00191353 -0.234265 
-0.120567 0.104431 0.227802 
-0.000825392 -0.0168859 -0.0170309 

-0.0285177 0.0255932 2.30114 
-0.0175189 0.014424 -1.68313 
-0.000977381 -0.00173405 0.201469 

-0.259276 -0.175432 -0.267836 
0.313801 0.252399 0.525821 
0.00847959 -0.00881559 0.0501065 

-0.008513 0.013356 -0.0479333 
0.0118171 -0.0236523 0.0293535 
-0.0192858 0.00449964 0.101679 

-0.0929457 -0.0488866 0.66264 
0.0242493 0.16071 0.32434 
-0.00527595 0.00581149 0.0495235 

-0.0122965 -0.00129577 0.0186735 
-0.0108373 -0.00913216 0.00245181 
-0.000101554 -0.00200027 0.0339325 

0.047372 0.0608083 -0.100156 
-0.0523722 -0.0221712 0.448189 
-0.000526742 0.00144438 0.0328558 

0.0022571 0.0324171 -0.0996625 
-0.00433281 -0.0600675 0.04793 
0.0107202 -0.00774254 0.0681838 

0.00193261 0.0204689 0.0923689 
-0.0159989 -0.0057801 -0.139005 
0.003175 0.000164062 0.0233895 

-0.197461 0.123551 0.0540569 
-0.329559 0.0934128 0.0464038 
-0.0189229 0.0285371 0.273454 

-0.148917 -0.0433607 0.134998 
-0.108659 0.0500291 0.04016 
-0.0895881 0.0767417 -0.160367 

-0.0120366 0.0117565 -1.74294 
-0.0259997 0.0477904 1.94001 
-0.0101207 0.0056885 0.0457711 

0.0167889 0.0689494 0.0297053 
-0.0424961 0.0212086 -0.0294437 
-0.00311856 -0.000396656 -0.0239186 

-0.486747 -0.087332 -4.50473 
-0.416507 0.122386 -0.477507 
-0.00190836 0.0210804 0.689889 

-0.0343342 -0.0445566 -0.0150357 
-0.0982687 -0.00871089 -0.00658755 
-0.00443333 0.00122619 -0.0105575 

0.150972 0.154705 0.0205925 
-0.345666 0.225123 0.163188 
0.105484 -0.0342717 1.40887 

-0.0900238 0.0227844 -0.14458 
-0.00809149 -0.0255056 0.125443 
-0.00980063 -0.0787755 0.295768 

0.000205514 -0.00888747 0.00940895 
0.0135792 0.00303398 0.00293031 
-0.00197439 -0.000765508 0.0134559 

0.00550536 -0.0205659 -0.0173942 
0.0105088 -0.0068061 0.033365 
0.000684915 -0.00119841 0.0139875 

0.000256895 0.0592432 -0.014373 
-0.0612252 -0.00116605 -0.00745686 
0.00109884 -0.000694926 0.0053968 

-0.0120029 -0.0265475 0.0958927 
0.0389842 -0.00429111 -0.0135403 
-0.00755333 0.000936493 0.0548402 
