# vtk DataFile Version 3.0
Output file generated by Yade's KinematicLocalisationAnalyser
ASCII
DATASET UNSTRUCTURED_GRID

POINTS 13483 float
507.333 48.0791 -0.491568
608.141 60.7432 -0.525853
112.238 6.17262 0.423312
635.852 15.9987 0.442413
437.945 21.9259 0.35485
296.31 42.5443 0.580434
146.818 7.15729 -0.458768
496.558 11.0093 0.246746
438.508 45.3978 0.15078
578.626 34.5054 -0.542658
198.566 8.79178 -0.0923629
242.652 6.52553 -0.303616
537.147 60.8625 -0.150166
529.282 38.2513 -0.0796227
128.792 19.1311 0.445692
209.623 36.403 -0.344999
205.873 13.2404 0.260912
273.445 10.1346 0.438057
317.336 43.798 0.462076
455.09 8.77522 0.403828
382.313 45.1923 0.110636
489.261 58.3585 -0.286295
630.236 53.2736 0.483157
580.184 94.9451 0.424217
415.313 18.8625 0.28478
228.769 47.2214 0.140294
438.928 51.695 -0.511016
507.247 21.6541 0.310873
40.4843 16.3992 -0.479687
583.188 73.7594 -0.343036
435.016 4.83339 0.496953
17.2821 26.0395 0.303257
617.831 71.5854 -0.265021
435.983 15.5975 0.466943
71.2358 47.639 -0.102891
452.469 37.5755 0.368509
461.433 15.8815 -0.490893
321.746 26.2439 0.184633
464.415 26.8887 -0.381488
324.359 42.7379 0.463189
228.228 14.8416 0.325081
399.132 43.5487 0.0709923
556.544 17.3086 0.127582
181.09 6.2473 -0.464737
51.1581 8.37923 0.0786172
62.5734 9.12301 0.256103
563.505 30.8066 0.530715
21.7129 11.9736 -0.33964
487.36 71.1532 0.362294
551.117 50.1018 -0.316006
161.391 33.8112 -0.315257
608.289 47.6013 0.124157
31.1844 32.6245 0.125057
464.248 2.88591 0.421805
133.842 7.18206 0.498335
498.246 44.377 -0.418877
441.366 47.1848 0.125104
164.922 0.995889 0.275784
31.2539 2.35959 -0.29833
326.134 20.2443 0.271282
498.533 80.5313 -0.132364
427.203 51.0699 -0.190306
368.992 2.14564 0.354131
571.698 30.7845 0.415351
22.3203 49.7724 -0.235727
244.344 33.3315 -0.322179
575.17 25.4502 0.239279
549.837 83.6893 -0.319929
383.547 10.3959 -0.650619
496.848 3.70364 -0.51072
591.286 35.5238 0.487988
122.993 7.95888 -0.267368
442.648 50.8683 -0.141827
423.303 27.7641 0.111047
279.763 17.3337 -0.342126
19.4099 14.3589 0.245643
628.034 72.8481 0.358762
311.968 51.409 -0.416263
549.626 45.4715 0.337093
559.797 33.9642 -0.262142
625.513 19.0918 -0.351972
428.728 54.8286 -0.18542
85.8262 41.9987 0.266335
571.001 82.0814 -0.220541
528.651 72.9159 -0.0994081
631.882 63.9481 -0.120714
628.059 0.710186 0.672373
276.969 28.5198 0.450334
529.236 23.7724 -0.104972
23.525 5.87852 -0.641292
125.06 41.2808 0.17047
450.958 18.5913 0.287815
614.355 35.1751 0.598465
185.599 29.8964 0.241472
38.6031 37.7785 0.313802
444.538 0.975423 0.391592
224.085 8.51229 -0.446958
607.047 75.7934 -0.311913
605.648 34.5864 0.313175
337.061 22.4488 -0.283191
152.955 28.9697 0.482623
469.291 49.9985 -0.489433
354.251 17.2855 -0.479053
384.603 36.1949 -0.104208
351.326 5.54184 0.587036
478.704 10.7548 0.188387
633.526 29.9976 0.236229
73.5988 42.7163 -0.411443
316.002 5.95801 -0.191447
490.612 11.0017 -0.549877
338.012 49.7952 0.585721
22.5549 28.8721 0.463213
29.0762 5.67501 -0.331156
480.478 50.4479 0.49003
443.182 39.6519 0.160656
21.371 43.8425 -0.407443
87.1605 34.1143 -0.21633
307.654 18.554 0.3256
510.874 34.9261 -0.163821
434.91 66.7389 0.116656
576.165 7.1853 -0.550462
571.708 10.0869 -0.229363
363.316 42.9058 0.0946054
523.935 51.9697 0.116149
226.113 18.49 0.475044
312.293 4.8419 0.542322
96.0321 34.5704 0.336679
108.574 25.5842 0.261681
470.026 46.112 -0.0736498
294.036 20.1799 0.481804
581.62 75.6177 -0.103909
554.146 84.7023 0.116009
426.17 37.4791 -0.355147
612.245 13.0534 0.328277
395.636 30.3483 0.215237
264.072 24.5524 -0.317375
552.208 69.7942 -0.292812
266.115 31.471 0.377152
506.023 11.8633 -0.220628
312.729 46.7541 0.237065
445.419 20.5475 0.507779
342.752 35.7439 0.095718
395.585 19.0411 -0.0971607
299.075 49.7747 -0.372977
181.827 30.809 -0.125439
612.103 62.7304 -0.197697
630.539 31.545 -0.331729
6.04426 12.8744 0.44679
396.776 26.4103 -0.47323
34.1939 24.1226 -0.0886216
353.141 35.8325 -0.48226
369.097 30.5942 -0.257161
69.3079 12.0001 0.5054
46.1035 35.2666 0.469938
216.039 13.7155 0.461122
502.567 74.1575 -0.377097
504.39 23.657 -0.473058
70.8418 21.3594 0.47326
581.823 99.3327 -0.405166
602.071 4.0827 -0.555773
543.005 76.7635 -0.469195
563.525 12.9278 -0.426149
480.878 30.1233 -0.453543
490.798 57.4075 -0.44529
449.655 26.1603 -0.413185
635.505 11.4419 -0.421542
214.834 25.5549 -0.113702
120.535 38.3677 0.149649
235.983 8.00762 -0.591409
88.6814 4.56273 -0.278085
59.4354 11.4545 0.270975
265.005 38.6568 -0.29626
15.8984 28.069 -0.362554
487.69 21.1075 0.431474
492.747 67.1717 -0.234879
422.107 24.3885 -0.375183
635.852 80.8789 0.342255
376.856 10.7917 -0.252459
405.213 43.7365 -0.385143
472.053 3.32293 -0.287884
20.2561 26.7973 -0.415353
508.412 4.32099 0.56352
480.758 4.32062 -0.274469
196.915 11.3064 0.510381
392.24 16.7874 0.195534
298.526 6.41615 0.383418
363.96 22.8643 -0.384786
597.043 64.4329 0.100692
184.457 26.6053 0.435662
620.068 6.2232 0.410338
594.864 56.6493 0.472508
359.537 11.4841 0.175879
565.312 3.71164 0.563286
513.328 47.1294 -0.428277
584.921 19.8113 -0.448349
403.192 53.6524 0.272132
441.656 26.268 0.336064
425.481 67.1432 -0.220764
409.603 10.5481 -0.285911
546.884 77.5092 0.252378
545.973 73.5848 0.339955
183.774 40.2723 -0.340092
626.391 16.3035 -0.200328
491.177 51.2786 -0.288855
12.2195 17.559 0.165098
379.883 31.7888 0.385608
179.22 24.1782 0.405294
87.4396 43.0684 0.218082
611.621 28.7931 0.530038
540.554 83.1487 -0.245608
306.351 31.8095 0.358498
469.286 9.88175 0.334916
76.3662 48.0565 -0.177013
237.469 26.6314 -0.471383
487.644 30.6493 0.430532
433.335 36.4295 0.478524
251.978 0.880878 -0.345967
469.467 60.237 -0.447522
467.796 40.8357 0.455575
445.446 66.4173 0.393754
442.58 5.40605 -0.63137
565.924 53.6988 0.391554
171.396 12.8455 0.182867
457.994 65.668 0.468607
478.482 68.9962 -0.120442
67.8724 0.966474 -0.277958
240.995 4.90587 -0.217951
629.306 32.9946 0.282398
625.551 20.9966 -0.582279
635.316 35.8496 -0.494365
291.233 8.49682 -0.254145
589.522 25.3508 -0.467315
381.193 56.4635 0.336685
413.391 0.852915 0.661741
534.02 71.2823 0.459507
21.2086 37.4275 0.2986
313.486 54.1438 -0.473397
241.987 3.1558 0.435299
621.258 74.2199 0.184622
596.792 81.099 0.25773
275.953 11.6366 0.284654
547.293 66.937 0.0882522
492.766 2.53499 0.240928
478.386 6.38085 0.468082
91.5051 18.6084 -0.502342
291.148 1.02097 -0.234829
326.92 2.64087 -0.339662
13.5942 7.8053 0.565623
4.82808 31.3727 -0.25806
153.774 19.5081 0.354078
62.5847 43.8742 -0.224573
62.6979 30.6931 -0.325638
393.105 15.3049 -0.488957
346.31 38.7666 -0.481925
606.104 48.5639 -0.137966
19.1147 3.99662 0.276781
65.5687 7.09638 -0.161966
510.282 72.8105 -0.168738
282.709 0.955768 0.411416
343.961 18.8961 -0.109239
226.531 4.64515 -0.371506
539.59 48.7504 -0.192388
414.751 8.45245 0.535581
591.379 22.1405 0.431609
522.724 55.3534 0.310624
551.249 40.8948 -0.0809539
390.118 31.8043 0.496969
97.2228 47.89 0.323577
465.414 50.4742 0.0826571
580.907 12.509 0.276719
230.24 33.0263 -0.245459
28.5223 22.1501 0.154685
319.426 15.7316 0.466201
102.214 42.9738 -0.502548
259.434 44.636 -0.216916
395.139 2.28385 -0.305909
615.951 45.4749 -0.474939
558.818 2.12421 -0.530527
316.402 4.18633 0.517366
290.523 28.5663 0.141682
427.023 64.1415 0.206279
76.6569 7.98117 -0.460767
189.718 46.6032 -0.387406
607.795 38.4314 -0.568292
461.002 69.9718 -0.0661872
192.166 42.5935 0.301832
153.885 44.8983 -0.395123
635.371 57.9437 -0.398321
632.358 31.1634 -0.614718
535.615 4.65803 -0.588773
182.987 25.5381 -0.0934818
480.893 33.6862 0.101996
483.94 30.5382 0.313859
380.992 7.72738 -0.188975
439.954 0.812943 0.376208
603.455 49.3868 0.491607
79.9341 34.5241 -0.221732
548.068 37.118 0.539923
263.204 16.2105 -0.353097
8.85996 2.49784 0.384946
119.582 40.3679 0.19704
63.7504 25.3752 0.47917
583.048 82.9397 0.302663
620.691 83.0971 -0.167105
178.082 29.1355 -0.185603
628.944 28.362 0.533371
40.3354 39.6213 0.263266
86.2082 31.0138 0.151897
539.35 33.983 0.356657
385.546 23.0943 -0.464106
459.823 16.8533 0.157157
230.392 31.0587 0.18215
532.587 22.7997 -0.564905
636.036 28.9639 0.443451
24.0482 37.8738 -0.274868
259.963 7.79097 0.205792
214.043 15.6694 0.273594
1.09663 35.7153 -0.145524
217.174 14.8915 0.382032
203.312 11.1186 0.136023
206.967 26.78 -0.289619
125.453 30.8951 0.120055
483.696 15.2378 -0.512106
159.298 14.7509 -0.328221
617.286 68.3466 -0.219508
166.651 4.07831 -0.482902
42.456 40.2172 0.374046
599.526 75.1676 0.540007
271.267 33.7416 0.393711
552.971 58.3627 -0.456123
623.508 61.8998 0.553935
289.41 9.26998 0.194396
585.764 53.5707 0.378585
314.352 2.58375 -0.323202
388.632 27.0956 -0.41
552.906 37.6201 -0.526181
100.389 11.8128 -0.500202
441.996 3.84425 -0.448678
593.21 19.8277 0.208937
83.3073 7.93553 0.287239
271.086 15.2487 0.197817
393.45 12.5401 0.38912
637.288 7.15377 0.508982
373.324 1.77977 -0.593307
169.466 39.8508 -0.345297
583.273 10.0614 -0.428
122.778 39.347 0.194432
254.53 33.3207 0.396566
376.95 25.2032 0.206159
507.834 14.377 0.44247
363.416 10.0397 -0.579028
419.905 40.8478 -0.425746
609.67 61.0467 -0.498124
44.1016 12.7038 0.123401
286.789 39.6998 -0.300689
359.51 30.8287 -0.416716
382.666 23.1679 -0.276336
461.913 48.5757 -0.445555
615.037 76.2732 0.245497
552.112 74.8678 -0.348166
217.496 37.7128 0.450027
14.0351 36.2358 0.156602
544.043 73.4419 -0.153583
458.652 54.2056 -0.592273
221.237 42.4718 -0.109351
569.292 79.0764 -0.121481
143.901 9.37804 -0.242837
346.708 25.8213 0.262277
427.423 66.1849 0.102567
386.415 24.6507 0.217217
603.802 63.5943 -0.315209
395.463 4.24528 0.652219
45.1205 27.0031 0.309498
438.533 60.7548 0.32111
406.882 48.4365 -0.525586
623.486 65.338 -0.240067
586.741 50.0273 0.25035
478.975 19.979 -0.177953
616.938 59.4152 -0.507613
282.373 2.26689 -0.520318
359.256 33.7647 -0.485065
24.8484 45.073 -0.308398
592.987 48.4196 0.156329
518.332 37.365 -0.533128
424.526 0.798918 0.672161
120.125 5.00742 0.387851
399.891 49.288 0.120399
11.342 0.943007 0.33762
632.478 14.3063 -0.0844941
350.475 42.7691 -0.440563
[...]
POINT_DATA 13483
TENSORS Strain_matrix float
-0.283053 0.0827253 -3.63463 
-0.00975494 0.269301 4.23346 
-0.0063192 0.0334149 0.0174013 

-0.00682112 -0.0134322 -0.625154 
-0.00453535 0.0206869 -0.184991 
0.00922229 0.0154766 0.0810468 

-0.00419097 -0.0109294 0.00280251 
0.00998174 0.00551374 0.0126057 
-0.000610936 0.000270619 0.000221241 

0.0376008 0.00346525 -0.0306185 
0.00503675 0.0207181 -0.017854 
-0.000224788 -0.00482377 -0.0631776 

-0.0816807 0.0566323 -0.0143099 
-0.0789849 -0.126766 0.284116 
-0.0123932 0.0185561 0.072623 

-0.0709636 -0.176791 -5.68909 
0.205205 0.126985 2.78896 
0.00386133 -0.00336625 0.387991 

0.0100645 -0.0358675 0.18235 
0.0419951 0.00550467 -0.0245677 
0.000800145 -0.000827652 0.046253 

-0.0230357 0.0230149 0.00165804 
-0.0371413 -0.00479142 -0.0085914 
-0.00117329 -0.0044224 0.0223413 

-0.779449 -0.14643 -0.970186 
-0.163828 0.361532 -0.837838 
0.00308131 0.00291419 0.0274175 

-0.220479 0.0100481 -0.75438 
-0.528917 0.16988 -3.11689 
0.0160852 0.00645853 0.033694 

-0.000811258 -0.00183904 0.00262403 
-0.00457482 -0.00222431 -0.000267721 
-0.000293041 0.00020179 0.0108813 

-0.00854344 -0.0430476 -0.541408 
0.00490708 0.0051329 0.283872 
0.0163505 0.0387005 0.0873706 

-0.054266 -0.374532 0.305783 
-0.0221669 0.0233339 -0.136061 
0.0035633 0.00244971 -0.0111614 

-0.0874492 0.0124809 -0.0399907 
0.0462402 0.0441996 -0.118117 
-0.0526032 0.0309793 0.266874 

0.0147714 -0.0436551 -0.00403754 
0.00216564 -0.0101689 0.811752 
-0.0025736 -0.00228399 0.0332862 

-0.0120501 0.0141331 0.00922319 
-0.00711818 -0.00218569 0.00698933 
0.00454868 0.0160524 0.0441795 

-0.00951593 -0.00505043 -0.0103301 
0.0177433 0.00531796 0.0171592 
-0.000912529 -0.000691024 0.00200408 

0.0109231 -0.0531147 0.0242823 
0.0934017 -0.0240998 -0.215063 
0.0095808 -0.00367951 0.0856779 

-0.377997 -0.120128 2.39803 
-0.0817538 0.312149 -0.683432 
-0.0294549 0.0277361 0.379399 

-0.0185425 -0.00132245 0.0130909 
-0.00682529 -0.00111172 0.00898548 
-0.00293981 -0.00206005 0.0224684 

-0.367116 0.232661 -2.50423 
-0.235173 0.284822 -1.73763 
0.0573956 0.00208534 0.168114 

-0.0787186 -0.283643 0.0237505 
0.0651906 0.0356639 -0.183798 
0.00121992 -0.00159954 0.062126 

0.0235393 0.0142163 -0.2195 
0.0264151 -0.00744706 -0.0510141 
0.000744481 -0.000242458 -0.0368373 

-0.0182968 -0.585735 -49.5974 
0.0256266 -0.330755 -25.1226 
0.000170006 0.000436083 0.1026 

-0.133599 -0.0728581 0.544124 
-0.0653656 0.173052 -0.40116 
0.0198343 -0.0398602 0.0527559 

-0.0287624 -0.0201234 -0.0228395 
0.0146671 0.0173987 -0.0757644 
-0.0421448 -0.00345105 0.250106 

-0.387455 0.308334 -11.4319 
-0.253148 0.310524 -7.03659 
0.00658065 -0.0123948 0.158381 

0.0256249 -0.44702 -0.0472948 
0.166786 0.00567139 0.129945 
-0.0242093 0.0136989 0.145802 

-0.072705 0.0176276 -0.809091 
0.0562452 0.0251046 -0.44358 
0.00242425 -0.00476624 0.267727 

-0.147101 -0.286161 0.644643 
0.239044 0.00660162 1.17205 
-0.00461805 0.157922 0.386455 

-0.0718771 -0.0355026 0.0607736 
0.112901 0.00667299 -0.0554883 
0.0378854 -0.00781819 0.237251 

-0.128357 -0.0754341 -0.182703 
0.0957916 0.11077 0.327332 
0.00378779 0.00159322 0.0330215 

0.0134297 -0.00879041 -0.210127 
-0.00376094 -0.0188253 0.000221982 
-0.0103986 -0.0112324 0.152682 

-0.178461 -0.0804181 -0.619501 
0.0172708 0.191445 0.890162 
0.0114243 0.00918267 0.0392063 

0.021948 -0.00735629 0.0177166 
0.0162799 -0.017382 0.0479565 
0.000376319 0.000849918 -0.0121475 

0.0129382 0.120158 -0.340191 
-0.256252 -0.0519185 0.182427 
-0.00469651 0.00492474 0.0539403 

-0.00502992 -0.0107641 0.0617796 
0.0233743 -0.0134863 0.178807 
-5.75269e-05 -0.000214342 0.0303188 

-0.0974816 0.00216527 -0.163753 
0.0606197 0.162225 -0.01293 
-0.0188184 -0.00310739 -0.0381811 

-0.0441462 -0.349348 -0.729735 
0.0435791 0.0416572 0.62137 
0.0033214 0.00142617 0.120368 

-0.145922 0.135648 4.00529 
0.0489712 0.204727 -0.507553 
-0.0165273 -0.0548676 0.215541 

0.00687791 -0.00221692 0.0495397 
0.0369816 0.0117336 0.0549075 
-0.00247303 -0.00184756 -0.0254279 

0.0637563 0.274858 -0.00545235 
-0.337656 0.0251513 0.0128861 
-0.0430742 -0.0402051 0.0298766 

0.0146875 -0.0109493 -0.0480211 
-0.0485313 -0.0268268 -0.00763662 
-0.000969964 -0.00168957 0.00152812 

-0.0226833 0.00491533 -0.0447677 
-0.00807184 -0.00776875 -0.142203 
-0.000306892 -0.00405283 -0.00552013 

-0.0197881 -0.015503 -0.00674584 
0.00880327 0.0228395 0.0499374 
0.02462 -0.00511237 0.0709532 

-0.0286043 0.0727328 -0.060877 
-0.0442473 0.0107442 0.0305684 
0.00338263 -0.000391652 0.0466466 

-0.0106545 -0.0680105 0.12959 
0.0742482 0.00849683 -0.0274622 
0.00267951 -0.001748 -0.0643354 

-0.00133511 -0.159425 -0.237182 
0.133539 -0.00981412 -0.1653 
0.0367135 -0.0198488 0.0979462 

-0.28245 -0.556777 -1.44574 
0.0148227 0.323358 0.181967 
-0.0216025 0.00349109 0.133642 

-0.0682716 -0.408318 0.93881 
-0.401554 -0.0698086 0.0266856 
-0.00655686 0.00677164 -0.0582876 

-0.00650675 0.0280666 -0.00254294 
-0.0276923 0.000410069 -0.0044041 
-9.7029e-05 0.000966027 0.0162731 

-0.0961891 -0.0307275 -0.137602 
0.103077 0.129509 -0.0595826 
0.000279246 0.0112341 0.0446276 

0.0424684 -0.595656 0.288249 
-0.148036 -0.120402 -0.0643315 
0.00697533 -0.0118387 0.0827532 

-0.0287355 0.0044967 -0.0169224 
-0.00465933 -0.00610611 -0.00379232 
0.00911925 0.00700381 0.059664 

-0.192787 -0.345585 -0.436703 
-0.087093 0.249802 0.0798177 
-0.113877 0.166954 0.91404 

-0.293304 0.10767 -0.572567 
0.137813 0.208296 0.349113 
0.0091801 -0.00681769 -0.00305856 

-0.193619 -0.0123935 0.00605806 
-0.110935 0.151866 0.0765568 
-0.0287503 0.0207276 -0.0100935 

-0.0249859 0.0293553 -0.0440255 
0.00931829 0.0391451 0.175223 
-0.00314015 0.00606653 0.0434238 

-0.120101 -0.0703916 0.714557 
0.107547 0.0670955 -0.525791 
0.0457039 0.0855738 0.535562 

-0.226387 -0.0279109 0.0694508 
-0.0276079 0.120968 0.899961 
0.0190653 0.0500984 -0.165269 

-0.522727 0.858508 -0.468149 
-0.0486066 0.618447 1.04705 
-0.000124482 0.0168261 0.472971 

0.00949812 -0.0775322 2.67472 
0.299015 0.152326 1.03396 
-0.0101902 0.00752943 0.114824 

-0.107463 0.0622893 -0.0665729 
0.0379564 0.125114 -0.0795306 
0.0180659 0.0215101 0.22039 

-0.00940628 0.0956973 -0.284398 
0.140665 0.00290043 -1.00761 
-0.00711224 0.00333536 -0.0332194 

0.0408648 0.0570448 0.0892075 
-0.0907229 -0.0299113 0.186305 
-0.00129863 -0.0484564 -0.0847364 

-0.0550206 0.0450053 0.306013 
-0.00896001 0.0314063 0.214704 
-0.000713636 0.00435782 -0.0209482 

-0.0671504 0.0888783 -0.130719 
-0.423959 0.148207 0.288326 
0.0142683 0.00881493 -0.051068 

0.0073813 -0.000908963 -0.0101197 
0.00687742 -0.00145355 -0.0126997 
-0.0031027 0.00387131 -0.0367286 

-0.127691 0.122051 -4.65958 
-0.137357 0.0988032 -5.1117 
0.00667481 0.00755336 0.568481 

-0.0138397 0.0481323 -0.0424334 
-0.0179951 0.0305834 -0.0314619 
-0.00303086 -0.000882062 -0.0159601 

-0.353546 -0.0756641 -0.697907 
-0.22888 0.145831 -0.774847 
-0.00368761 -0.0120906 0.160292 

-0.000522124 0.00822268 -0.0290668 
-0.00139802 0.0112707 -0.0271871 
0.00138162 -0.000352914 -0.00120546 

-0.687709 0.613342 0.301549 
-0.249159 0.591568 0.789947 
-0.0370682 -0.039976 0.336626 

-0.118348 0.00144944 0.0731598 
0.0723778 0.0401948 -0.258336 
-0.00650536 0.00364797 0.0678955 

0.0179137 0.0116264 0.178514 
-0.0401429 -0.0547898 0.188403 
0.00156039 -0.00174136 -0.0254868 

-0.225468 0.0981987 0.191608 
-0.0431244 0.145234 0.489747 
-0.0165995 -0.00894145 0.104176 

0.00669932 0.00771866 -0.0135926 
-0.00387218 -0.0148619 0.0422879 
1.06803e-05 -0.00115735 0.00945449 

-0.051532 -0.170809 -0.0824437 
0.217575 0.0838237 0.572398 
-0.0419029 0.00970959 0.00353246 

-0.129567 0.31597 -0.373977 
-0.399185 0.301547 -0.852206 
-0.00736734 -0.00868016 0.0310977 

-0.00479584 -0.0735096 0.0327108 
0.0742 -0.00109374 0.0359199 
-0.00077299 -0.00325344 0.0277905 

-0.112254 -0.143322 -0.683824 
0.0722943 0.154606 0.435474 
-0.04474 0.00604546 -0.00886072 

-0.0240455 -0.166089 0.896325 
0.174516 0.0166124 1.22042 
0.00816063 -0.00806705 -0.0630223 

-0.00160238 0.0271486 -0.0191611 
-0.0325306 0.00437435 0.0134958 
0.00105892 0.000831668 -0.0107051 

-0.0114832 0.0522845 0.219596 
0.00771046 -0.0315827 -0.087958 
-0.0145655 -0.00169253 0.100281 

0.00748658 0.0392946 0.0139403 
-0.05336 -0.00920354 0.00685863 
0.000382446 -0.00117691 0.0091758 

0.0179413 -0.00924228 0.0089008 
0.00746481 0.00420168 0.0211646 
-0.0240109 -0.0134918 -0.0796732 

-0.0481727 -0.336052 -2.18041 
0.0237321 0.0155702 4.04842 
0.00127064 -0.00990011 0.420601 

0.123653 0.104767 -0.022577 
-0.0549615 -0.122132 -0.206375 
0.00174163 -0.00204931 0.0706582 

0.00873024 -0.203291 0.0166229 
0.154775 0.0369935 0.142586 
-0.00868983 -0.0116407 -0.0192658 

-0.054318 -0.0439802 -4.62976 
0.0392419 -0.0279048 -3.36364 
0.00645238 -0.00221594 -0.698403 

-0.030813 0.0192818 -0.0148072 
0.0205469 0.0298555 -0.0418877 
0.0269897 -0.0707104 0.210307 

-0.0253211 -0.00621569 0.0096588 
-0.0601755 -0.0166489 -0.0556386 
0.0041102 0.0057721 0.0631208 

-0.058082 -0.0455835 0.0191669 
0.0593351 0.0398907 -5.06379 
0.00249728 -0.000168168 0.173552 

-0.00456485 0.020531 -0.0762101 
0.0798406 0.0192589 -0.147761 
0.00187053 0.00154187 0.00919356 

0.00805831 0.0484006 -0.113816 
-0.0750591 -0.0153045 -0.0720546 
0.000112814 -0.000164422 0.0308933 

-0.0500876 0.0222422 0.260427 
0.0208022 -0.0671274 -0.132159 
-0.00602403 -0.0178323 -0.000627693 

-0.0283935 -0.0563517 0.51864 
0.00954035 0.0220487 -0.401197 
-0.0104973 -0.00357843 0.041927 

-0.0116164 0.00164308 0.0268169 
-0.00544819 -0.0086044 -0.00725001 
0.000519673 -0.000706194 0.0148638 

-0.148772 -0.047209 0.523558 
0.28003 0.221265 -0.413398 
0.0240904 0.00788541 -0.0521165 

0.0158491 0.101802 0.384105 
-0.16723 -0.046723 -0.152621 
0.00207566 0.0247693 0.00317786 

-0.00765363 0.0163294 0.0874018 
-0.0300526 0.00296315 0.0544862 
-0.000202731 -6.69689e-05 0.0169793 

0.00384461 -0.102086 0.364383 
0.0485807 -0.0215926 -2.82351 
-0.00730686 0.00619444 -0.164308 

-0.247658 -0.059031 1.30393 
-0.173816 0.196566 0.450675 
0.00300763 0.00293468 0.207527 

-0.184959 0.653782 0.801196 
-0.0705667 0.204048 -0.986633 
0.0105774 0.00514355 0.0176876 

-0.0915015 0.12629 0.249201 
-0.167184 0.0204436 1.50491 
0.0215002 0.0430217 -0.230047 

-0.0962749 0.000842435 0.0944107 
-0.029838 0.0400436 -0.0563307 
0.0323171 0.0800811 0.135087 

0.0359662 0.0534316 0.0874444 
-0.0784122 0.0235069 -0.0660988 
0.0157426 0.0144165 0.0115427 

-0.00953671 0.0190445 -0.0617634 
-0.0193636 0.00058228 0.19546 
0.00782697 0.00646987 0.0248137 

-0.00849095 0.0836344 -0.0969428 
-0.194692 0.0609293 -0.0121297 
0.055182 0.0459067 -0.0448983 

-0.0184279 0.0272774 -0.144679 
-0.00604579 0.00779697 -0.0167985 
0.000829898 -0.00142412 -0.0734267 

-0.0738989 -0.00988248 -5.71045 
-0.0297873 0.242066 -5.63152 
0.00629298 -0.0282707 -0.870726 

-0.102452 -0.100705 -2.26466 
0.145774 0.135826 -3.01077 
-0.000763545 7.77243e-06 -0.0425783 

-0.158332 -0.0789662 0.112422 
0.0320772 0.0972058 -0.172926 
0.0135987 -0.0830654 0.102664 

-0.0429253 -0.0218476 0.781211 
0.0988884 0.0573345 -0.217032 
-0.0405767 0.0150602 0.0760506 

-0.379835 -0.229039 -0.977514 
0.0951414 0.252541 -0.00114493 
0.0018981 0.00246948 0.0500852 

0.0185392 0.0702779 0.622515 
-0.0999532 0.011995 0.345849 
0.0226194 0.0145172 1.01223 

0.0656254 0.0348974 -0.0169741 
-0.0339465 -0.0333809 0.0644729 
0.00152063 0.000751634 -0.0354504 

-0.0838812 0.178168 -0.00939623 
-0.00503994 0.0660857 0.116367 
-0.0142074 0.0225366 0.213898 

-0.0688183 -0.428513 -0.362671 
0.0344955 0.0583883 -0.0593543 
0.00754467 0.0112859 0.0611494 

0.0268769 -0.0378755 -0.00784047 
0.0249014 -0.00857714 -0.0664187 
-0.00287221 -0.000749605 -0.0532273 

0.0295307 -0.00196945 -0.00512833 
0.0139942 -0.00122477 0.119594 
0.00223167 0.00215808 0.0256405 

-0.09712 -0.0124908 0.368605 
-0.0448536 0.119057 0.0845952 
0.0181352 -0.00759457 0.152095 

0.0439249 -0.204741 0.0729643 
0.212452 0.0289906 -0.0193656 
-0.00153212 0.000507461 -0.0414083 

0.035131 -0.1517 -0.0833282 
0.0458417 -0.069859 0.684995 
-0.00465495 -0.0136492 0.031543 

-0.0330717 0.0297882 -0.594269 
-0.0342641 0.0296981 -0.188224 
0.00319211 -0.00362421 -0.0893852 

-0.198541 -0.0523959 -0.397663 
0.0743429 0.0960237 -0.0584176 
-0.0740798 0.0399255 -0.014908 

-0.0114395 -0.0519101 0.204932 
-0.00176506 0.0120392 -0.00554751 
-3.05239e-05 3.16231e-05 -0.0063858 

0.0411718 -0.063752 0.00615651 
0.0642459 -0.0255365 -0.104383 
-0.0295272 -0.00548435 -0.0782538 

-0.0298719 -0.128292 0.239589 
0.0619607 -0.0189488 0.214257 
-0.022072 -0.016543 0.302616 

-0.16579 -0.242408 -0.582282 
0.339734 0.0630207 1.40724 
0.00709816 0.0318916 -0.132073 

-0.033292 0.113267 0.590342 
0.192243 0.214413 0.745601 
0.0452637 0.01619 0.177649 

0.0213311 -0.0154755 0.0190312 
0.0358143 0.00210851 0.0252701 
0.0339559 -0.0331592 0.0838717 

-0.0289387 0.280048 -0.650667 
-0.236895 0.288722 0.398679 
-0.00332357 0.0354741 -0.0565391 

-0.0414602 -0.0730013 -0.00666005 
0.132284 0.0206508 -0.00941794 
0.00158192 -0.00410304 0.0205584 

-0.145666 0.180889 -1.03021 
0.00355993 0.209055 -0.272063 
0.0267726 -0.0110454 0.00384786 

0.00820015 0.0405118 -0.0096876 
0.0437573 -0.0410011 0.0700886 
0.00408845 -0.00192089 0.00884725 

-0.040478 0.261737 -0.429559 
-0.11171 -0.0221722 1.51879 
0.000552208 0.00289487 0.0089667 

-0.0261639 0.0431107 0.471923 
-0.0223483 0.0110368 0.0204877 
0.00485131 -0.00855897 -0.121032 

-0.0135385 0.00504282 0.0196895 
0.010568 -0.00468853 -0.0408077 
-0.00495128 0.00302985 0.00907708 

-0.397424 -0.192048 -0.82619 
0.149342 0.250369 -0.133274 
0.0184766 0.00555847 0.150551 

-0.0648468 -0.060535 -0.541096 
0.0295062 -0.0459509 -0.531929 
-0.0052628 -0.0003389 0.111924 

0.0408456 0.16303 -0.0804143 
-0.12974 -0.0260201 -0.0191255 
-0.0429464 -0.00669558 0.0681397 

0.107684 0.0309406 -0.232639 
-0.376023 0.0937017 0.377229 
0.0201699 -0.0499539 0.148985 

0.0363871 -0.303627 -0.108655 
0.32075 0.0460951 0.0330909 
0.00371288 -0.032204 0.0157682 

0.00467305 -0.0153026 -0.0880122 
0.0458732 0.00823168 -0.177358 
-0.000202273 0.000695821 0.00556581 

0.0127384 -0.00299041 -0.0217197 
-0.0098164 -0.00959989 0.02467 
0.00015375 -0.0016493 -0.00851235 

0.0172884 0.130671 -0.0246412 
-0.152013 0.0247529 -0.0887241 
0.0195548 -0.00195859 -0.00397052 

0.00825643 0.0102634 -0.204886 
0.0219928 -0.00128393 -0.138624 
0.00320978 0.00189305 0.127656 

-0.245285 0.273661 1.74652 
-0.0468215 0.277312 1.18973 
0.00115265 -0.000215114 0.143328 

-0.19846 0.225533 -0.556237 
-0.0969702 0.163654 -0.277399 
-0.00150448 0.00091097 0.041497 

0.0521866 0.139869 1.45754 
0.081266 -0.0250643 0.1308 
-0.00409328 -0.0313878 -0.184216 

-0.0665239 0.388573 -0.629897 
-0.0603267 0.051313 -0.992632 
0.0295628 -0.0324543 -0.132751 

-0.0225441 0.0310259 0.211152 
-0.0362057 0.0227764 0.234759 
-0.000798458 0.0123467 1.33047 

-0.0353921 0.00599535 0.127573 
-0.0945349 0.0257599 -0.267533 
0.00739154 0.024781 0.700744 

-0.010192 -0.0130328 -0.537186 
-0.00533465 0.00442544 -0.22841 
0.000851288 0.00261059 0.0225517 

-0.0746804 0.0566274 0.0499002 
-0.065166 0.0246504 -0.0467492 
-0.0096716 -0.00165908 0.0566802 

-0.206235 -0.0454674 -1.09749 
0.00388569 0.155875 -1.32965 
0.0063274 0.000212503 0.212215 

-0.00905815 -0.0392342 -0.765662 
-0.0942441 0.0170004 0.968692 
0.00984094 -0.0304081 1.78811 

-0.0127511 -0.583479 5.15813 
0.0276605 -0.313344 1.47618 
0.000178321 -0.00232828 0.00335538 

-0.0215758 -0.0220568 0.258991 
-0.0124014 0.00231914 0.240531 
-0.0071848 -0.00363936 0.0724802 

0.0203374 0.0202969 -0.0966935 
0.00223141 -0.0152836 -0.0467451 
0.00988153 0.00580405 0.0532589 

-0.309345 0.456552 0.658573 
-0.0664234 0.31121 0.696562 
-0.0631839 0.0362057 0.0724597 

-0.0139629 -0.103935 0.143657 
-0.0110468 0.044167 0.0620034 
-0.00723122 0.00219339 -0.0148178 

-0.0440798 -0.218463 0.22862 
0.16475 0.0228944 0.477334 
-0.0111612 0.000668221 -0.0607668 

-0.0233533 -0.0663755 1.56364 
-0.0628078 -0.0499963 0.843617 
-0.00371377 -0.00320412 0.125904 

-0.102074 0.00413404 -0.00599557 
0.0789987 0.0377322 -0.0106777 
0.00822724 -0.00121348 0.0111335 

-0.0170388 -0.0498868 -0.0470732 
0.0714196 0.0481757 -0.0715522 
0.00211194 0.00142412 0.00635166 

-0.0821999 0.0641188 -0.0882499 
0.00436967 0.0969977 0.127687 
0.0158127 0.0297667 0.272855 

-0.0437866 -0.0221373 -1.17672 
-0.0256304 0.0252899 0.725953 
-0.000717646 0.000799454 0.842535 

-0.00762013 -0.00179094 -0.00649389 
-0.00561351 -0.00432821 0.00580086 
-2.16905e-05 0.000274571 0.0205564 

-0.0633655 0.0487057 -0.107807 
-0.242731 0.0404021 0.0541564 
0.000492619 0.0120711 0.0909949 

0.00116412 0.044806 0.0425115 
-0.0639267 -0.0223166 0.267272 
0.0326093 0.0147198 -0.085082 

-0.0338743 0.00696588 -0.765973 
0.0897007 0.0411452 0.728025 
0.0428548 0.00860419 -0.134298 

-0.338429 -0.142535 0.401071 
0.0345366 0.245096 0.347594 
-0.0116978 -0.0341058 -0.00422632 

-0.138202 -0.53828 -0.182731 
0.603675 0.434695 -0.0107924 
0.0188078 -0.0678342 0.351435 

-0.0533624 0.0373481 -0.547313 
0.00948116 0.0953879 0.509674 
0.00573478 -0.00120804 -0.0223105 

0.0819479 -0.00728232 0.374877 
-0.0659283 0.0115126 -0.362083 
0.0550537 -0.0195563 0.358427 

-0.202266 0.057811 0.145122 
0.155782 0.0563182 -0.0658206 
-0.0130105 0.0755836 0.427741 

-0.00324777 0.27018 2.55905 
-0.212867 0.0112083 -0.554916 
-0.00712801 -0.00768032 -0.0760951 

-0.0129137 0.0161868 0.0610183 
-0.0180725 -0.0172923 -0.00318062 
-0.00029291 -0.000885014 0.0455689 

-0.0199426 0.0890203 -0.118287 
-0.0144102 0.0605374 -0.674646 
0.00773161 -0.0160965 -0.0461541 

-0.00329871 0.00267072 -0.0208515 
0.00499449 -0.0225406 0.0943543 
0.00136495 -0.0045518 0.0160234 

-0.0526365 -0.0870418 0.0794951 
0.0754499 0.0159431 -0.152051 
-0.00554937 0.00961877 0.170017 

0.000441862 0.00863358 0.548407 
-0.00501309 -0.00101393 0.123411 
0.000820657 -0.000422417 0.00967984 

-0.0859041 -0.292838 0.0197707 
-0.0916304 0.16211 0.371264 
-0.00923337 -0.00444718 -0.00957699 

-0.0328827 -0.0311095 -0.161777 
0.0653109 -0.0151468 0.436873 
-0.0144656 0.000962156 0.0965681 

-0.0371474 -0.101495 0.974476 
0.375806 0.176033 -1.22415 
0.0183663 0.0215809 0.240566 

-0.0121375 -0.0154418 -0.0066328 
-0.0198989 0.0116907 0.0219469 
0.0026107 -0.00385936 -0.00356614 

-0.0178976 0.0161772 -0.184878 
0.0672717 -0.017258 -0.682705 
0.00193202 -0.000209584 0.00519983 

0.0133766 -0.0100356 -0.0868189 
0.0511349 0.00458298 0.0959128 
-0.0453322 -0.021786 0.131618 

-0.0213506 -0.0333204 0.491007 
0.0164394 0.0242459 -1.1158 
-0.00638196 -0.00877941 0.0692852 

-0.00862637 -0.0469498 0.491352 
0.26564 0.105579 0.19929 
-0.0128021 -0.0163804 0.229201 

-0.0280757 -0.0668541 0.238812 
0.00202072 0.184256 -0.310229 
-0.0179772 0.000899921 -0.00634601 

-0.13514 0.0124299 -1.28318 
-0.0127027 0.161131 1.18552 
-0.00474315 0.00230571 -0.0432158 

-0.0668305 -0.226724 -0.304518 
-0.0164211 -0.0674549 -0.236529 
-0.00400999 -0.00263917 0.00953917 

-0.0804433 0.0746033 -2.07166 
-0.112411 0.459999 1.05509 
0.0251064 -0.00756648 0.175266 

-0.00821243 -0.323048 -0.0846162 
-0.473705 0.0151936 0.187813 
-0.0483537 0.00207021 0.0515267 

0.0830148 -0.0812147 -0.288861 
0.159931 0.0118156 -0.134429 
0.0620269 -0.0564308 0.610456 

-0.078517 -0.0670943 -0.00592998 
-0.0168807 -0.0052634 0.0471842 
0.00577091 -0.0144435 0.0975446 

0.00542955 0.0213068 -0.0952791 
-0.00842941 -0.00140435 -5.21366e-05 
-0.030804 -0.0404608 -0.0235415 

0.0154001 0.0607477 0.0653515 
-0.0254241 -0.0411408 0.103303 
0.00326575 0.0666131 0.128125 

-0.00726479 -0.033572 0.0154239 
0.0330842 0.00542056 0.000731823 
-0.000787037 0.000856872 0.00833809 

-0.192573 -0.421945 0.0759974 
0.0936922 0.236847 -0.0376696 
0.0460168 -0.0437121 -0.0283924 

0.0171353 -0.174146 -0.190387 
0.142711 -0.00537573 -0.0975999 
0.00566117 -0.00297351 -0.0630035 

-0.00379907 0.0285906 0.0628945 
-0.0864009 -0.0299904 0.138479 