# vtk DataFile Version 3.0
Output file generated by Yade's KinematicLocalisationAnalyser
ASCII
DATASET UNSTRUCTURED_GRID

POINTS 13483 float
527.179 46.7094 -0.487608
646.102 80.0935 -0.316422
115.091 6.18459 -0.45552
670.745 22.985 -0.227723
457.023 8.84833 0.421703
300.461 40.83 -0.452113
150.647 7.16303 -0.471433
515.895 10.9746 -0.115806
454.011 29.216 0.149566
613.092 22.7914 0.420243
202.317 9.15048 0.12821
246.753 6.35905 0.336071
564.627 53.3103 0.134996
553.189 33.1956 0.0921298
131.598 17.8458 -0.483785
212.173 36.5826 0.408229
209.388 13.2511 -0.284491
276.486 11.4288 0.466821
323.622 38.459 0.448656
476.987 9.55954 0.5129
383.964 43.7976 -0.10327
506.82 63.954 0.287257
670.881 57.2451 -0.443563
593.359 71.4417 0.435689
424.363 23.2065 0.321488
232.294 45.6442 -0.138469
449.252 34.4804 -0.451563
523.692 24.6046 0.246841
43.434 17.493 -0.537166
611.044 55.0268 0.352729
442.08 6.00287 0.482974
15.5071 24.6271 0.300986
654.17 76.8915 -0.240727
453.228 2.62143 0.512536
76.3913 47.8509 -0.0999432
470.489 36.9212 0.337851
483.085 18.7892 -0.454518
326.123 25.8576 -0.183034
483.477 30.402 0.371464
331.528 41.5208 -0.406483
231.451 14.8637 -0.296668
402.999 42.3514 -0.0743948
582.643 9.78544 0.190117
184.962 6.22012 0.352846
52.3869 7.3621 -0.0930511
64.4193 8.82561 -0.232022
594.393 10.2002 -0.605785
22.4498 12.0422 -0.292536
526.713 68.7371 -0.353141
581.91 37.0849 0.443522
165.783 34.6397 0.288434
639.57 54.2841 0.114302
32.776 29.6323 -0.118186
484.736 4.28682 0.422823
136.595 7.22445 0.480069
515.142 54.1886 0.366382
460.256 31.6891 0.147625
168.8 0.98948 -0.308377
31.5369 2.35649 -0.347897
330.009 20.9945 0.272424
534.21 66.4206 -0.14377
424.548 43.1958 0.179098
374.323 1.04747 0.210953
601.075 9.10671 -0.647719
25.3647 45.8668 0.237707
247.633 32.3872 0.297841
614.254 17.7212 -0.274088
577.843 74.5516 0.0346802
391.744 9.37589 -0.645273
516.655 4.06495 -0.664346
632.167 44.2498 -0.44056
125.781 7.8059 -0.288559
455.66 32.4712 -0.132136
439.026 19.3833 0.0968054
282.799 18.2262 -0.346441
19.6028 13.7165 -0.240943
655.535 58.5056 0.349197
317.517 45.9911 -0.291162
582.545 32.4083 0.396636
595.124 21.468 -0.220724
669.529 14.1804 0.207458
427.858 44.5515 0.168711
90.5345 40.813 -0.261758
588.687 58.8119 -0.230808
561.32 64.5867 -0.0937233
674.713 65.4875 -0.112364
668.222 0.772542 0.570278
279.861 29.3858 -0.449312
556.141 13.8158 0.163012
23.331 5.68652 0.501745
128.62 41.9576 -0.139564
468.773 16.2675 0.191306
652.829 43.2626 0.482773
189.801 29.9974 -0.244761
42.4486 37.5247 -0.265855
452.79 1.00473 0.317162
227.611 8.81857 -0.449885
628.503 70.1348 0.244026
646.884 38.7206 -0.26083
341.87 26.572 0.276241
158.72 27.84 -0.453845
484.512 54.543 0.403712
356.429 17.3265 -0.559966
385.433 34.1602 -0.0995295
356.118 5.25476 0.600034
498.363 11.5308 0.131592
676.1 29.2429 -0.159331
78.3569 42.5687 0.384329
319.165 6.21013 -0.232941
509.9 9.02557 -0.467426
344.307 51.7268 -0.449712
23.5615 25.8032 0.517466
29.5896 5.94562 -0.297157
505.393 37.7147 0.441732
460.888 27.6407 0.171794
24.3562 39.1561 -0.408472
90.6712 32.9547 -0.216318
309.474 19.4889 -0.325086
532.472 26.6568 -0.110225
439.165 50.2451 0.290493
622.425 7.73696 0.571208
616.959 10.2623 0.278322
367.572 42.6937 0.0951094
553.723 48.7629 -0.0945179
230.613 18.1858 -0.613621
315.848 3.85453 0.559927
100.296 33.3838 -0.310795
111.794 24.5982 0.266521
484.643 50.4443 0.0772435
294.527 21.4083 0.522218
608.066 60.8369 -0.104394
583.05 72.967 0.107917
442.769 24.7138 -0.416262
656.081 15.3166 -0.327228
399.146 28.2627 0.235964
267.476 28.8452 -0.306492
580.134 50.6119 0.307501
269.873 32.4563 0.389667
524.42 13.0692 0.232178
318.85 44.5205 0.193721
463.593 13.4937 0.467075
349.095 37.6842 0.0875391
402.174 21.1277 0.0986326
306.472 48.8189 0.434083
186.051 32.3358 -0.115617
649.643 83.5126 -0.150768
672.168 32.2014 0.296945
6.74422 12.8901 -0.412234
405.991 27.2235 -0.417527
36.3711 23.8295 0.0736598
357.467 36.0173 -0.481184
374.564 26.5439 -0.29397
71.2374 12.2433 -0.452924
50.5801 35.7252 -0.43601
219.61 13.7852 0.432596
540.371 62.5777 0.377509
521.969 27.731 -0.452631
72.7216 21.7457 -0.476783
597.434 69.2405 0.258064
644.382 2.36086 0.564004
569.088 74.6164 0.469058
599.171 1.89149 0.613208
497.821 34.8502 -0.471854
506.818 65.8005 0.439722
470.283 19.924 -0.371216
678.596 11.8594 -0.289689
217.33 27.3264 -0.134396
123.542 37.1206 0.196263
240.141 7.15198 0.43955
90.8207 4.47729 0.29511
61.2004 10.8976 0.22801
269.76 39.9284 -0.292239
16.4455 26.124 -0.357956
504.509 25.7646 0.495993
522.076 66.2564 -0.197359
430.859 30.9541 -0.433599
665.152 70.0018 -0.361208
385.235 8.85315 -0.117221
408.715 45.6016 -0.385756
491.801 3.33206 -0.234396
22.055 22.9012 -0.440222
527.658 5.52424 0.421014
499.658 4.23101 0.350328
200.505 11.5895 -0.544966
401.636 16.1689 0.213615
300.218 6.79254 0.354554
367.704 20.8438 -0.35622
624.845 74.801 0.103521
188.791 27.105 -0.471
660.643 7.65573 -0.46252
623.262 66.5943 0.320541
364.164 11.1621 0.209678
612.527 7.77804 0.618564
532.064 41.9643 -0.384755
630.479 25.1785 0.381639
399.204 52.8684 -0.281886
458.427 14.4896 0.447356
430.325 54.6899 0.217901
419.412 13.0717 0.137669
573.525 69.6735 0.256967
573.944 64.1809 -0.289557
185.717 42.5413 0.329413
668.466 15.9526 0.118468
506.311 67.4363 -0.241633
10.547 18.801 0.195846
383.888 28.6535 0.367817
183.398 25.7797 -0.391699
93.1724 41.8342 0.202188
652.645 39.0647 -0.452479
566.378 77.3845 0.219284
308.368 30.9776 0.354965
488.555 10.6027 0.410002
81.6508 47.5952 0.165472
241.426 26.9385 0.4774
505.947 30.1312 0.367474
450.9 25.3744 0.471305
255.752 0.837422 -0.382018
492.611 54.6745 -0.364163
478.987 56.8851 -0.451471
445.197 51.2847 0.39389
462.057 2.31664 -0.624606
603.825 32.7406 0.448055
174.16 14.8029 -0.17278
462.117 42.1141 -0.475562
495.091 58.3518 -0.111687
70.0535 0.956899 -0.271204
245.091 4.88736 0.211249
671.996 34.2213 -0.158644
669.127 19.8397 -0.371908
677.479 37.8746 0.444832
292.66 8.73325 -0.330827
632.854 31.83 0.515432
388.584 53.8927 0.334385
420.215 0.823009 0.518616
567.198 61.7865 0.430267
25.9112 32.7433 0.315421
320.495 53.3286 -0.487406
246.107 3.08352 0.436837
655.118 70.6325 -0.185344
606.528 80.0304 -0.225694
278.785 12.6844 0.234839
577.825 53.9659 -0.0880686
511.947 2.55973 0.25445
498.045 7.65656 0.467672
93.577 19.0275 -0.48649
293.032 1.19516 -0.284663
327.617 2.74648 0.433154
13.3458 7.2542 0.632449
4.71147 33.5008 0.240275
158.615 19.2681 -0.360424
66.8117 45.8802 -0.207057
64.6454 30.5847 -0.309206
402.775 14.9203 -0.468661
353.037 41.0249 -0.483285
637.702 55.5883 -0.11765
18.9574 4.14145 0.278485
67.6959 7.1604 0.132872
544.654 61.7799 -0.114148
284.521 0.888376 0.386647
346.755 16.756 -0.0747468
230.173 4.75002 -0.430387
572.186 39.6415 0.206444
425.259 11.9511 0.431358
633.202 26.9987 0.40206
550.809 51.8691 -0.290993
584.254 29.2047 -0.0832688
396.294 30.2321 0.509021
100.865 48.2772 -0.302774
479.855 60.5967 0.0696659
628.263 19.8329 0.281405
232.227 32.1291 0.238037
30.7075 18.1533 0.18094
322.765 16.1779 0.464154
106.715 43.7497 -0.39643
263.732 47.19 -0.205984
404.7 1.08808 -0.304434
652.787 54.2552 -0.383785
592.231 2.10891 0.729757
319.93 4.55688 0.47026
291.703 29.9452 -0.13966
430.705 51.3274 -0.212478
78.6696 8.1253 0.475824
192.996 48.8894 0.377557
649.475 47.2122 0.393449
458.574 49.2537 -0.0651411
194.722 44.8825 0.261495
156.863 44.063 -0.39817
679.238 57.2746 0.378372
674.684 28.174 0.483782
554.683 5.32188 -0.61924
186.999 27.1732 0.0956047
498.483 37.4208 0.100017
500.265 36.3797 0.280177
389.744 5.96773 -0.144865
448.691 0.923715 -0.377521
637.422 58.7152 0.471672
82.3223 32.8713 -0.208907
575.814 31.8829 0.462531
265.905 16.7443 -0.31701
9.13151 2.31858 -0.402936
124.22 39.2244 -0.182921
65.7527 25.3903 -0.469365
603.662 57.8197 0.327585
659.38 84.2181 0.153715
182.199 30.8094 0.17797
667.51 29.4589 0.329888
43.621 39.2366 -0.254244
89.2966 31.5661 0.165461
559.597 32.8658 0.424863
394.102 18.6052 -0.475307
479.546 19.205 0.122562
232.618 30.1682 -0.193612
555.964 18.4615 0.507699
677.68 27.9898 -0.36599
29.0343 34.3174 -0.261798
263.387 7.81721 0.213473
217.336 15.8395 -0.253769
1.10363 38.2829 0.145174
220.691 14.6584 -0.392499
206.893 11.4615 -0.121794
209.173 27.423 0.296624
128.82 29.7576 -0.123362
502.996 16.5628 0.392795
163.372 14.4083 0.363916
650.512 76.1586 0.21651
170.828 3.93813 0.520363
46.396 40.1313 -0.350316
631.478 83.783 -0.431361
274.995 34.8353 0.391153
586.128 38.4141 0.510312
659.765 54.511 -0.513772
290.86 9.56644 0.121121
624.208 50.4019 0.340406
317.926 2.58499 -0.358139
392.295 27.6945 0.376047
586.153 21.6118 0.543486
102.725 12.0088 0.462863
450.136 3.95119 -0.545076
636.556 24.9844 0.180354
85.4594 7.70877 -0.266925
273.904 16.2676 0.216077
403.868 12.5778 -0.231213
679.704 10.4221 -0.685496
379.016 2.00553 -0.558925
172.211 42.0545 0.266572
629.021 10.4265 0.374658
126.484 38.8737 -0.181569
256.068 35.2025 -0.375759
381.689 22.1814 0.211581
525.364 15.3772 -0.341768
367.735 9.86293 0.449381
427.272 37.5541 -0.451114
646.025 81.6394 -0.0327673
45.572 11.9562 -0.0999217
289.381 42.977 -0.266937
362.11 29.0277 -0.380575
389.532 21.502 0.254728
473.324 55.4575 -0.372004
633.206 59.3834 -0.216521
577.752 64.6791 -0.353077
220.903 35.9001 0.406575
12.4945 33.6778 0.153026
571.653 66.9219 0.118474
464.218 59.4341 -0.450482
225.164 40.4799 0.0917171
590.234 50.6015 -0.115165
147.991 9.74303 0.218612
347.907 24.0046 0.25301
431.829 53.0893 0.0982066
393.619 20.2935 0.197483
643.381 77.5546 0.296054
406.064 3.21269 0.555548
48.9265 27.5937 -0.307763
440.676 42.3346 0.340216
405.387 52.9673 0.391306
651.073 65.5806 -0.24148
619.842 55.155 -0.244099
499.152 20.4712 -0.18344
645.734 65.0761 -0.468679
284.177 2.12573 -0.494072
362.711 32.0414 -0.481764
27.5258 41.2117 -0.29615
625.646 49.094 -0.148286
539.362 33.6568 -0.46758
432.313 0.757507 -0.540665
123.144 4.66442 -0.30573
401.505 48.0027 -0.0939777
11.4675 0.901378 0.328091
677.973 9.76619 -0.137919
358.338 46.643 0.396068
[...]
POINT_DATA 13483
TENSORS Strain_matrix float
-0.127523 -0.221243 -0.70318 
-0.0563091 0.0934858 1.97048 
-0.0161607 -0.0240866 0.174404 

0.0431247 0.0158851 -0.815746 
0.104345 -0.012995 0.529496 
-0.00294174 0.0020906 -0.0909209 

-0.0116001 -0.00345438 0.181388 
0.00182851 0.00492448 0.12374 
0.000233292 7.00691e-05 0.0790231 

-0.00976577 -0.070853 -0.788007 
-0.187038 0.0239676 0.149516 
0.019725 0.0133224 0.01795 

-0.00310928 -0.0607877 -0.0718533 
-0.0181927 -0.0186743 -0.0249946 
-0.00283955 0.00147373 -0.00565038 

-0.0345516 -0.0948519 -0.67252 
0.150921 0.0439704 1.83769 
-0.00243652 0.00780319 -0.0704056 

-0.026917 -0.00557624 0.141499 
0.00398608 -0.00033664 0.133064 
0.000995385 -0.000543006 0.0485842 

0.029731 0.0436881 0.152817 
0.00280242 -0.0377948 0.0114744 
0.00179547 -0.000196601 0.0250312 

-0.00224117 0.0441938 -0.035306 
-0.0550475 0.0162668 -0.0160374 
0.00236168 0.00222505 -0.025445 

-0.144777 -0.14768 0.66454 
-0.0789269 0.126461 -0.49428 
0.0160771 0.0175893 0.0929405 

-0.0267252 -0.0235448 0.0512848 
0.0194221 0.0243797 -0.0102528 
-0.00257353 -0.00024415 0.025573 

-0.0312065 0.00244355 0.0862384 
-0.0372233 -0.0164141 -0.220785 
-0.0219705 -0.00715792 0.442919 

-0.00903164 -0.0245215 0.0487687 
0.0413451 -0.0123963 -0.117751 
-0.0424955 0.0118008 0.136743 

0.000147571 -0.0980976 0.00578465 
0.0197669 -0.0216596 0.03188 
-0.0194767 0.0032346 0.120177 

-0.0047123 0.00170158 0.311084 
0.00333546 0.0104605 -0.758354 
0.00174054 -0.0010111 0.170281 

-0.00798216 -0.00209031 0.297069 
-0.0052746 0.0264661 0.0416456 
0.000374481 0.00249295 0.0397019 

-0.00647634 -0.000791907 -0.000428067 
-0.000560534 -0.00858183 0.028643 
-0.000432736 -0.00146479 0.0265859 

-0.0625262 -0.00598925 -0.11659 
0.0815332 -0.0396665 0.0558112 
-0.0180007 -0.0117311 0.68912 

0.137133 -0.0287137 -0.225745 
0.0525595 -0.0930274 0.818827 
0.000836377 -0.00182003 -0.0381783 

-0.0109334 -0.0858353 -0.0436777 
-0.0274019 -0.0426776 0.0889788 
0.00397227 0.000525881 0.0378078 

-0.0554496 0.313655 -0.540642 
-0.00361495 0.113079 -0.418 
-0.000221286 0.00309338 0.017585 

-0.0212823 -0.0689747 0.0319996 
0.0873959 -0.00390567 -0.0779775 
-0.0080834 0.00976337 0.0589654 

-0.136709 0.106519 2.15762 
-0.154847 0.139047 -1.87124 
-0.00370303 0.00199206 0.100793 

-0.0217461 0.120865 10.3224 
-0.208562 -0.0864972 -6.4617 
6.5141e-05 0.0214578 -0.635412 

-0.019341 -0.0127461 -0.288337 
-0.0253416 0.027501 0.322761 
-0.00391352 0.00359452 -0.000150632 

0.00329337 -0.202886 -0.0635534 
0.184828 0.0241508 0.0979437 
0.035026 0.0351994 0.0345098 

-0.0147902 -0.0633567 0.827183 
-0.0618593 0.06666 -3.88512 
0.00740647 -0.00131755 -0.016889 

0.0182716 0.0295443 1.08049 
-0.0488079 0.0367568 0.165931 
0.0289955 0.0355524 -0.0690791 

0.00026192 -0.00168527 0.867501 
-0.0220762 0.0220891 -0.624458 
0.00325108 0.00397742 0.179737 

-0.154464 -0.00224004 -0.319716 
-0.17282 0.118611 -0.0624052 
-0.0039816 -0.000446687 -0.0748141 

-0.0429026 0.042182 -0.0264426 
-0.0739157 -0.0170447 -0.0504117 
0.00451026 -0.00833287 0.0394841 

-0.00735494 0.0468492 0.00781847 
-0.0575566 0.00352992 -0.0133687 
-1.5051e-05 0.000360591 0.0132217 

-0.0856575 0.242892 0.482974 
0.0974231 -0.00981291 -0.291221 
0.0048589 -0.0122068 0.117423 

-0.080756 -0.0311245 -0.196871 
0.0502813 0.0470383 -0.198695 
-0.00688485 0.00236311 -0.0891766 

0.0126846 -0.0764561 0.00604466 
0.0853768 0.0273187 -0.0077714 
0.0144985 0.0233094 -0.0950282 

-0.116848 -0.731897 0.679445 
0.0522538 -0.00101786 0.314218 
-0.00176249 -0.00034047 0.0240052 

-0.0139562 -0.0887762 -0.424383 
0.0352342 -0.006861 -0.146265 
0.00206536 -0.00165171 0.0313704 

-0.0674005 0.0308944 -0.101796 
-0.12418 0.00151549 -0.0770807 
-0.00723846 0.0233278 0.0371294 

-0.0670563 -0.161142 -0.400004 
0.0843578 0.0508329 0.421969 
-0.0145884 0.00398561 0.196669 

-0.102506 -0.112347 1.326 
0.0859357 0.163315 -0.977591 
-0.00161758 0.000517074 0.0313855 

-0.0128669 -0.0128394 -0.268956 
-0.0107146 0.043692 -0.113937 
0.00450337 -0.00676137 0.0388053 

-0.0187054 -0.071188 0.0946552 
0.090173 0.0309162 -0.207583 
0.00582634 -0.0217852 0.134868 

0.00204418 0.0487787 -0.0316504 
-0.0141074 0.0234135 0.0567286 
0.0107794 -0.00546513 -0.0348283 

-0.0372382 -0.0312362 -0.070838 
-0.00210598 0.00103074 -0.015851 
0.00123782 -0.00279506 0.0551264 

-0.0300535 0.0109618 0.0326346 
0.0409732 -0.0136011 -0.00306346 
0.00744788 0.001869 0.0817565 

-0.0574288 -0.0875273 -0.352398 
0.0160097 0.0257043 -0.244874 
0.0301942 0.00474137 -0.0594989 

-0.0646641 -0.0614954 -0.555845 
-0.00304182 0.0196154 0.358756 
-0.0192297 -0.0166896 -0.0745916 

-0.00831571 -0.0224596 -0.00722708 
0.0428187 0.0156279 -0.0438184 
-0.000665593 0.000474019 0.0183286 

-0.029062 -0.132536 -0.175025 
0.122278 0.0458792 0.055426 
-0.0173531 -0.0704106 0.0622355 

-0.169112 -0.399291 0.0482695 
-0.0451448 0.0988255 0.0959139 
0.0229934 -0.00503801 -0.0719838 

0.0351345 0.0671891 0.0145537 
-0.0791953 -0.028453 0.0814645 
0.00529691 -0.0220048 0.0897969 

-0.0644367 0.0669141 -0.885456 
0.0416198 0.136666 -0.907386 
0.00043919 -0.00242828 -0.0318045 

0.0163383 -0.0256091 -0.00896482 
0.0140802 -0.0206867 0.0325704 
6.84071e-05 -0.000641766 0.00502586 

0.0176388 0.0761405 -0.0432033 
-0.173691 0.0448791 0.0747375 
-0.0322147 0.0581163 -0.073081 

-0.0214837 0.00630631 -0.0118159 
0.00659553 -0.00238859 0.0206183 
0.00112182 0.00241644 0.0214316 

0.0172911 -0.0655936 -0.205803 
0.099084 0.0278296 -0.0924106 
-0.00133492 0.000379172 0.00892656 

0.0142488 -0.220392 -0.259182 
0.0709148 -0.0735214 -0.130789 
0.00208081 -0.0024249 0.0421126 

-0.0316298 0.104539 0.209698 
0.00629705 0.0176094 0.00653917 
-0.0127528 -0.00300891 0.886522 

-0.0127657 -0.00244329 -0.0154773 
-0.00117382 -0.00140974 -0.00385641 
-0.00123802 0.00185066 0.0135614 

-0.0122738 0.100486 -0.0048313 
-0.00576551 0.00381782 -0.183247 
0.0109954 -0.01514 -0.125083 

-5.49848e-05 -0.199246 0.212941 
0.138536 0.0197006 -0.0855359 
0.000968317 -0.0017954 0.0174921 

-0.019294 -0.0569993 -0.259162 
0.0480281 0.0201591 0.0925038 
-0.0104531 -0.00134309 -0.0209272 

-0.019982 -0.0531201 0.00815986 
-0.00625545 -0.00369198 -0.00840195 
-0.000522494 0.0021925 0.0205209 

-0.124982 -0.081171 0.242836 
0.232916 0.0716631 -0.637592 
-0.0346926 0.00297394 0.320263 

-0.041099 -0.0495579 0.00140187 
-0.0266859 0.043121 0.109441 
-0.0247122 -0.0225543 0.165588 

-0.0226874 -0.0193545 0.0152943 
0.0312799 0.0267159 -0.0330837 
0.00256763 0.00212139 -0.0052123 

0.00594734 -0.0516704 0.148036 
0.0515101 -0.0716261 0.234337 
-0.0011746 -0.00514309 0.0770137 

0.000920465 -0.282862 0.0732129 
0.297064 0.0578926 -0.0710625 
0.00129346 0.00119367 0.00384662 

-0.026677 -0.0543531 1.28751 
-0.0122874 0.0526706 -3.00174 
-0.000873168 -0.000697741 -0.0471521 

-0.00646416 -0.00237016 -2.57373 
-0.0061737 0.0141341 -0.334839 
0.00147494 -0.00254745 0.247769 

-0.191255 -0.00507818 -0.418233 
0.1217 0.135593 -0.0540545 
-0.00390551 -0.00896507 0.0699868 

-0.0176318 0.00605716 0.00596471 
0.0127291 0.00374654 0.00673547 
-0.0136771 0.00189613 -0.00514272 

-0.0822564 -0.415306 0.528396 
-0.0625108 0.110082 -0.253592 
-0.00406418 0.00532667 0.0486547 

-0.355322 -0.344538 -1.25484 
0.0142861 0.230266 0.521353 
-0.00147443 -0.00384478 0.00554259 

-0.0235434 -0.0334238 0.0287914 
-0.0158391 0.0520979 -0.296779 
-0.0107914 0.00534836 0.0480528 

-0.00287474 -0.0107885 -0.0136425 
0.0024704 -0.00317572 -0.0218734 
-0.00173336 0.000180194 0.0232317 

-0.0141925 0.230446 0.0577246 
-0.275423 0.0526336 0.260376 
0.00277272 -0.000224257 0.0299057 

-0.0946072 0.0103432 0.0699597 
-0.139801 0.0761173 -0.212774 
0.000170337 0.00042971 -0.00868008 

-0.245258 -0.0627462 -0.741151 
-0.0379815 0.165399 0.705845 
0.089861 0.0625611 0.376342 

-0.209482 0.0539393 -0.461166 
0.226587 0.311805 0.0453516 
0.00687336 0.00316208 0.0535157 

-0.297268 -0.149908 -0.378662 
-0.119171 0.240594 -0.335389 
0.00929422 0.00265386 0.00846668 

-0.00990491 -0.0854807 -0.111157 
0.107204 0.024601 0.0236938 
0.013246 0.0229315 0.0235643 

-0.0217907 -0.00636379 0.162044 
0.0461879 0.0205769 -0.119242 
0.0014813 -0.00094795 -0.00742962 

0.065709 -0.101322 -0.164296 
0.0823277 -0.00172139 -0.217075 
-4.93724e-05 0.00383995 -0.0181445 

-0.0184 -0.218386 -0.0859369 
0.0910413 0.0141696 -0.0159178 
-0.00380521 0.0266102 0.0688077 

0.0238283 0.359774 -0.717487 
-0.120645 -0.0449923 0.364441 
0.00825642 -0.022741 0.049636 

-0.0191596 0.206736 -0.626648 
0.0312973 -0.09145 1.65357 
-0.00048046 -0.0441582 0.317983 

0.0625489 0.0108885 0.853147 
0.0523135 -0.0390292 -0.194102 
-0.00222896 -0.00402166 -0.0637361 

0.00106464 -0.27617 0.141334 
0.113941 0.0376458 -0.0697797 
-0.0035767 -0.0246206 0.0317832 

-0.00796319 0.00653071 0.401643 
8.70496e-05 0.00571613 -0.0161121 
0.000159817 -0.0029557 0.0640518 

-0.235304 0.360011 0.305711 
0.1185 0.180531 0.39089 
-0.000164013 0.0029853 0.00302888 

-0.0207292 -0.044852 -0.179703 
-0.00769591 0.00330271 -0.0459715 
0.00115327 0.00246929 0.0493502 

-0.0407961 -0.106016 0.770866 
0.100838 0.137882 0.955402 
0.00054649 -0.0225328 0.0601243 

-0.191519 0.00828058 0.64721 
0.269866 0.193008 -0.881984 
-0.000594669 -0.000645709 0.0730169 

-0.00496514 -0.0216113 -0.00207406 
0.0127791 -0.003259 0.116575 
-0.000642118 -0.00024508 0.00551036 

-0.0895758 -0.0842993 -0.0913649 
0.0626833 0.176269 -0.0697758 
-0.000817599 -0.0150558 -0.00302583 

-0.0100069 0.0270066 -0.0128817 
-0.0228211 0.00339159 0.0405325 
5.50698e-05 0.000289165 0.0329414 

0.0297548 0.0987418 0.193851 
-0.0485234 0.0118238 0.303381 
-0.000272238 0.00121043 -0.0327292 

-0.159675 -0.0785417 -0.346278 
-0.345061 0.0468723 0.113916 
-0.00199354 0.00752435 -0.00982303 

-0.0703747 -0.0516391 -0.0335882 
-0.142264 0.00752074 -0.809452 
0.00186198 0.0212059 -0.0434048 

-0.0379908 0.0804399 1.1448 
0.0340175 0.0184383 -1.38604 
0.000777512 0.00186956 0.126343 

-0.270714 -0.292044 3.98448 
-0.025362 0.188722 -3.84119 
0.00917561 0.00054275 0.0513489 

-0.0847569 -0.0397309 1.57157 
0.0135733 0.0591906 -0.125784 
-0.00370753 -0.000424032 -0.157269 

-0.216077 0.192729 -0.188333 
-0.117381 0.169108 -0.0616311 
-0.00171171 0.00100078 0.0590921 

-0.0428461 -0.00553005 -0.740278 
-0.0220901 0.0425658 -0.216273 
-0.00103599 -0.000492879 0.170848 

-0.0286785 0.0313209 -0.0777595 
0.00158152 -0.042624 0.138378 
0.0029087 0.000312843 0.133387 

-0.0029219 0.0577857 -0.0361807 
-0.0566396 -0.0439882 0.0517084 
0.00043541 -0.00112269 0.0579069 

-0.00723214 -0.0242942 -0.260535 
0.0328761 -0.00132563 -0.28347 
-0.0203403 0.00631452 0.047489 

-0.141237 -0.198216 0.289105 
0.14025 0.140787 0.243716 
0.00998709 -0.0189839 0.28362 

-0.0194393 0.0293478 0.239861 
-0.0392331 -0.00759754 -0.90507 
-0.000395022 -0.00374297 0.178836 

-0.0524198 0.0312023 -0.0452166 
-0.0359108 0.072059 -6.12075 
-0.00108365 -0.00866939 0.059868 

-0.0330049 -0.033709 0.404181 
0.0511142 0.0437172 1.13864 
0.000318127 -0.000835713 0.288445 

-0.0168084 -0.00113114 -0.000137087 
0.00143525 0.0051444 0.00690606 
-0.00172108 -0.00125728 0.00381307 

-0.353313 -0.375589 -0.221061 
0.216468 0.307812 -0.237527 
-0.0129012 -0.00334994 0.196102 

-0.136077 0.00387774 -0.121492 
0.0972849 0.075017 -0.443787 
0.00131868 -0.0149942 0.177134 

-0.00781301 0.0085655 -0.0881285 
-0.0214687 0.0144783 -0.297002 
-8.61499e-05 -0.00234515 0.0781447 

-0.133752 -0.0145341 0.468208 
-0.0544129 0.0325234 -0.123085 
-0.00488995 -0.00274765 0.0191931 

-0.111918 -0.330546 -1.00223 
0.206859 0.190101 0.707279 
0.000143349 0.00334014 -0.0147912 

-0.390426 -0.405868 -0.858753 
0.113034 0.261056 1.12667 
0.0222496 0.0390149 0.214258 

-0.222396 0.0418598 -2.12579 
-0.0297824 0.125345 -1.10621 
0.000485675 -0.000629369 -0.0197 

-0.094279 0.0706902 -0.0278434 
-0.175291 0.0203872 0.00506494 
-0.00550229 0.0171155 -0.00470462 

-0.13064 0.367542 -0.0398678 
-0.327603 0.18254 -0.340829 
-0.0925073 0.0522497 0.354785 

-0.144059 -0.0715239 -0.108286 
0.308235 0.173211 0.28702 
-0.0262131 -0.0597578 0.13244 

0.0274059 -0.0954575 0.137973 
0.110655 0.0249303 0.190131 
-0.00361848 -0.000335881 -0.0208521 

-0.0335869 0.0127739 1.46536 
0.00300159 -0.0125935 6.15831 
0.000290296 -0.000409764 0.0973626 

-0.0657344 0.073512 -1.36716 
0.0748952 0.0501371 0.865518 
0.00323902 -0.0306018 0.817678 

-0.00502541 0.0409509 -0.168646 
-0.0308415 0.067852 0.0262195 
-0.00144689 -0.000541045 -0.0165663 

0.00254886 -0.0339033 0.150214 
-0.0153971 0.0122364 -0.149291 
-0.00996899 -0.0197759 -0.0462646 

0.0110195 0.0322002 0.72143 
-0.143553 0.0609683 -0.116576 
-0.0281454 -0.0330877 0.253719 

-0.0509757 0.0164144 -0.87564 
-0.0190228 0.04876 -0.266229 
0.00177631 0.0033524 0.467225 

-0.0891102 -0.356639 -0.716633 
0.254391 0.271087 -0.55685 
-0.0310486 0.00271332 0.0734866 

-0.130807 -0.0396462 0.254836 
-0.00108172 0.132903 -0.721658 
-0.00196732 0.0549078 0.192042 

-0.0287947 0.0528702 0.0119801 
-0.136122 0.00560966 -0.191281 
0.00219688 -0.00146102 0.077022 

-0.0217712 0.0561294 -0.0500073 
-0.0734586 0.0123917 -0.0548728 
0.00298821 -0.00201386 0.0433296 

-0.127747 0.193515 0.706581 
0.212996 0.00604438 -0.629249 
-0.000364049 -0.0141636 -0.0215015 

-0.287535 0.0328759 -0.108828 
0.0231593 0.235824 0.0699287 
-0.0337956 -0.0118653 0.191604 

-0.0869912 -0.0926543 -0.194797 
0.00542458 0.0774395 1.41711 
-0.00429673 -0.0186529 0.122912 

-0.0352476 0.0864163 0.248829 
-0.253258 0.0789935 0.817049 
-0.00194355 0.00528489 0.0565407 

0.0247075 -0.350975 0.108348 
-0.0266624 -0.0366604 -0.480875 
0.0118502 -0.00811056 -0.0667994 

-0.0732618 -0.0509894 -0.0865213 
0.0330726 -0.000877667 0.104388 
-8.69868e-05 6.06655e-05 0.00467059 

-0.00117502 0.0113743 0.118641 
-0.0458218 -0.0185887 -0.0756266 
0.00240418 -0.00144089 -0.0194778 

-0.0366531 -0.0175609 0.162463 
0.0984164 0.0622904 0.0392812 
-0.0161135 0.0145687 0.0279918 

-0.348582 -0.198833 0.389416 
0.265597 0.365621 -0.206413 
-0.00582168 0.0150464 0.0721076 

-0.0465272 0.0923337 2.56417 
-0.038494 0.130198 -3.34044 
0.00266338 0.0114461 0.399557 

-0.0576761 0.0031817 0.748286 
0.00235219 0.0496458 -1.19779 
0.0164603 0.0158668 0.310238 

0.0554694 -0.18157 0.311901 
0.143076 -0.0837931 -0.183815 
-0.00713324 0.0115792 -0.0540727 

0.0538181 0.221645 -0.0847643 
-0.222435 -0.0615068 -0.0712867 
0.00488753 -0.00326078 0.0545833 

-0.0127332 -0.01442 0.117097 
0.0116834 0.0257803 -0.137897 
0.000509806 -0.00248007 -0.00161474 

0.0527866 -0.0776447 -0.311976 
0.0041849 -0.0816969 0.563621 
0.0110121 -0.00409916 -0.0217041 

-0.0234668 -0.0258912 0.0644584 
-0.0175204 0.00967441 0.07564 
0.0108489 0.0402718 0.119547 

-0.102497 0.119838 -2.2333 
-0.123066 0.0909805 0.918598 
0.00931731 0.013897 0.109333 

-0.152965 0.029855 0.317218 
-0.119268 0.0776461 -0.141074 
-0.0134864 -0.00124547 0.114531 

-0.0399118 0.0800317 -0.749449 
0.0265566 0.0284943 -0.228065 
-0.00363295 0.00766594 -0.0609627 

-0.0108602 -0.0167362 -0.0399458 
0.0313566 0.0143101 0.137009 
0.000632982 -0.0107424 0.744415 

-0.0101165 0.0300847 -0.0217227 
0.0184052 0.0107484 -0.0475173 
0.000937243 -0.00094598 0.0153228 

-0.0832644 -0.0190335 -1.55868 
0.000299946 0.0759163 -0.875662 
-0.0255408 -0.015871 -0.18449 

-0.187164 -0.0143867 2.69233 
-0.114935 0.217211 0.740399 
-0.00515679 -0.00806259 -0.258127 

-0.0179798 0.0102766 1.03111 
0.00151872 0.0370237 -0.190342 
0.00464588 -0.0019814 -0.0550174 

0.0949711 -0.303333 -0.995826 
-0.113075 -0.0897191 0.916907 
0.00726034 0.0663177 -0.490543 

-0.028981 0.00962847 -0.0625069 
0.0152859 -0.00867297 0.0844705 
-0.0094918 -0.0204804 0.0914879 

0.0258944 -0.0877479 -10.6367 
0.00726652 -0.135736 -29.0369 
-0.00231262 0.0173307 2.1372 

-0.0589514 0.050808 -0.104404 
0.0193575 0.0707186 -0.0720154 
0.00655799 -0.0103209 0.0674477 

-0.0525245 -0.0714667 1.0362 
0.0385043 -0.0823573 0.777097 
-0.00277343 -0.00386923 0.0546792 

-0.019519 -0.0914001 -0.647232 
0.0800161 -0.0109498 -3.63854 
-0.00137633 -0.000318267 0.272955 

0.00687674 -0.197442 0.407957 
0.0901 0.00852466 -0.395876 
0.00349917 -0.00243228 0.0659589 

0.00503136 -0.12287 -0.0610125 
0.0076504 0.0249902 -0.0784978 
0.0924227 0.0154047 0.113885 

-0.023242 0.0736008 0.102688 
0.0040483 0.00540587 -0.0957447 
-0.00142591 -0.0273649 0.0425935 

-0.0310098 0.160525 0.00607095 
0.0303066 0.00904602 0.0759986 
0.000166049 -0.0172954 0.0546989 

-0.0629289 -0.00339912 0.323208 
0.0231982 0.0572586 -0.675318 
0.0261839 -0.0473679 0.526825 

-0.0164221 -0.00594265 -0.0718252 
0.00568347 -0.00404972 -0.0521912 
0.00192823 -0.000975373 0.0131462 

-0.171935 0.00646632 -0.143542 
-0.00918456 0.117433 -0.365906 
0.0038978 0.0634906 0.319735 

-0.191261 0.216114 0.695108 
-0.340459 0.194021 0.151415 
-0.00177781 0.000696632 0.0163497 

-0.0203747 0.0675362 -0.0308211 
-0.0461093 0.0165792 -0.0926318 
-0.0025526 -0.00229871 0.00965641 

-0.0809323 -0.160647 -1.94039 
0.0849218 0.039511 0.637789 
0.00113433 0.00482713 0.184794 

0.0141786 -0.163134 -0.10628 
0.0191489 0.00167167 0.255105 
0.00365446 -0.00282704 0.25834 

-0.154811 0.0875727 -3.82623 
0.0163775 0.0700729 0.536211 
0.00311158 -0.00147082 0.184403 

-0.014294 -0.012246 -0.0072883 
-0.0522153 -0.0230668 0.0753652 
0.00157148 0.00415554 0.164047 

-0.00629131 -0.00824963 0.00130835 
0.00402597 -0.00378134 -0.00814895 
-0.000174315 -0.000438439 0.0202008 

-0.0433247 -0.115088 1.65283 
-0.0348453 0.0390172 1.5784 
0.00105643 -0.0123746 -0.428367 

0.0503818 -0.0233941 0.115209 
-0.0147126 -0.0353221 -0.0264901 
-0.0461216 -0.0184114 0.197669 

-0.00203481 -0.0314299 -0.112666 
0.0374688 0.0156035 -0.471976 
0.000583918 -0.00139801 0.0398369 

0.00348783 -0.00190833 0.0393596 
-0.0240332 -0.0463808 0.0104743 
0.00953884 0.0179274 0.00390133 

-0.227395 0.0213425 -0.135976 
-0.084344 0.200638 -1.00077 
-0.0208779 -0.0302103 0.39333 

-0.01809 -0.018369 -0.00855193 
0.0112069 -0.0128543 1.25511 
0.00118004 -0.00288445 0.124924 

0.055396 -0.112998 -0.282028 
-0.176655 -0.0709923 -0.0982999 
-0.000898891 0.00470949 0.0338123 

-0.00888779 0.0824376 0.0482666 
-0.106195 -0.0113557 0.0830572 
-0.018959 7.06235e-05 0.621474 

-0.0107079 -0.0184154 -0.11729 
-0.0525371 -0.00272347 0.0282023 
0.000359572 -0.000894615 0.00117697 

0.0298626 0.0569243 0.140466 
-0.00913665 -0.0399186 -0.00391036 
0.018947 0.00244337 0.00973152 

-0.0405017 0.0323498 0.603305 
0.0518387 0.0352196 -0.611729 
0.00297419 -0.000467041 0.0679576 

-0.0153531 -0.0151582 -0.251746 
-0.0111318 0.0151819 0.0773637 
0.00108276 -0.0109363 0.158314 

-0.0649128 -0.103844 0.0529975 
0.0113912 0.0358966 0.0769892 
0.000878394 -0.000758288 -0.00475443 

-0.127085 -0.117812 0.0709726 
0.14734 0.106119 0.241123 
0.00108104 -0.00890056 0.0835799 

-0.108593 0.134275 0.325807 
-0.161595 0.212862 -3.93011 
0.00201073 0.0251239 -0.336314 

-0.224277 -0.00757891 -0.293409 
-0.161027 0.153713 -0.657136 
0.0073342 0.00369469 0.00664169 

-0.121081 0.16004 -1.01008 
-0.130629 0.200418 0.212947 
0.0290179 0.00211785 0.00111659 

-0.579091 0.316294 -2.46526 
0.405896 0.0180224 0.659039 
0.0418625 -0.0332696 0.765803 

0.0275237 -0.0720249 0.475463 
-0.0127515 -0.0405363 0.0578861 
-6.61134e-05 0.000692529 -0.000944766 

-0.0234286 -0.113178 0.173268 
0.0986589 0.0426 -0.0081994 
0.0160252 0.0303485 -0.106884 

0.0983009 -0.23446 -0.366227 
0.306996 0.0195871 -0.581784 
-0.000421433 -0.027153 0.0281462 

0.139055 0.308726 -0.0733124 
-0.0185347 -0.148847 -0.708377 
0.0335434 -0.022989 0.0351572 

-0.1785 0.145404 0.421936 
0.0439697 0.109653 -0.358673 
0.000986052 0.000429343 0.0180519 

0.0291734 0.0491181 0.0116746 
-0.0226903 -0.0270066 -0.180371 
0.00041828 0.00135384 -0.0410264 

-0.264893 -0.0252153 -0.19325 
0.0294127 0.302075 -0.519869 
0.0026541 0.00772833 -0.0499103 

-0.111248 -0.0392837 0.145992 
0.0693096 0.0209314 -0.0826651 
-0.00194042 0.00136085 0.00409058 

-0.0193348 -0.0194675 -0.0614347 