# vtk DataFile Version 3.0
Output file generated by Yade's KinematicLocalisationAnalyser
ASCII
DATASET UNSTRUCTURED_GRID

POINTS 13483 float
382.985 54.5792 -0.450145
484.204 90.7374 -0.459303
84.9844 6.85726 0.620816
506.759 28.6715 -0.251694
334.155 12.2272 -0.359499
223.293 53.1995 -0.469791
111.562 7.08529 -0.496529
381.789 10.6604 0.140928
332.529 39.8929 -0.174389
462.062 26.058 0.538023
156.14 10.2773 -0.101685
189.066 6.63619 0.33745
415.162 63.8145 0.0538637
407.935 38.3678 0.108168
100.068 23.9688 -0.501165
158.941 48.3613 0.39934
162.551 15.2173 -0.271155
208.536 18.3673 0.440274
236.4 54.1835 -0.440329
348.217 12.4218 0.414123
277.255 56.403 0.096079
366.927 75.3684 0.272617
510.861 67.6819 -0.48366
435.738 80.3689 0.462922
310.776 32.9781 0.326399
170.648 59.8509 -0.141736
327.062 46.5713 -0.501819
385.328 28.4128 0.281866
36.6868 20.3431 -0.515364
451.972 63.4419 0.335464
323.176 6.13076 0.640931
13.8645 26.0303 0.332244
490.496 88.8857 -0.238766
334.125 2.50383 0.454784
60.0516 60.3475 0.109042
341.817 45.9332 0.339789
353.099 23.2242 -0.442274
240.755 36.5775 -0.171794
354.556 36.855 0.411097
239.448 58.4777 -0.404217
179.394 17.5954 -0.379255
290.698 53.3897 0.0658425
434.897 9.56993 0.164607
140.332 6.69097 0.408779
46.2319 7.57375 0.126894
51.5479 16.5538 -0.302331
445.993 10.1407 -0.599771
20.7289 12.6327 -0.402612
380.631 79.3214 -0.0645068
432.111 43.7923 0.350918
132.14 43.1926 0.297005
478.852 63.5409 0.120602
25.2625 36.1956 0.128801
352.895 5.91316 0.359596
102.659 11.5165 0.562804
372.778 61.5788 0.371653
334.708 44.6675 -0.155963
128.01 0.997744 -0.315814
26.9491 2.36918 -0.367151
244.485 26.4588 0.264261
386.257 75.2512 -0.15672
305.588 56.7346 0.189682
273.507 0.968051 0.203144
452.638 9.85635 -0.337572
13.478 54.0702 0.242813
184.885 47.2082 0.305841
464.869 20.2431 -0.259295
421.506 87.849 0.344271
289.298 10.6911 -0.638504
382.993 4.00392 -0.670174
472.375 53.343 -0.431515
94.8328 8.70183 -0.457937
332.603 44.9532 0.165089
321.256 22.9262 -0.101502
213.556 25.4174 -0.412782
18.0212 14.6591 -0.319834
493.469 68.4336 0.325973
230.432 61.9439 -0.283722
436.197 36.5142 -0.407756
445.048 22.2142 0.282148
507.9 19.9643 0.19963
307.682 57.1366 0.165805
74.9237 52.7763 -0.25789
433.466 68.0726 -0.22307
408.183 74.9533 0.0948215
511.905 78.3496 -0.101977
507.912 0.631747 0.687874
209.852 38.6959 -0.43274
412.391 19.0897 0.166078
21.618 7.23572 0.632755
104.081 55.8981 -0.137941
342.459 22.3793 0.263419
492.491 52.423 0.489705
145.816 34.0792 -0.24257
30.4896 47.4814 -0.263395
333.423 0.883858 0.434943
176.576 10.9569 -0.445881
467.655 80.5936 0.249436
486.582 47.3799 -0.26194
251.491 37.7607 0.317446
123.533 35.7018 -0.477461
349.207 69.8863 0.393051
264.543 28.1066 -0.497974
281.029 42.0503 0.112644
263.666 15.6045 0.610562
366.177 12.407 0.0979414
512.042 35.2228 -0.192747
63.1988 54.8374 0.384709
239.88 5.72642 -0.305298
376.627 9.02464 -0.458248
250.642 73.5964 -0.446236
20.126 29.5572 0.503669
26.1296 6.98029 0.321207
367.352 44.5214 0.485752
333.497 35.7857 0.175455
15.9468 47.9436 -0.433421
72.7787 44.9197 0.223994
234.232 21.1428 -0.347195
391.383 32.8018 0.139628
314.992 66.6824 0.308264
469.667 7.86883 0.522321
465.213 11.6227 0.192343
269.854 60.0458 -0.100091
408.031 55.0496 0.116107
176.651 24.5945 -0.506759
237.206 4.04988 0.612855
80.4789 44.7256 -0.322457
86.389 32.7074 0.26295
348.935 63.8523 -0.0732309
220.526 23.1778 0.567882
449.903 70.8429 -0.101481
426.35 85.7551 -0.105354
324.015 34.1941 -0.417285
498.078 18.8982 -0.304507
290.937 36.4707 0.223418
200.901 40.5271 -0.303008
426.794 59.9227 0.324943
204.531 45.9547 0.420539
389.532 13.8781 0.216138
231.209 60.103 0.194914
337.183 20.2617 0.493811
254.038 58.8881 0.0818341
291.958 28.1015 -0.0996941
219.547 72.0934 -0.439493
142.538 34.1769 -0.138307
486.876 96.4087 -0.15033
508.629 39.5149 0.286629
5.8691 12.859 -0.531866
295.45 36.2758 -0.439391
29.517 30.5 0.0963627
261.509 53.3558 -0.474201
272.053 36.2538 -0.296792
56.9818 21.4207 -0.503714
37.7079 45.4688 -0.462373
170.756 17.3908 0.504068
391.799 72.6715 0.395981
382.952 31.2099 -0.477506
56.6514 31.258 -0.518746
440.097 79.1945 0.183933
490.052 2.02004 0.617731
413.439 85.9519 0.459815
450.967 1.67058 0.636674
362.487 40.5072 -0.548659
366.27 77.0382 0.448142
342.766 27.3706 -0.429245
514.614 17.8257 -0.287415
163.083 33.9122 0.104803
100.391 53.2038 0.188532
184.47 7.36251 0.590042
67.2867 9.13713 0.205947
47.9348 15.2855 0.185881
202.226 53.0703 -0.293853
14.6835 27.4679 -0.41063
371.165 26.0769 0.440487
375.567 77.4651 -0.187262
315.326 41.7704 -0.409628
501.733 80.9642 -0.346681
282.444 10.4643 -0.123762
295.329 59.9859 -0.407976
359.583 3.26607 -0.261049
20.1973 25.2846 -0.421916
393.487 5.42376 0.566796
367.109 4.17334 0.472365
154.956 12.5343 -0.653826
295.854 19.8632 -0.226
224.307 7.23275 0.426315
268.731 33.9444 -0.392127
463.413 85.2935 0.0983321
145.847 29.3693 -0.452348
502.489 9.90884 -0.477127
462.887 76.3504 0.316721
269.663 17.8889 0.195047
462.663 10.6008 0.651578
388.11 50.2102 -0.454808
477.02 30.0916 0.436996
287.895 69.0295 -0.271741
331.677 21.6564 0.412166
307.651 70.6622 -0.232113
308.684 23.2676 0.1738
419.05 82.1886 0.259972
419.498 76.5857 0.309404
145.018 53.002 -0.347097
505.059 21.9776 0.150702
365.063 78.1904 -0.260767
8.59716 20.0735 0.186005
280.957 33.0472 0.380245
139.881 27.427 -0.493073
75.1472 54.6531 0.2055
492.147 48.2076 -0.446818
410.244 88.7777 -0.17173
230.729 37.8922 0.40588
356.72 11.0385 0.463236
65.1678 61.6941 -0.164086
179.69 38.1284 0.467429
369.609 30.7257 0.445413
328.419 37.4218 0.41965
195.331 0.922735 -0.350397
352.336 67.7477 -0.372167
344.763 75.0763 -0.43022
315.757 71.6232 0.38791
338.977 7.4876 -0.522398
451.918 34.9656 0.418672
131.117 16.604 -0.207732
335.698 57.3404 -0.407323
356.374 70.7097 -0.11305
57.1719 0.919657 0.348023
188.157 4.54002 0.24801
508.789 41.5008 -0.163926
505.325 25.8842 -0.424015
513.959 44.3682 0.620196
217.173 9.60672 -0.307915
475.218 38.9414 0.605384
286.599 76.6432 0.308931
308.483 2.54759 0.561763
413.721 72.5 0.442951
19.0518 38.9307 0.295154
232.185 73.845 -0.471511
189.874 3.73319 0.701445
492.216 80.2285 0.174475
445.647 91.5102 -0.220009
209.563 19.8106 -0.191732
424.172 65.1719 -0.079756
378.359 2.48259 0.313514
365.501 6.93177 0.632048
74.8016 22.77 -0.561089
218.415 1.01198 -0.229113
247.904 3.00736 0.47014
12.2939 7.95794 0.679303
4.78168 35.5964 0.274445
119.453 23.9062 -0.339263
51.59 58.0456 -0.210393
50.1603 40.9293 -0.309498
297.035 18.4698 -0.39034
257.643 62.9169 -0.484939
476.654 64.1465 -0.12667
17.8296 5.0901 -0.278413
53.4593 15.8187 0.138112
395.515 74.6936 0.128757
210.172 0.884057 0.486281
256.038 27.7954 -0.0897735
178.129 6.69283 -0.520573
423.943 45.8643 0.172491
312.63 16.7121 0.523944
479.044 33.3396 0.390336
404.733 57.5575 -0.331772
436.909 32.501 -0.122683
287.613 38.9248 0.524444
83.3256 60.656 -0.313548
341.618 80.7594 0.067619
475.976 24.5003 -0.235392
174.089 45.5411 0.254272
27.7779 19.7429 0.18539
242.421 15.9257 0.522538
88.2769 55.6359 -0.404052
195.288 60.4895 0.181259
300.863 1.00552 0.230281
491.735 65.1687 -0.40326
444.4 1.99428 0.718991
240.749 4.13047 0.502321
220.828 38.4378 0.144531
308.174 68.6358 -0.215123
60.03 11.5549 -0.533571
148.594 62.4479 0.377255
488.978 56.3981 0.363355
329.689 68.3182 -0.022072
145.907 59.0229 0.265626
126.818 50.9375 0.397639
515.528 67.1717 0.413501
510.713 34.0632 0.499875
414.607 10.4642 -0.674492
143.942 29.233 -0.12899
364.019 42.2623 -0.109345
365.142 40.531 0.345156
286.799 7.75115 -0.282721
329.631 0.956724 -0.325774
475.847 67.648 0.499988
65.2918 45.5271 0.218886
430.668 38.5545 0.44652
198.479 25.0294 -0.45395
8.84025 2.29071 -0.44424
100.576 55.3075 -0.18024
50.7429 34.5341 -0.487038
446.563 62.817 0.34153
495.769 95.9968 -0.161208
138.92 32.45 0.200108
505.37 35.4091 -0.321584
31.8123 50.2815 -0.248522
71.7476 43.2708 0.149894
413.915 37.5305 0.501108
290.503 18.1644 -0.610178
349.595 24.1702 0.110882
174.07 43.5982 -0.214682
411.267 23.6829 0.56977
513.659 33.9897 -0.359043
21.3197 42.1567 -0.275505
197.224 15.5389 0.22294
167.936 19.0562 -0.240407
1.08514 42.7143 -0.147346
171.378 18.344 -0.512036
159.927 13.4319 -0.147337
160.561 30.6597 0.335101
102.639 39.887 -0.140512
370.6 16.2922 0.451159
123.256 16.3195 0.445699
488.999 87.4615 -0.217811
129.055 4.14465 0.521173
33.69 51.2768 -0.347348
469.675 94.7038 -0.457616
208.291 48.1891 0.394934
437.219 43.7046 0.540778
498.663 65.176 -0.506835
215.277 10.1514 0.153926
464.092 58.6813 0.362744
238.789 2.37363 -0.510206
285.751 31.5547 0.454212
436.189 21.0201 0.613875
78.9396 14.5399 0.50149
331.175 4.01655 -0.55116
482.168 30.7651 -0.19894
65.5449 8.37958 -0.307574
206.239 24.4561 0.245683
296.199 15.1205 -0.267218
515.48 16.2349 -0.560392
278.189 1.85683 -0.6278
132.358 60.7015 -0.26178
475.698 10.2566 0.370475
103.167 51.9381 0.181979
191.842 48.7384 -0.383338
280.186 25.5754 0.260827
389.785 15.7429 -0.385746
270.53 12.3445 0.647088
311.422 49.8678 -0.499686
484.132 92.0351 0.36453
39.2573 13.2221 0.0921641
217.082 53.4559 -0.287171
262.149 44.0755 -0.414006
286.909 23.1639 0.316048
339.773 74.4066 -0.359687
472.33 69.393 -0.198428
422.195 75.6848 -0.354882
165.399 46.4488 0.438401
10.3899 36.5819 -0.156617
417.496 79.3047 0.124151
329.854 80.1743 -0.433553
166.381 53.2209 0.091782
436.79 59.9202 0.128107
110.682 10.8236 0.21049
254.826 37.6393 -0.27858
309.684 71.3802 -0.0979091
290.132 21.9784 0.203895
481.524 88.2431 0.293133
301.919 5.42725 0.63545
36.1368 37.6758 0.294992
319.936 57.9776 0.367677
290.594 72.3156 0.371922
487.84 75.0497 -0.22052
460.757 63.4826 -0.241617
365.825 20.4046 -0.198207
483.982 74.9869 -0.409553
210.192 2.09176 -0.484931
263.696 46.7264 -0.479027
16.6716 49.4363 0.293428
465.379 57.1811 0.130412
394.192 41.6333 -0.533109
314.298 0.759299 -0.701831
92.7992 5.60228 -0.388257
291.517 61.6421 -0.09435
11.0501 0.868896 0.347224
513.892 14.5737 -0.0929114
263.42 67.7153 0.40149
409.242 19.5955 0.46582
[...]
POINT_DATA 13483
TENSORS Strain_matrix float
-0.00910862 -0.0524939 -0.0697964 
-0.00049186 0.0227016 -0.0410516 
-0.00157893 0.000489559 -0.0330687 

0.0221233 0.0274079 -1.01142 
-0.0166042 0.00181468 -1.94936 
-0.00486978 -0.0024933 0.11294 

-0.157056 0.0588387 -0.389534 
0.0357922 0.120724 0.577921 
0.0163553 0.000400281 -0.273152 

-0.00549189 0.0249484 0.0255667 
-0.00720411 -0.00820209 -0.0111599 
-0.000951208 -0.00604084 0.0293375 

-0.096741 -0.0148127 0.0294356 
0.288708 0.0460748 -0.0438588 
0.000976235 -0.0161127 0.067612 

-0.200772 0.132756 -1.617 
-0.280457 0.133169 -0.0633726 
0.000957072 0.00149954 0.118365 

-0.055611 0.0694509 -0.0361259 
-0.0793096 0.0408173 -0.178594 
-0.0328027 -0.0229919 -0.104469 

-0.00145931 -0.00407792 -0.0137449 
-0.00800007 -0.0143423 -0.0246899 
0.000260533 0.00278083 0.026032 

-0.212184 0.2339 -0.677978 
-0.265748 0.248494 -0.265158 
0.0173751 0.0372228 0.133303 

-0.0235866 -0.028223 -0.0519021 
0.0425651 0.00612161 0.0467536 
0.00108268 0.00275568 0.0141796 

-0.0565669 0.163842 0.170197 
-0.0235398 0.0778234 -0.161374 
0.00242892 -0.0232282 0.10056 

-0.244508 -0.272309 0.155674 
-0.111958 0.0338241 -0.133163 
-0.0129554 -0.004684 0.139929 

0.117539 -0.16141 -0.207194 
-0.0277911 -0.186022 0.262822 
-0.0804592 0.05315 0.406508 

-0.0559861 0.141712 -0.59496 
-0.111879 0.00591962 -0.27182 
-0.00309077 0.00103569 0.0375532 

-0.218366 0.381209 -1.97379 
-0.287682 0.17324 0.997808 
-0.0197778 -0.00735484 0.0198378 

-0.116022 -0.0558935 3.26768 
0.0150768 0.0938866 -0.0376649 
-0.00909808 -0.010084 -0.0592229 

-0.067999 0.0396635 0.13897 
-0.0968669 0.0851221 0.236083 
0.0089472 0.00575929 0.0999975 

-0.225631 0.122503 -2.00855 
-0.400279 0.220667 -0.450196 
0.0350722 -0.0388151 0.318164 

-0.151362 0.030948 -8.7824 
-0.0187954 0.148286 5.03566 
-0.0010351 -3.31781e-07 0.023902 

-0.000389055 0.0701171 0.279767 
-0.0933801 0.111015 0.0588046 
-0.00572081 -0.00334668 -0.0447713 

0.0709837 0.257616 -0.0322377 
-0.156689 -0.0694173 0.467467 
-0.00832831 0.000640156 0.0374317 

-0.0205047 -0.00399163 -0.134267 
-0.0299641 0.0164455 0.0157337 
-0.000805677 -0.000978059 -0.0346655 

-0.00372623 0.00121942 -0.0229687 
-0.0028716 0.00502229 -0.027476 
0.00011931 4.24751e-05 -0.00895326 

-0.0385328 -0.0178829 -3.31076 
0.0350549 0.0559896 3.50076 
0.00898683 -0.0126606 0.0471382 

-0.0415964 -0.032038 -0.405786 
0.00904762 0.0301722 0.353342 
0.00392012 0.016385 -0.00126251 

0.0138949 -0.080805 -0.0245375 
0.0675749 -0.00418668 0.0285865 
0.00252102 -0.00962113 -0.0322588 

-0.00503654 0.0112494 -0.168952 
-0.00190299 0.0103669 1.33281 
-0.0051468 0.000108525 0.059542 

-0.0870241 0.239961 0.314557 
0.00908118 0.0583789 0.0490611 
0.0497822 0.00326399 0.0992713 

-0.186037 -0.162374 0.950848 
0.214904 0.135987 -0.0741238 
0.0100491 0.00730838 0.200325 

0.0322673 -0.0545056 0.0680961 
0.187636 0.0427547 -0.0365877 
0.00221333 0.00196894 -0.030682 

0.018877 0.00905282 0.183941 
-0.0308477 -0.0181112 0.265299 
-0.0032276 -0.00666203 -0.0514678 

0.0309796 -0.0742127 -0.0355624 
0.0602526 -0.00976657 0.0959226 
-0.00262506 -0.00265735 0.0350048 

-0.0157655 0.0129548 -0.0667253 
0.0231901 0.00321029 -0.0140365 
0.000751573 0.000403324 0.00972636 

-0.00602435 0.00099273 -0.00940797 
0.0156636 0.0237999 -0.221748 
0.00316347 -0.000529027 0.00464122 

-0.111801 0.00997554 -0.300835 
0.0141899 0.0853131 0.41245 
0.0198068 -0.0745855 0.169584 

-0.180641 0.0190526 0.500414 
-0.168327 0.13608 -0.502237 
-0.0222013 -0.0177574 -0.0103244 

-0.0963746 -0.069786 0.0948207 
-0.122963 0.12383 -0.160425 
-0.014731 -0.0160671 0.0504898 

-0.169194 -0.131618 0.211188 
-0.231644 0.0430149 -0.758333 
-0.00213515 -0.00125238 0.00163013 

-0.0120665 -0.130238 -0.339042 
0.00273778 0.0229613 -0.26613 
-0.0383546 0.00407372 0.00611939 

-0.0726398 -0.064589 -0.617681 
-0.00943124 0.0831939 1.53624 
-0.0071166 -0.00208705 1.30683 

-0.0888534 -0.382862 0.186483 
0.317243 0.0368081 -0.516868 
-0.0412087 -0.0242868 0.3577 

-0.0270506 0.130796 -0.217291 
-0.0815526 0.0167738 0.256607 
0.00510853 0.00131835 0.0177828 

-0.0150258 -0.00961124 0.00997573 
-0.003097 0.00360154 -0.00161348 
-0.00280062 0.000752789 0.0138233 

-0.0112614 0.0626583 0.0119662 
-0.173414 0.0225321 -0.0308823 
-0.00408626 -0.00829656 -0.00390755 

-0.0235293 -0.103709 -0.103424 
0.112993 -0.0226209 0.0744125 
0.0209663 0.00766354 0.0725442 

-0.0722056 -0.0410567 -0.753859 
0.288079 0.166679 0.680332 
0.00446667 -0.0373089 0.100686 

-0.0126506 -0.0158501 0.0281279 
0.00446226 0.00277289 0.0217684 
-0.00160755 -0.000922522 0.0159546 

-0.126635 -0.16718 -0.0904465 
-0.0252454 0.0335984 -0.270523 
0.000283293 -0.0113966 0.0629885 

0.0594854 0.163078 -0.00168729 
-0.181591 0.00154043 -0.155923 
0.0130339 -0.0398393 0.403353 

-0.0177435 -0.0343314 -0.192299 
0.016025 0.00761386 -0.0843165 
-0.00917325 -0.00694125 -0.034115 

-0.226679 -0.148211 0.190663 
-0.0194621 0.196573 -1.01245 
0.00222393 0.00146577 0.0352938 

0.000253273 -0.00746806 0.00502753 
0.00575066 0.000710086 0.0199547 
0.000223784 -1.67233e-05 -0.0104107 

-0.0867412 -0.137986 -0.207322 
0.101582 0.103256 -0.229137 
-0.00429958 0.00152759 0.050627 

-0.0199992 0.193276 -0.0544426 
-0.0611174 0.0132132 0.0394833 
-0.00746448 -0.0083153 0.00550967 

-0.0335457 0.00480095 0.25882 
-0.0284644 0.0572933 1.28904 
-0.00217984 0.0018837 -0.0194513 

-0.0237706 0.101544 -1.20361 
-0.0209271 0.021557 -0.663306 
-0.00937182 0.000318863 0.0736961 

-0.0217285 0.0571462 0.0702925 
-0.0864026 0.0430755 0.173901 
-0.000466401 0.00168955 -0.05409 

-0.0215398 0.0903256 -0.0231764 
-0.000762182 0.00287877 -0.0221706 
-0.0138498 -0.0090834 0.0918447 

-0.0971221 0.0198507 -0.242038 
0.0388205 0.0830395 0.0444461 
-0.00209034 -0.000386326 0.0611336 

-0.0443545 0.0450621 -0.00242909 
-0.0205635 0.00760377 0.121505 
0.00476958 0.0056162 0.0286092 

-0.178408 0.02248 -0.52951 
-0.00945188 0.0976486 0.602133 
0.0048762 -0.00570823 -0.0380611 

-0.00188822 -0.152779 0.154046 
0.129361 0.0286182 0.305592 
0.0257672 0.0118312 0.185109 

0.00178945 -0.0684111 -0.0434278 
-0.00119888 0.263543 0.291547 
-0.00160979 -0.0118606 0.00777735 

-0.0101894 -0.0103699 -0.00149537 
0.0155119 6.20175e-05 -0.0328387 
-0.00101133 0.00155129 0.020357 

0.0814848 0.251955 0.10357 
-0.630058 0.172228 0.94368 
-0.00621833 0.00878601 0.284451 

-0.0485735 0.00571674 -0.0325445 
-0.017811 -0.0448314 -0.312073 
-0.0137716 -0.0130545 0.030406 

-0.0107817 -0.0351003 -0.0207002 
0.041815 0.0162994 -0.0104936 
-0.000764265 -0.00351632 -0.00751338 

0.00681785 -0.0332443 0.0158049 
0.0867183 -0.00917788 0.0588411 
0.0122626 -0.00667984 -0.0329416 

-0.020385 -0.0735663 0.982712 
-0.00782027 0.0484936 0.594794 
0.00674092 -0.012655 0.210674 

0.00341749 0.00322025 -0.263829 
-0.00797709 -0.00857881 -0.35776 
0.000435422 -0.000388867 -0.0373752 

0.00260576 -0.0273399 -0.0379431 
0.00541254 -0.00102931 -0.0606809 
0.000809496 0.000535825 -0.0115531 

-0.0287319 -0.0801194 0.00942486 
0.0898667 0.0679668 0.000593888 
-0.0057434 -0.00163292 -0.0363189 

0.0258478 0.0179782 0.0862378 
0.0228212 -0.00208376 0.0403664 
-0.00281097 -0.001867 -0.0348174 

-0.0128304 -0.0879348 -0.125894 
0.148065 -0.0038698 0.0581012 
0.00296678 -0.00344915 0.000810614 

-0.242407 0.223578 -0.210307 
-0.360353 0.240242 0.218492 
0.00628464 0.0122027 0.0474512 

-0.127231 -0.212315 -0.118649 
-0.0420719 0.105048 0.110353 
-0.00781353 0.00642502 -0.00608476 

0.00125662 0.00101965 -0.00872188 
0.00630519 -0.00507432 -0.00152138 
0.000120636 0.000244198 -0.00274679 

-0.0974069 -0.0785003 -0.396121 
0.202943 0.0649984 -0.217219 
0.0152702 -0.044212 -0.110967 

0.00643433 -0.00679677 -0.0924433 
-0.0113216 0.0411056 0.0194589 
0.00653601 0.00557356 -0.0814518 

-0.0165922 -0.0104132 0.0260869 
0.000304817 -0.0135069 -0.0637953 
-0.00472877 0.00409889 0.0531205 

-0.315939 -0.348122 -0.476222 
-0.189467 0.24076 -0.573116 
-0.00261238 0.00685544 -0.243828 

0.0123811 -0.165226 -0.0122933 
0.13606 0.0210044 -0.0641776 
-0.00117833 0.000305307 0.00851572 

-0.0288461 -0.162189 -0.593029 
0.280615 0.0685027 -0.502401 
-0.00159759 -0.000393697 0.00173513 

0.0222071 -0.149453 -0.0135114 
0.124323 0.00336885 -0.00967292 
0.00195171 -0.000113754 -0.00111289 

-0.00292781 -0.0105805 0.232746 
0.0496177 0.0572482 0.263168 
0.0221568 -0.0370456 0.123631 

0.0202427 -0.0343885 -0.0575712 
0.00109276 -0.0157813 -0.0742634 
0.000698641 0.000122423 -0.00932452 

-0.0894282 0.0877121 1.65322 
-0.0266969 -0.0292003 -0.0855035 
0.00327175 0.00646669 0.176256 

-0.126259 0.0456682 -0.287035 
-0.0980969 0.170783 0.361705 
-0.00586803 0.00436812 0.0731891 

-0.0480474 -0.0419636 -0.0977134 
0.0682516 -0.0146066 0.0518896 
0.00628768 -0.00395748 0.0797573 

-0.0654767 0.0456152 0.513991 
-0.0235433 0.00980237 2.15455 
-0.00171808 0.0279592 0.319776 

-0.00240759 0.392007 -0.210894 
-0.00632978 -0.0424913 0.107516 
0.0233492 -0.00582916 0.0561949 

0.0750897 -0.125632 -0.0675826 
0.0470857 -0.0455117 -0.0964905 
0.00462387 -0.00232733 -0.101417 

0.0141674 -0.0148369 0.101925 
0.0164159 -0.00102668 -0.2616 
0.000323626 0.00151072 -0.0473325 

-0.16099 0.0683564 0.765562 
0.166488 0.108147 -0.870693 
0.0112067 0.000285581 0.153254 

-0.00230145 -0.0699227 -0.603384 
0.100381 -0.0283141 1.31753 
-0.0302878 0.00199233 -0.237608 

4.51874e-06 -0.0979675 0.257733 
0.0030901 0.0619352 0.0577978 
-0.00430236 -0.323602 0.0180632 

0.0283601 -0.147224 0.258 
0.153124 0.04375 -0.517376 
0.00737579 -0.0228834 0.111911 

-0.00334105 0.0304654 0.265527 
-0.016841 0.015557 0.159461 
0.000118022 4.09596e-05 -0.0133613 

-0.00412894 -0.0181195 0.127888 
0.00474583 0.000149106 0.0662218 
0.000275092 0.000388707 -0.00700085 

-0.0882635 -0.0456173 0.454246 
-0.0518087 0.0613136 -0.0718929 
-0.00316084 0.00833239 -0.00621381 

-0.0295399 0.131379 0.996547 
-0.040867 0.0228769 0.298859 
-0.00420522 0.000918237 0.165638 

-0.10237 0.310725 0.756442 
-0.206165 0.164684 0.0909547 
0.0390561 0.00794657 0.0196371 

-0.0699771 -0.230677 0.240018 
0.164016 0.0425463 -1.37401 
0.0112085 -0.00238713 0.148425 

0.0332473 0.039788 -0.0377558 
-0.133932 0.0585367 0.119799 
-0.0196806 0.00430796 0.111993 

-0.0112332 0.0246746 -1.41705 
-0.0361605 -0.0261648 0.591753 
-0.000580322 0.000123363 0.235572 

-0.0707928 0.026121 0.10525 
-0.00954621 0.105524 -0.0995383 
-0.00298892 -0.00556334 -0.0876467 

-0.0244455 0.000932072 -0.0118096 
0.00449468 0.0165998 0.00292099 
-0.000644951 0.00154875 0.000456177 

-0.00137675 -0.0190071 0.036801 
0.00262856 0.0327167 1.35961 
-0.0039383 0.0164172 0.245919 

-0.0521151 -0.00473152 0.0310379 
-0.00487572 -0.00060808 0.00629991 
0.000277559 -0.00184434 0.0402986 

-0.000698283 0.00588237 -0.113458 
-0.00521675 0.00150733 -0.227361 
-0.00015144 -0.00125143 0.0153698 

0.0242585 -0.0210195 2.61641 
0.0129849 -0.022216 2.58747 
-0.0056304 -0.0408352 1.73631 

-0.0803248 -0.131611 -3.82108 
0.135004 0.0890404 3.70528 
-0.00242717 -0.00353591 -0.15299 

-0.163212 0.114508 -0.0969741 
0.0388919 0.0838884 -0.247111 
-0.0410461 -0.00557724 0.092617 

-0.0394303 -0.00100934 -0.0949582 
-0.00337917 0.0182944 0.374811 
0.00224794 0.00384884 0.0241869 

-0.114309 -0.109092 0.014224 
0.0226045 0.130091 0.310672 
0.00505857 0.000427363 -0.0368149 

-0.171131 -0.17443 -1.93461 
0.128253 0.0902034 -0.686238 
0.00251108 0.00956221 0.0824887 

0.0729845 -0.0987112 0.0866354 
0.0148987 0.00661611 0.0325492 
-0.000402044 0.00189245 -0.0588094 

-0.178092 0.358787 -0.0634382 
-0.17183 0.180307 -0.0536846 
0.00411607 0.000370652 0.244692 

-0.280365 0.235815 -0.0391794 
0.00120996 0.197491 -0.160935 
0.0087512 -0.00335473 0.0321366 

0.0109439 -0.0548687 0.267681 
-0.00729089 0.0250201 -0.214098 
5.76288e-05 -0.00100541 -0.0133075 

-0.0244452 -0.00826661 0.0085554 
0.00904379 0.0217026 0.0217013 
0.00186674 -0.00574344 -0.00242923 

-0.0152676 0.0274857 0.0026332 
-0.0223256 0.0119167 -0.00720593 
0.00225433 0.000419447 -0.000311087 

-0.119067 -0.158242 0.910392 
0.0066382 0.153457 -0.264084 
8.13926e-06 0.000921199 0.0325226 

0.0383974 0.0836953 0.10069 
-0.0103569 -0.0276175 0.0674184 
0.0612951 0.0104691 0.226994 

-0.201796 -0.238878 3.03231 
0.144171 0.167719 1.39359 
-0.0173893 -0.0143308 0.248171 

-0.0379896 0.00556988 -0.0518921 
0.00381151 -0.00190968 0.102306 
-0.00217724 0.00301913 -0.0274831 

-0.0602433 -0.100875 0.241505 
0.0144141 0.0667573 -0.0271705 
0.00357414 0.0141121 0.127766 

-7.87959e-05 0.279453 0.358584 
0.184055 0.0423534 -1.01052 
0.0586174 -0.0181193 -0.199105 

-0.0660894 -0.0515923 0.0456675 
-0.431317 0.0225506 0.392433 
-0.0209437 -0.0318143 0.136378 

-0.0532972 0.0304222 -1.786 
0.00736538 -0.0246966 -1.18683 
0.00623305 -0.0021953 -0.0362916 

-0.0543916 0.0386683 0.712951 
-0.00689941 0.10175 -0.0534068 
-0.00111325 0.00359969 -0.0123482 

0.00988607 0.0672445 0.0763041 
-0.0649775 -0.0143863 0.242591 
-0.0557177 -0.0274778 0.274611 

-0.0133965 0.00401093 -0.00524692 
-0.00177906 0.0269029 0.113083 
-0.00104298 -0.0010933 0.00326662 

-0.0357317 -0.168462 -0.013684 
0.187047 0.175088 0.160788 
0.00443534 0.0128089 -0.253994 

-0.0431049 0.0451027 0.139818 
0.0242159 0.0114497 0.177556 
-0.0020456 -0.000374882 -0.0344418 

-0.175421 -0.0465128 0.189002 
0.157836 0.0955104 -0.175874 
-0.027987 0.0528685 0.281185 

-0.198688 -0.116191 -0.18337 
0.0156881 0.127227 -0.699685 
-0.0321727 -0.0101982 -0.105312 

-0.0737343 0.0358451 -1.26163 
0.0107781 0.0260561 -1.03538 
-0.00359212 -0.00368628 -0.132436 

-0.00612374 -0.0460233 0.00103378 
0.0458017 -0.0146487 0.0288763 
-0.00299919 -0.00208647 0.0146867 

-0.117764 -0.125388 -0.0486824 
0.212794 0.0535059 -0.345972 
6.08894e-05 -0.0427112 -0.115551 

0.0506642 -0.0593816 1.28822 
0.0639636 -0.00540404 -0.546974 
-0.00756929 -0.00198592 0.105577 

-0.314883 -0.231708 -1.05526 
0.146379 0.321622 -0.330651 
0.0222194 0.0153328 -0.0389412 

-0.00833986 -0.0735889 -0.396541 
0.0901686 0.00386795 -0.439267 
0.0273458 0.00449077 0.0675149 

-0.0123001 0.0277036 -7.07906 
0.176588 0.17229 0.537321 
0.0116737 0.012764 -0.111559 

-0.202043 0.0109213 -0.135198 
-0.166163 0.117626 -0.381722 
-0.000731443 0.00153852 0.158349 

-0.00425397 -0.0416855 -0.0587758 
0.0445666 0.0101507 -0.0472321 
-0.00698136 0.00374647 0.0129743 

-0.0184767 -0.0122066 0.0176578 
-0.0259761 0.0175131 -0.0126372 
0.001333 -0.000399642 0.0251178 

-0.100536 -0.0576554 0.681911 
0.179338 0.0507455 -0.859037 
0.00228443 0.00166247 0.121861 

0.000676765 -0.00725797 0.112703 
0.0361922 -0.00963888 -0.0580613 
-0.00152972 -0.0021207 0.0159586 

-0.0896143 -0.0754125 0.282837 
0.0948748 0.0605812 0.101171 
-0.0036324 0.00947851 0.0193554 

-0.133494 0.130876 1.48814 
-0.00560555 0.0987044 -1.59657 
0.00454443 -0.00437708 0.211479 

-0.0062543 0.0759468 -1.10124 
-0.0263976 0.00359429 -0.165148 
-0.00412906 -0.00554804 0.0699603 

-0.0161784 -0.0334754 0.663539 
0.046561 0.00535616 0.403609 
0.00124432 0.0133802 -0.0697171 

0.021366 -0.126758 4.73841 
-0.00944966 -0.0649596 2.2165 
0.0113242 -0.00887174 0.192384 

-0.177734 -0.0109393 -0.509665 
0.0936504 0.102834 -0.118974 
0.0103009 0.00159867 0.00154886 

0.0219956 -0.0950865 -2.63774 
0.0203766 -0.0171629 0.0254277 
-0.00356869 0.00276881 -0.071344 

-0.00193218 0.029099 -0.0865382 
-0.104415 0.0277547 -0.20891 
-0.00515004 -0.00301437 -0.00382455 

-0.0184271 -0.047256 1.58926 
0.0440599 0.00154729 0.266581 
-0.00992013 -0.000772754 0.11921 

0.0431605 -0.00877821 0.0785748 
-0.0137414 -0.028997 -0.0459718 
-0.0444764 -0.037853 -0.00732769 

0.0265907 -0.0548232 0.215972 
0.0221895 0.0429495 0.258228 
-0.0366733 -0.129423 -0.291473 

-0.0357436 -0.023302 1.82054 
-0.0135944 0.07736 2.20545 
-0.004994 -0.0112341 -0.262716 

-0.0233721 0.0206474 -0.0608714 
0.00665826 -0.00994774 0.0360688 
-0.00135845 0.0117132 0.0116224 

-0.0099835 0.0180161 0.593335 
-0.0692947 0.0225618 -0.91954 
0.00176442 -6.17064e-05 0.163914 

-0.0474306 -0.0122418 -0.108044 
-0.0873502 -0.00563199 -0.719404 
-0.000186954 0.000924411 0.0193391 

-0.0205886 -0.0492363 -0.791884 
0.0440543 0.00507116 0.0573921 
0.00399717 -0.00541807 0.0372291 

0.118834 0.195997 -0.409511 
-0.105155 -0.000415897 0.172912 
0.0345573 0.0243413 -0.0981156 

-0.0928208 -0.26618 -0.607072 
0.386215 0.239137 -0.722834 
0.00631931 -0.00191973 -0.0157152 

-0.259672 -0.0874769 1.57518 
0.354949 0.289806 -0.463738 
-0.00188536 -0.00136294 0.0025578 

-0.179398 -0.227108 0.24496 
0.0937238 0.0511313 -0.0864314 
-0.0239044 -0.00894537 0.242272 

-0.932024 0.609645 0.196954 
0.552243 0.413676 -0.20814 
0.0737745 0.103263 0.60524 

-0.0940642 -0.14812 1.86172 
0.39879 0.198797 0.440829 
0.0409219 0.0147285 -0.291438 

0.0372387 -0.0728596 -0.00918335 
0.0676258 -0.0224669 0.03474 
0.0168292 0.000224731 0.0414233 

-0.0264516 -0.0650669 0.35488 
0.0621932 -0.0248911 -0.0366408 
-0.00170298 -0.00573054 0.0110143 

-0.0213048 0.0439033 -0.245741 
0.010901 0.0396722 0.0924889 
0.00259296 -0.00200049 0.00430563 

-0.0365021 -0.0139382 -0.0539401 
0.0717489 0.0584918 0.375575 
0.0162021 0.0110021 0.087368 

-0.0747856 -0.00348474 -0.11993 
0.064805 0.0530436 0.265345 
-0.000210078 -0.00475584 0.0693452 

0.00228799 -0.0115149 -0.00349504 
0.0153804 -0.00114725 -0.000760054 
-0.000116417 0.000339595 -0.000541244 

-0.0190908 -0.0805305 0.0259374 
0.0751355 -0.0171269 -0.0562642 
-0.0349126 0.038978 0.137691 

-0.0814468 0.0489362 0.285672 
-0.106014 0.0683121 0.25609 
-0.0039647 0.00132826 0.0881392 

0.00956471 0.0435823 -0.0261898 
-0.00818789 0.00412743 -0.0297377 
0.00151518 0.000416628 -0.0103284 

0.00802794 -0.149886 0.0606397 
0.0967943 -0.0203298 0.0218588 
-0.00344976 -0.00772749 0.00156534 

0.0107088 0.00120336 -0.0203959 
-0.00495204 -0.0115493 -0.00752479 
0.00209043 -0.00193705 0.000134686 

-0.0107388 0.0235528 0.0491418 
0.0510082 -0.0366792 -0.174663 
0.00216599 -0.0229629 0.0905181 

-0.0661377 -0.0671426 10.5179 
0.0351055 0.090688 -6.61129 
-0.00433937 -0.00239955 0.497094 

-0.0148936 -0.120973 -0.0416301 
0.135066 0.0157941 0.0252344 
0.00456925 -0.0257678 0.00764304 

-0.024167 0.0019442 -0.0100969 
0.00856349 -0.00726928 0.0115963 
0.000497352 -0.00197114 0.0269586 

-0.066735 -0.219656 -0.947498 
0.0194778 0.0983373 -0.449584 
-0.0033189 0.00254091 0.0504812 

-0.0825725 0.0787562 -0.104191 
-0.0015303 0.0870909 -0.0443651 
-3.72151e-05 -0.00107601 0.0118111 

-0.154159 -0.0297705 0.0348417 
0.119307 0.0862845 -0.426946 
0.00658465 -0.00185705 0.108743 

-0.14824 -0.06001 0.533079 
-0.0107667 0.0898224 0.118851 
-0.00960024 0.000934308 -0.015287 

-0.0358668 0.00234781 0.0178824 
0.0110472 0.0768346 -0.279827 
0.000872664 0.000593731 -0.0301409 

0.0140399 0.112013 0.113129 
-0.177823 -0.00553971 -0.0922154 
-0.0154825 -0.00657684 0.030898 

-0.0210316 0.00980351 -0.0458339 
0.00546718 0.00602873 -0.0692147 
-0.00040958 -0.000136066 -0.00382381 

-0.0151356 -0.0338865 -0.0847517 
-0.0234565 -0.00359202 -0.0163316 
0.000906668 -0.00127288 0.0224349 

-0.0325032 -0.0849388 -1.00612 
0.0735073 0.0378252 -0.0526709 
-0.000671794 0.00298056 -0.00988239 

-0.0051397 -0.138465 0.690524 
0.183985 0.0118874 0.415446 
0.0071176 0.033062 0.0615278 

-0.00568124 -0.0905899 0.112503 
0.243537 0.11575 0.787643 
0.0353417 -0.0682373 0.235301 

-0.0305033 0.0144476 0.201701 
0.0997324 0.0587322 -0.0123137 
-0.0062439 -0.0159484 -0.0244922 

0.076412 0.0074743 0.121681 
-0.0886632 -0.126128 -0.0712722 
-0.0215586 0.00502864 0.122091 

-0.0103354 -0.090177 0.0175108 
0.0531656 0.0380409 0.185707 
0.000426646 0.000906501 -0.000888643 

-0.0401301 -0.119527 0.288352 
0.0569843 0.0206162 -0.435839 
-0.00831873 -0.0196497 0.0469612 

-0.575421 -0.0189219 3.48349 
-0.165458 0.407475 2.06406 
-0.0119699 -0.00126475 -0.12754 

-0.040942 -0.449421 -0.351814 
0.216069 0.207808 -0.390127 
0.000156877 0.00652112 -0.140917 

-0.00316422 -0.0112922 0.00298521 
-0.0295459 0.00360985 -0.0578287 
-0.0010129 0.000590734 -0.0158801 
