# vtk DataFile Version 3.0
Output file generated by Yade's KinematicLocalisationAnalyser
ASCII
DATASET UNSTRUCTURED_GRID

POINTS 13483 float
558.427 43.0019 -0.421678
683.343 75.2257 -0.0327792
117.968 6.15822 -0.459815
711.871 21.527 -0.265314
479.629 8.59769 0.425062
310.706 37.9673 -0.477801
154.187 7.08887 -0.452501
540.162 10.9584 0.113574
476.595 28.7057 0.165235
649.575 20.0314 0.378395
207.731 9.01815 -0.0864385
253.731 6.29158 0.306638
597.863 48.1933 -0.134463
583.98 29.4815 0.0824018
134.648 17.7532 -0.486959
217.59 35.8046 0.392317
214.947 13.2034 -0.272391
285.423 9.92341 0.397277
335.647 35.5079 0.420491
499.57 9.7344 0.411225
401.324 40.1275 -0.0972026
539.427 60.7698 0.280715
709.785 54.6784 -0.435986
630.535 66.5664 0.473058
445.133 21.1296 0.344199
238.31 45.0123 -0.130047
471.367 33.5221 -0.475741
552.16 23.1236 0.255617
43.9512 17.1859 -0.554315
646.276 51.354 0.350934
464.062 6.10061 0.445834
15.7917 24.7045 0.302234
691.293 70.8051 -0.250834
475.663 2.44777 0.529915
78.0294 46.4113 -0.10029
495.909 35.7135 0.344216
506.64 18.7906 -0.461802
338.351 23.492 -0.179744
508.269 30.1114 0.329422
344.015 37.5609 -0.407472
237.964 14.6491 -0.320972
422.344 38.7855 -0.0791931
616.017 9.76264 0.15061
190.014 6.22191 0.357839
53.3408 7.21002 -0.0959354
66.4023 9.02308 -0.263082
627.995 10.229 -0.605599
22.757 11.9725 -0.304599
559.993 65.3826 -0.339143
614.23 32.8717 -0.361853
169.48 33.1579 0.281173
677.766 49.7882 0.120889
33.4236 29.189 -0.119788
507.849 4.11623 0.450176
139.842 7.16931 0.477453
546.403 50.2387 0.385193
482.68 31.2025 0.12731
172.707 0.956236 -0.277658
32.0075 2.37142 -0.337351
343.108 18.9046 0.260868
566.975 62.1862 -0.139631
445.467 40.2948 0.176508
390.225 1.04144 0.204952
634.695 8.30326 -0.596365
25.9723 45.3751 0.236257
254.157 31.234 0.295205
649.297 15.4745 0.262975
612.117 68.2097 -0.343854
407.955 9.32837 -0.632874
541.112 4.08839 -0.665812
669.046 40.9133 -0.397665
128.777 7.77838 -0.292847
478.186 31.993 -0.1267
460.475 17.8626 -0.101885
292.273 17.3677 -0.344882
19.9622 13.76 -0.239704
694.308 54.2385 0.321182
328.891 42.863 -0.278782
613.168 29.2663 0.326428
628.468 19.5451 -0.222238
710.576 13.5408 0.251622
448.912 41.2947 0.164661
92 38.9414 -0.264887
623.562 52.6516 -0.236178
595.601 59.8749 0.0958447
715.224 61.0447 -0.118962
708.025 0.785172 0.542033
289.09 28.8683 -0.468265
585.09 10.9431 0.122745
23.6951 5.66957 0.496777
131.19 40.3096 -0.138365
491.547 16.3266 0.181541
692.087 39.9349 0.600449
193.559 30.4518 -0.230955
43.3475 37.0758 -0.2677
474.96 1.06381 0.203565
233.455 8.70856 -0.445673
666.29 65.8029 0.240957
685.421 36.2574 -0.271852
355.047 23.9237 0.281612
162.582 27.3224 -0.446719
516.034 51.6033 0.391961
371.605 17.4053 -0.499807
403.618 32.8071 -0.0990578
371.387 5.0741 0.571374
522.116 10.8409 0.129674
717.054 28.2239 -0.14404
79.7574 40.8106 0.387929
330.888 5.09266 -0.178893
534.253 9.22705 -0.447943
356.724 48.5577 -0.44158
24.0317 25.7404 0.480935
30.0182 5.9429 -0.297314
533.703 37.4098 0.448592
483.938 27.4917 0.149935
25.173 38.7013 -0.409411
92.2429 31.2919 -0.214002
321.559 16.8715 -0.331514
563.122 25.5084 -0.132718
461.092 46.0059 0.290695
659.726 7.59439 0.559949
652.568 8.43222 0.250744
382.758 41.266 -0.0984373
585.667 44.9335 -0.107443
236.521 17.504 -0.51309
326.716 4.00649 0.472773
103.005 32.3342 -0.298962
114.95 24.6834 0.290578
514.829 48.343 -0.07756
303.955 20.4917 0.502875
642.912 56.6631 0.112491
616.794 65.3018 0.106458
465.617 22.931 -0.394052
695.634 14.7237 -0.335853
419.359 25.7003 0.217668
276.476 24.6104 -0.306271
614.579 46.2723 0.297708
278.081 30.0507 0.409294
549.196 12.4987 0.260809
330.307 41.4543 0.190146
486.5 13.3582 0.454267
362.37 34.9587 0.0886824
421.926 18.7461 -0.112939
317.757 44.6885 0.439681
189.677 32.2651 0.113311
686.934 78.5192 -0.154842
712.92 31.1896 0.247714
6.71116 12.8023 -0.426076
425.689 24.8745 -0.388948
37.1021 23.6091 0.0858918
372.033 34.479 -0.492949
390.161 26.6725 -0.28897
73.4496 11.8134 -0.492259
51.3296 35.0894 -0.446598
225.235 13.7398 0.439069
572.923 58.1343 0.385043
548.644 24.883 -0.519186
73.7864 20.9452 -0.493995
632.173 64.7885 0.180919
683.285 2.37489 0.573971
603.312 69.8749 0.46003
632.602 2.18129 0.536674
524 33.3212 -0.42864
539.6 62.6095 0.440637
493.728 20.244 -0.397397
719.633 10.4486 -0.316315
223.117 27.0962 -0.115512
126.152 36.969 -0.195331
246.704 6.73044 0.416602
93.3034 4.44416 0.281261
62.6797 10.3216 -0.180633
276.685 37.1771 -0.301085
16.6427 26.2556 -0.357209
528.892 25.1543 0.468719
555.12 62.8965 -0.186491
452.542 28.6562 -0.340768
703.998 66.1366 -0.343747
401.403 8.87418 -0.114791
428.364 42.2042 -0.370913
514.826 3.4752 -0.254609
22.3963 22.9322 -0.410768
552.169 5.66312 0.405165
524.014 4.28267 -0.309605
205.886 11.3641 -0.517975
419.163 16.7777 -0.219641
310.331 6.52948 0.345714
383.517 20.531 -0.338262
662.276 70.3109 0.108353
193.013 27.2727 -0.421537
700.345 6.98246 -0.418676
660.808 62.4247 0.312256
379.557 11.2213 0.200013
647.167 5.2355 0.698632
561.966 39.5947 -0.438754
667.165 23.7725 0.378886
420.957 49.647 -0.127822
481.664 14.4376 0.385705
452.492 51.3336 -0.222681
439.202 10.5464 -0.177785
608.325 63.6748 0.256658
607.902 57.7663 -0.290457
190.571 41.3449 0.330845
708.546 14.1463 0.0924698
539.271 64.2891 -0.24166
10.7664 18.5456 0.189078
401.396 27.1781 0.350612
187.695 25.4572 -0.388808
94.5514 39.7934 0.200741
690.985 36.4144 -0.42064
601.419 72.588 0.222044
319.463 27.5881 0.365625
511.752 10.2668 0.3548
83.2045 45.5762 0.169645
247.707 26.9888 0.46523
531.718 29.0315 0.340874
473.33 24.7274 0.458532
263.237 0.889748 -0.346421
524.208 52.7011 -0.353209
507.796 52.6014 -0.436772
469.516 46.5402 0.383234
484.669 2.29388 -0.629576
639.429 29.8682 0.379028
179.049 13.6745 0.187346
486.667 40.7454 -0.437346
526.417 55.8085 -0.10682
71.6963 0.924957 -0.276644
251.965 4.70217 0.194036
712.138 33.098 -0.181728
709.491 17.8085 -0.46027
718.343 36.4194 0.459915
302.991 8.29813 -0.413685
669.714 28.8136 0.461874
406.148 47.7258 0.324575
442.045 1.0649 0.647356
601.707 56.671 0.470704
26.6463 32.3365 0.313729
331.794 48.9437 -0.464053
252.875 2.85472 0.313939
693.275 65.7451 -0.197421
643.035 73.2664 -0.259645
287.946 11.4904 0.197818
611.067 48.4671 -0.0999503
536.444 2.59299 0.269772
521.892 6.48085 0.457286
96.6145 18.7344 -0.560975
303.058 1.04372 -0.264957
341.803 2.30809 -0.342856
13.6449 7.33398 0.584232
4.64914 33.1695 0.236993
162.206 19.3601 -0.36222
68.4475 44.6138 -0.209036
65.7211 29.7456 -0.305261
419.404 14.9478 -0.433833
365.848 38.3504 -0.472687
675.681 50.6504 -0.120935
19.2655 4.11636 0.283468
69.5098 7.02733 0.141728
577.519 57.9552 -0.135086
294.553 0.874987 0.391841
361.669 16.7383 -0.083138
236.232 4.71657 -0.423138
603.065 35.232 0.181713
444.814 9.87386 0.433855
671.113 23.7259 0.484843
583.444 48.5214 -0.294941
615.38 26.4857 -0.107485
415.057 28.5403 0.486881
102.126 47.0403 -0.302416
511.456 56.6367 -0.0677116
664.446 18.4504 0.203226
237.969 31.7322 0.241613
31.556 17.5976 0.186576
335.773 14.2645 0.504446
108.105 42.7766 -0.462056
269.888 42.7918 -0.204294
421.13 1.35055 -0.265649
692.108 50.3131 -0.404273
625.612 2.11195 0.728092
331.474 3.53598 0.56814
300.98 29.0355 -0.13744
452.35 47.9855 -0.20639
80.9591 7.9859 -0.313423
197.729 47.4506 0.377465
688.027 43.9198 0.382112
482.72 46.7859 -0.0696685
199.66 43.4082 0.252215
160.43 43.4482 -0.402805
719.122 54.6846 0.417329
715.762 26.9438 0.442628
580.466 4.81935 -0.652083
191.171 27.2516 0.0880032
524.749 36.1343 0.114761
526.433 34.9328 0.279463
405.927 5.96003 -0.140891
470.719 0.933913 -0.359268
675.395 53.9377 0.494848
84.5564 31.5303 -0.212465
605.727 27.7233 0.508837
275.431 16.298 -0.384561
9.32216 2.32883 -0.394684
126.428 39.0957 -0.18783
66.7534 24.3865 -0.472982
638.659 53.502 0.321803
699.195 78.3122 0.161585
186.018 30.3398 0.180206
708.647 27.8157 0.334457
44.5287 38.7119 -0.246935
90.8542 29.7448 0.160538
590.376 28.9857 0.429903
410.487 18.0494 -0.561777
503.323 19.4038 0.124746
238.468 29.809 -0.192224
586.322 14.953 0.544951
718.65 26.9993 -0.346747
29.8041 33.9773 -0.260438
271.175 7.80463 0.208976
222.951 15.8005 -0.248049
1.10032 37.7278 0.145692
226.295 14.5994 -0.408305
212.431 11.3558 -0.129613
214.802 26.7614 0.294649
131.821 29.6315 0.115633
527.293 15.82 0.414393
167.691 14.423 0.350958
688.151 69.7471 0.213588
174.7 3.84521 0.509145
47.3366 39.6113 -0.346045
669.072 79.1176 -0.428775
283.604 32.0298 0.377805
619.228 34.3248 0.472105
699.035 50.9278 -0.481412
301.504 9.49906 0.146066
660.289 47.5642 0.343013
328.646 2.40579 -0.494087
411.72 25.7872 0.369905
618.798 21.9731 0.484094
105.462 12.0779 0.437861
472.301 4.12921 -0.417765
674.237 22.9222 -0.217536
87.9019 7.72142 -0.239908
283.154 15.078 0.205484
420.64 12.602 -0.221398
720.417 8.83805 -0.530018
395.048 2.01533 -0.542661
176.017 40.7011 0.266395
666.731 10.4363 0.366376
128.962 38.7514 -0.190982
264.212 32.3969 -0.384586
397.172 22.0993 0.211124
551.663 15.5798 -0.362815
383.368 9.19305 0.50605
447.927 34.3931 -0.438979
683.385 76.7951 0.0594834
46.3382 11.8122 -0.0957681
300.267 41.0908 -0.255075
377.344 28.4274 -0.390515
406.47 21.1107 0.275713
501.449 53.9859 -0.364764
670.998 54.9429 -0.200794
612.504 57.8575 -0.340593
226.44 35.5472 0.406309
12.6466 33.3557 -0.148494
606.455 60.8793 0.122442
491.627 54.0236 -0.443622
230.603 40.3527 0.0922874
625.302 44.7857 0.112423
151.486 9.65213 0.220355
363.796 23.4262 0.288532
453.772 49.552 -0.101674
410.491 19.7356 0.2028
680.699 72.5749 0.295851
422.653 3.32408 0.519224
49.3152 27.2152 -0.303354
461.817 38.9356 0.326745
426.982 48.7826 0.354256
688.726 60.0847 -0.243672
656.6 50.4844 -0.233325
523.1 20.0625 -0.177976
683.356 60.4622 -0.452251
294.222 2.05711 -0.516488
377.9 31.4914 -0.455085
28.2745 40.8303 -0.298618
661.981 46.5032 -0.137899
570.664 31.1199 -0.528425
454.366 0.733393 -0.559542
126.133 4.65359 -0.300091
421.454 44.523 -0.0955892
11.6895 0.910336 0.324232
718.393 8.64038 -0.160927
371.933 42.425 0.395051
[...]
POINT_DATA 13483
TENSORS Strain_matrix float
-0.0745505 -0.0423648 -0.622919 
-0.203578 0.13861 -1.10728 
0.000458989 0.00019206 0.0111533 

-0.0482849 -0.154701 -0.057615 
0.0688278 0.0368672 -0.254399 
-0.0072664 0.0153817 0.224493 

-0.0108166 -0.0231329 1.36329 
0.00999137 -0.00391536 -0.505062 
0.00581757 -0.00600958 -0.904535 

-0.00555385 0.115323 -0.0338607 
-0.138913 -0.0374183 0.025778 
-0.00661848 -0.0229333 -0.113768 

-0.135733 0.0827639 0.156092 
-0.0909372 0.0974744 0.252478 
0.0180732 0.0231629 0.254504 

-0.00597181 0.0151717 0.546051 
-0.0287071 -0.011064 -3.57436 
9.33849e-05 0.00107199 0.0444642 

-0.0239145 0.008436 -0.00489474 
-0.00528703 0.0139818 0.328697 
-0.00235002 0.00219471 0.146075 

-0.00514793 -0.0471479 -0.00887434 
0.046486 -0.0182538 0.00593558 
0.00877994 -0.0188022 0.0848579 

-0.0954345 -0.0731485 -0.434544 
0.0267968 -0.0315459 -0.0665125 
-0.0018715 0.00186245 0.263304 

-0.122514 -0.083763 -0.672756 
0.185265 0.0871592 0.500709 
0.00773845 -0.00174392 0.00941498 

-0.0142588 0.0176888 0.0311132 
0.0134682 0.0100087 0.00908862 
-0.00129396 -0.000240637 0.0264745 

-0.0176237 0.0280553 0.0257079 
-0.0259024 0.0115551 -0.037207 
0.000997209 -0.002176 0.00723283 

0.0239032 -0.0328741 0.0275339 
0.100714 -0.0376684 -0.320388 
0.0253139 -0.000702074 0.144225 

-0.194372 -0.0987422 0.00718897 
-0.00189578 0.224033 -0.0907308 
0.00391487 0.00117547 0.0392162 

-0.0460439 -0.0724541 -0.344343 
0.0232822 0.0488113 -0.298924 
0.0003881 -0.00461681 0.030454 

0.00567063 0.129376 -0.224071 
0.000797707 0.0552347 -0.0165815 
-0.00220605 -0.00170342 0.0530626 

-0.00612845 0.00287375 -0.0154905 
-0.00210628 0.00473736 -0.0571008 
0.000857073 0.000201833 0.00214922 

-0.0446816 -0.0045742 0.059299 
0.0649002 0.0396771 -0.138314 
0.00104549 -0.00192589 0.0297707 

-0.143943 -0.0867765 -0.15345 
0.124126 0.015662 -0.172553 
0.00074974 0.001568 0.0496705 

-0.0116345 -0.0991035 -0.0578967 
0.23773 0.0704539 -0.315478 
0.0322867 -0.0159496 -0.0215225 

-0.11211 -0.205907 1.27345 
0.0967041 0.154907 0.558532 
0.000265744 0.0012962 -0.0155259 

-0.377504 -0.278194 0.94906 
0.435575 0.103964 0.0856116 
0.0333333 -0.0030959 0.263705 

0.0102455 -0.0449354 0.313755 
0.0860991 -0.0160836 0.787452 
-0.00284855 -0.00831971 -0.0520876 

-0.220331 0.135854 3.03377 
-0.104807 0.206385 11.5426 
-0.00559543 0.0100654 0.0747943 

0.00884326 0.125548 -0.968129 
0.233388 -0.0650502 0.182725 
0.000874304 -0.00790729 0.121348 

-0.0304569 -0.0148862 0.0145467 
0.0270579 0.0192715 -0.0143379 
0.00649667 -0.00821513 0.00926038 

-0.216392 0.0279743 -6.99469 
-0.0883125 0.134746 -7.79204 
0.00521815 -0.0111867 0.0407826 

-0.271135 -0.141919 0.701966 
0.122542 0.191188 -0.13566 
-0.01561 -0.0166177 -0.016847 

-0.0762722 0.0367963 1.2221 
0.00781581 0.0568106 -1.28692 
-0.0015161 -0.00575898 0.59098 

-0.257773 -0.332662 0.06187 
0.190184 0.29249 -0.721557 
0.0485948 -0.00203209 -0.0692089 

-0.00899328 0.0255465 0.125516 
-0.034745 -0.00199589 0.00738033 
-0.0249066 -0.00665981 0.364462 

0.0289923 -0.000470026 -0.19885 
-0.0996108 -0.113514 0.224266 
0.0451423 -0.0466207 0.0390376 

-0.158928 0.0833897 -0.231529 
-0.0974155 0.0452765 -0.139979 
-0.0108646 0.0112467 -0.0158252 

-0.206429 -0.0447047 -0.134993 
0.00171746 0.263173 -0.589087 
-0.00573518 -0.0418122 0.235191 

0.0167713 -0.0382336 0.200097 
0.136246 0.0585064 0.120323 
0.00626813 0.00724411 -0.0230497 

-0.0240832 -0.0930095 0.00560305 
0.0450415 0.0135085 -0.0217425 
-0.00541401 0.0046302 0.0279809 

0.0649147 -0.0737935 -0.242784 
0.12135 -0.0161029 -0.104385 
0.00570344 -0.00102223 -0.0444725 

-0.177703 0.221064 -0.0511575 
-0.0632525 0.178363 -0.0195908 
-0.00210157 0.00063223 -0.0342417 

-0.000540755 -0.0778529 0.23904 
0.111194 0.0376833 -0.323287 
0.000334158 -5.46432e-05 0.0341258 

-0.0999358 -0.0482958 -0.28169 
0.0118288 0.0384335 0.214435 
-0.00560709 0.0225682 -0.282667 

-0.0360195 0.0561337 0.0465835 
0.038776 0.00501073 -0.202134 
-0.000729402 -0.00293675 0.0167471 

-0.0531957 -0.328985 -0.592865 
0.283696 0.106653 -0.478842 
-0.00177189 0.00250053 0.00401485 

-0.0232863 -0.0743014 0.0112393 
0.0306541 -0.0153168 -0.0217304 
0.008121 0.000163521 0.0373804 

-0.0201778 -0.0287463 0.0679253 
0.0136093 0.018491 -0.0899711 
-0.0088648 0.00826254 0.0212979 

-0.0647868 -0.0267921 -0.0853361 
-0.0315482 0.0309496 -0.00939057 
-0.0299032 0.0444147 0.317253 

-0.00602398 0.00511972 -0.0022303 
-0.00193536 0.00274798 -0.00341521 
0.00017347 -0.00197918 0.0122395 

-0.0153289 -0.00737911 0.178201 
0.00919267 0.00219724 -0.434355 
-0.00210339 -9.90399e-05 -0.0139631 

0.0201443 0.0518578 -0.00485068 
-0.0673128 -0.0292237 0.0781482 
0.00295257 -0.00231034 -0.0244807 

-0.0105764 0.183377 0.201545 
-0.248117 0.101875 -0.593189 
-0.0309628 -0.0279561 -0.405277 

-0.159939 0.269627 -0.630288 
-0.482705 0.254091 -0.990538 
0.0128576 -0.0159037 -0.147464 

0.00402583 -0.00828073 -0.0348874 
0.0120745 -0.0135594 0.013626 
-0.00125131 0.000143833 0.0085399 

-0.113355 0.00378648 0.370823 
-0.0423239 0.0324835 0.382959 
-0.00288921 0.0026255 0.000682901 

-0.0165098 -0.00266903 -0.163794 
0.00700202 0.0254027 -0.259768 
0.000811635 0.000398353 0.00895146 

-0.327528 0.0662217 0.288223 
-0.167188 0.144746 -0.585381 
0.00347818 0.152777 1.06221 

-0.0247348 -0.0043726 -0.0628999 
-0.0215233 -0.0123358 -0.0668099 
0.00452156 0.00490092 0.0456578 

-0.0561884 -0.157427 0.497908 
-0.0256218 0.0391246 0.789394 
0.00140268 -0.000453839 0.0144269 

-0.0133545 -0.00471433 -0.170179 
-0.0707234 0.0325736 -0.0376494 
0.00326509 4.85215e-05 -0.0330766 

-0.0163454 0.0218953 0.0496378 
0.00087814 0.000587956 -0.0136083 
-6.39312e-05 0.00325583 0.0210312 

-0.0328581 0.0298944 -0.0778407 
-0.0127142 0.0293095 -0.0743737 
-0.000428414 0.0022163 0.00966439 

1.4663e-07 -0.00498878 0.0331487 
-0.0740296 0.0245034 0.29157 
-0.00226327 -0.000688744 0.0389436 

0.00140257 -0.197072 -0.126644 
0.23407 0.0477655 0.117136 
0.0344466 -0.0308365 0.156409 

0.00671576 -0.00293858 -0.123869 
-0.0260848 -0.0492301 -0.433948 
-0.00225661 -0.000438875 0.0212278 

-0.0158146 -0.0285354 0.0441988 
-0.00497845 0.000200471 -0.022968 
0.000368724 -0.000338644 0.0312895 

-0.0314007 -0.00273551 0.0603616 
0.0161886 -0.00524147 -0.0223011 
-0.00386511 -0.000935867 0.0021409 

-0.0627696 0.0356813 0.210323 
0.0277205 0.00902533 0.297368 
-0.00643225 0.0552158 -0.0960222 

-0.0320734 0.0418488 -0.00591817 
-0.00149329 0.0172519 0.0900793 
-3.19254e-05 -0.00157248 0.00935762 

-0.0326308 -0.0572018 -0.0288726 
0.0453455 0.000997503 0.00917726 
0.00822658 -0.00224797 0.0315267 

0.0182157 0.0203525 0.126725 
-0.00122332 0.0130652 -0.879003 
0.000585811 -0.000765768 -0.0204791 

-0.0387774 -0.0526629 7.99043 
0.016459 0.0513565 -10.1563 
-0.0025504 -0.00891938 2.07639 

-0.0163247 0.0285385 -2.67249 
0.0116219 0.0562137 -3.00747 
-0.0002656 -0.00734491 0.64699 

-0.269186 0.0029013 0.147987 
0.188315 0.277522 -0.0102409 
0.0102101 0.018215 0.0588572 

-0.0139928 0.000335226 0.0320782 
-0.00675468 0.000590176 -0.00458598 
-0.0019472 -0.00137514 0.0245941 

-0.294546 -0.179629 0.385438 
0.428763 0.243501 0.366844 
-0.0335674 -0.0594219 0.347411 

-0.10099 -0.244031 0.114432 
-0.0718087 0.101131 -0.412366 
-0.000219409 -0.0249728 -0.101831 

0.0016699 -0.0128986 0.311869 
0.000246785 -0.020129 0.585139 
-0.00146124 0.000405811 0.0884973 

0.0125421 0.0683693 -0.00734876 
-0.00832809 -0.0081677 -0.00285887 
0.00193387 0.000733331 -0.0299478 

-0.0511767 0.096913 0.147079 
-0.114301 0.0283341 0.0410318 
-0.0023376 0.000709606 0.0118653 

-0.258746 0.269098 1.14934 
0.0738867 0.193377 -0.54257 
0.00601057 0.00931707 0.00488463 

-0.325848 -0.0236647 0.496835 
-0.469796 0.212413 0.470025 
-0.00274986 0.016482 -0.00457985 

-0.0224347 0.0683216 -0.134363 
-0.00291499 -0.0345019 -0.319634 
-0.00674543 0.00221122 -0.0161927 

-0.126541 -0.314143 -0.54155 
0.0936158 0.16734 0.364745 
0.010745 0.0515214 0.219951 

0.032018 -0.0322979 -0.0815214 
0.0192508 -0.0985342 0.376185 
-0.0203521 -0.0115943 0.102756 

0.0432519 0.0720536 0.239433 
0.0373855 -0.0363527 -0.0422666 
-0.00055805 0.000558807 0.000992598 

-0.237365 -0.1877 0.620594 
-0.177805 0.0285485 -1.13022 
-0.0211211 0.0254914 0.114011 

0.0892779 0.0249816 -0.092331 
0.174779 -0.00675687 -0.268444 
0.000521887 0.0012865 -0.00108801 

0.0512208 0.0207807 -0.177252 
0.0657216 0.0169056 0.0603705 
0.000800235 0.000938822 -0.00119253 

-0.109875 0.0169212 0.327588 
0.0489843 0.114742 0.998258 
0.00590214 0.0194127 0.0343968 

-0.0421483 -0.0246847 -0.40917 
0.0138344 0.032326 -0.884065 
0.00162432 0.00381604 0.0841174 

-0.221868 -0.134926 0.287273 
0.433338 0.238464 -0.0878936 
0.0172233 -0.0455634 0.00189489 

-0.0173272 -0.0431133 0.3872 
0.00356161 -0.008389 -0.771459 
0.00573808 0.010987 0.310224 

-0.0624963 -0.0524139 0.293402 
0.0605618 0.141671 0.100932 
0.000665057 -0.000143045 -0.00546856 

0.00544827 0.112281 -0.170052 
-0.179935 0.00934044 0.176236 
-0.0149813 0.00355356 0.00697055 

-0.0308102 -0.0240377 0.497368 
0.106166 -0.0300764 -3.15711 
-0.00153191 0.000365807 0.197564 

-0.00797965 -0.0221758 -0.056966 
0.0119078 0.0599616 -0.13722 
-0.000503064 0.00033185 -0.031323 

0.00796801 0.0565697 -0.186191 
0.0161449 -0.0089003 -0.0693821 
0.001413 -2.45994e-05 0.0299579 

-0.215021 0.0146375 -0.134272 
0.00198689 -0.0597968 -0.204969 
0.0512918 0.0275526 0.0632266 

-0.0506661 -0.0230891 0.193283 
0.0104844 0.0126283 -0.217342 
0.000115897 0.00447418 0.0720352 

-0.024393 0.162251 -0.728845 
0.0361736 0.0393418 0.922968 
-0.00163278 0.000880606 -0.00593467 

-0.351052 -0.0979176 0.238412 
-0.289084 0.29841 0.708701 
-0.00314283 0.0091607 0.115303 

-0.0145724 -0.0752363 0.079883 
0.0503717 -0.000842241 -0.105624 
0.000491601 0.0364063 0.167858 

-0.00320814 -0.00677977 0.208003 
0.0210538 0.00371159 -0.42482 
-0.00121273 2.46171e-05 0.0253643 

-0.215565 -0.273258 2.99254 
0.0554585 0.277901 -1.95766 
-0.0307896 -0.0296903 -0.128132 

-0.0480176 -0.0322035 0.361507 
-0.016002 0.0436629 0.103847 
-0.00434647 0.00679302 -0.126479 

-0.068519 0.0339739 0.113825 
-0.0640135 0.0798282 0.129549 
0.00327378 -0.000638485 0.0205041 

-0.0496315 0.0486851 -2.56812 
-0.0453668 -0.0146965 1.11026 
0.0271059 0.0233283 -0.398886 

0.0177563 -0.0507027 -0.00643849 
-0.0188457 -0.0126959 -0.0261278 
0.00114743 -0.00125316 0.00164331 

-0.0409307 -0.0255385 0.0900165 
0.0277216 0.062373 -0.0265121 
0.00214498 0.00190675 -0.0147318 

-0.0736824 0.0736662 -0.485772 
-0.0228792 0.0710692 0.646493 
0.000405049 -0.001258 0.0219873 

-0.0243223 -0.0357664 -0.052424 
0.026978 0.0136964 -0.0403039 
0.057272 -0.000473387 0.0841563 

-0.00544937 -0.0201993 -0.0558246 
0.0122489 -0.00808385 0.150848 
-0.00169322 -0.00280503 0.0654695 

-0.00133409 0.0120405 -1.75282 
-0.0302627 0.0304962 -10.9576 
-9.20024e-05 -0.00097225 -0.348295 

-0.139794 0.0510427 0.652296 
0.134574 0.120545 -3.51278 
0.0049212 -0.00185655 0.150163 

-0.0313833 0.0229085 -0.0515237 
-0.00787295 0.0191578 -0.0304097 
0.00237033 -0.00282954 0.0358887 

-0.417972 0.111096 0.126722 
-0.0146054 0.20745 0.224766 
0.0206915 0.00775509 -0.0436094 

-0.03821 -0.0700456 -0.0868345 
-0.0449859 0.0682244 0.0256823 
0.00257658 0.00482637 -0.0386231 

-0.00817538 -0.088447 0.0902208 
0.123416 0.014151 -0.1293 
0.00111248 0.00523591 -0.00239096 

0.0449243 -0.0377375 -0.0137262 
0.00285006 -0.0293157 -0.0900824 
0.00199929 0.000461541 -0.0153065 

0.00405712 0.124234 0.338785 
-0.0762683 -0.0166922 -0.46957 
-0.0228239 0.0239768 -0.0803624 

-0.319251 0.118673 -1.09807 
-0.124269 0.249058 -0.810933 
-0.0175213 0.00086542 -0.130573 

-0.0878992 -0.218641 -0.595659 
0.203266 0.180928 0.764452 
0.0265375 -0.0142272 -0.267667 

0.0108551 0.0107432 -0.0541101 
0.0346541 -0.0171106 0.0541022 
0.00675901 -0.0121156 0.0887139 

-0.0337264 0.12233 -0.147979 
0.0464397 0.0216512 0.351219 
0.0429564 -0.0719151 0.135889 

-0.128476 0.121857 0.0386056 
-0.214082 0.15285 0.649671 
0.00910785 -0.00983367 0.0867875 

0.00361288 -0.140651 -0.123452 
0.127461 0.0183536 -0.237768 
-0.000837243 0.000471324 -0.0248842 

-0.0332069 -0.000290596 -0.796586 
0.00305813 0.02097 -0.47428 
0.0102734 0.00563812 0.163118 

-0.0627386 -0.041145 -0.0929451 
0.00995119 0.00590212 0.0196789 
-0.0508375 0.0380985 0.15432 

-0.0551808 -0.135331 0.00868721 
0.0292277 -0.0144508 -0.113426 
-0.00312743 0.000426528 0.0432379 

-0.0736443 0.0761283 1.99021 
-0.183583 0.0969929 -0.234619 
0.00172411 0.00085481 0.0147259 

-0.252485 -0.484915 0.303689 
-0.217542 0.208191 -0.108495 
-0.0135788 0.0390608 0.109469 

8.94268e-05 0.00916174 -4.21086 
-0.0448465 -0.0226697 -3.38809 
-0.00468932 -0.0103125 0.0546591 

-0.460464 0.0320702 1.37429 
0.39119 0.544208 1.25178 
-0.00324348 -0.0446242 0.0370257 

-0.000838911 -0.0529288 -0.0315972 
0.0657166 0.0268726 0.101071 
0.000985757 0.00010198 -0.0141904 

-0.0921124 -0.045092 0.434695 
0.0343207 0.0407661 -0.732363 
-0.0243216 0.0181608 0.149086 

-0.0911686 -0.0458844 0.054216 
0.048682 0.0681928 -0.168342 
-4.49584e-05 -0.00469007 0.177603 

-0.0150228 -0.0327971 -0.106425 
0.0366096 0.0100205 0.0343768 
0.00528724 0.00158486 0.0327241 

-0.00187151 0.0147756 0.0609927 
-0.00944936 0.00364282 0.0358229 
-0.0014818 0.00040482 5.12254e-05 

0.013994 0.0448727 1.40586 
-0.256137 -0.022382 -0.167588 
-0.000275134 0.00455636 0.0203523 

-0.0243061 0.0272361 0.383035 
-0.00143315 0.0273317 -0.141162 
1.3896e-05 -0.000401484 -0.0174953 

0.0361004 0.114158 0.372172 
0.0749504 0.0971687 0.291982 
-0.0135107 0.0113917 0.0597812 

-0.2596 0.210878 1.78274 
0.160248 0.28829 -0.312663 
-0.000263019 0.000395116 0.00466415 

-0.261753 -0.195318 -0.505872 
0.193193 0.183193 -0.466237 
-0.0194176 0.00498266 0.129009 

-0.0122414 0.00270784 -0.00979133 
-0.0289196 -0.0137147 -0.0376812 
-0.000882404 0.000122966 0.00476579 

-0.0211644 -0.0607177 -0.00515041 
0.0565171 0.0152104 0.0217425 
0.00029303 -0.00159852 0.0253275 

-0.00677445 0.00336528 0.463198 
0.0612488 0.201553 4.87763 
-0.000153871 0.0268822 -0.157043 

-0.00108382 -0.0120456 -0.0295653 
0.0208546 -0.00988882 0.0126384 
-0.000606638 -0.000983943 0.0114294 

0.202247 0.0720467 -0.254531 
0.138167 -0.282871 0.496079 
-0.00513887 -0.0386527 0.291233 

-0.025311 -0.0615492 0.0168945 
-0.153492 0.0325133 0.0336707 
0.00693421 0.00422967 -0.009291 

0.0767364 0.0784571 -0.0723183 
-0.036132 -0.0555127 0.239288 
0.00252716 0.00867376 -0.0641525 

-0.0335899 -0.0641811 0.175993 
0.130458 0.0451683 0.0419706 
-0.0131362 0.00369237 0.0683815 

-0.0316562 -0.0292148 0.13451 
0.0263569 0.0100381 -0.173592 
-0.000307583 0.000832018 0.0187526 

-0.0377213 0.0960518 -10.3283 
-0.0180225 0.112359 -10.0562 
-0.00226982 -0.00116415 -0.175813 

-0.111737 -0.0422578 0.525214 
-0.0152981 0.118015 -0.18549 
0.000538883 -0.00581361 0.073521 

-0.00528312 0.0279068 0.0326694 
-0.0167877 0.00629285 0.137917 
-0.000979305 0.000301579 0.0568235 

-0.000449731 0.0364384 2.04982 
-0.0356023 0.00137301 0.428774 
0.000308569 -0.000101546 0.000820682 

-0.0127581 0.0464141 -0.0386977 
-0.0291456 -0.0209392 0.0667465 
-0.00236858 0.00722311 0.113773 

0.0322782 -0.0756806 -0.811881 
0.0752785 -0.00262827 -1.23152 
0.0117433 -0.00473661 0.120271 

-0.0806292 -0.287605 2.56487 
0.191781 0.103247 0.876071 
-0.00400979 3.83865e-06 0.0887062 

-0.0170064 0.0267557 0.607789 
-0.0139137 0.0157492 -0.935888 
0.00133262 -0.000567859 0.280869 

-0.156822 -0.159941 0.0536092 
-0.235984 0.135041 -0.0408043 
0.0578269 -0.064797 0.489081 

-0.0233909 0.00484336 0.226427 
0.012999 0.00974685 0.175993 
-0.0023633 -0.00438965 0.0509338 

0.0858334 0.107669 2.89297 
0.101658 -0.125043 -1.62331 
0.00249151 0.0110382 0.545819 

-0.00848999 0.00622006 0.00688655 
0.00111588 -0.00661133 0.00743482 
-0.0039319 -0.00402107 0.0145258 

-0.365579 0.0120798 -2.06875 
-0.144557 0.171437 -0.676413 
0.0391821 0.00510783 0.1051 

-0.285878 -0.0427608 27.0527 
0.231441 0.121916 -5.1353 
-0.0131244 0.0122794 0.31892 

-0.120978 -0.128882 -0.700771 
0.00804669 0.128953 0.263296 
-0.0130431 0.0220754 -0.00604408 

-0.0335181 -0.00641541 -0.167701 
-0.00414423 0.0289218 -0.18451 
-0.0263742 0.00533076 0.223803 

-0.162461 0.0146444 0.27531 
0.110755 0.197004 0.049016 
-0.0227295 0.00408034 -0.0317377 

-0.0859386 0.137562 -0.0799334 
0.147463 0.0762437 0.0689767 
0.00261206 -0.00150354 -0.00944207 

-0.0155541 -0.0050673 -0.0559163 
-0.00186349 0.00567231 -0.158453 
0.000406985 -0.000437916 0.040963 

-0.0248181 0.0172619 -0.0447417 
-0.0226916 0.00591032 -0.135052 
0.00299065 -0.000954643 0.063262 

-0.00112581 0.00127677 -0.00289089 
-0.010709 -0.0076893 -0.0152238 
0.000514977 -0.000669174 0.00506734 

0.0449605 0.0584286 -0.0118423 
0.00663376 -0.0393652 0.0749912 
0.0128843 -0.00285934 0.0333218 

0.0161161 -0.0451608 0.0984097 
-0.0431828 -0.0575065 0.0293311 
0.0300644 0.00950973 -0.0431677 

-0.0497525 -0.170204 0.0278234 
0.0142477 0.0685817 0.149619 
0.00206899 -0.00555712 -0.0309545 

0.00930148 0.17368 -0.13054 
-0.267564 0.0275348 0.714464 
0.0446569 0.00203654 0.382896 

-0.0436537 0.106263 -0.2091 
-0.0640013 0.0500465 0.120313 
0.000285217 0.00118685 0.00932583 

-0.0806311 -0.129485 -0.376022 
0.0755255 0.0113788 -0.158381 
0.00899858 -0.00908979 -0.0332054 

-0.0124833 -0.00233205 -0.00687075 
-0.00554341 -0.00925939 -0.00716531 
-0.000966047 0.00124422 0.0255432 

-0.121142 -0.0272221 -0.589747 
0.0608539 0.0936184 -1.01478 
0.00383098 -0.00760975 0.0950618 

-0.0056122 0.00651824 -0.00100659 
0.012621 0.00553461 -0.0114772 
0.00245876 0.00132558 -0.00134222 

-0.10141 0.0726471 0.257324 
0.00977527 0.148771 -1.54401 
0.00185066 0.000270393 -0.00112654 

-0.0200422 -0.207504 -0.0993198 
0.187653 0.197897 0.296525 
0.0761411 -0.0403004 0.169842 

0.00723737 -0.00956044 0.0205803 
0.00698452 -0.0121357 -0.00309576 
-0.000290128 0.00313802 0.00118761 

-0.0228235 0.0109609 0.212254 
0.0126469 0.00797287 0.212731 
-0.000746111 0.000711166 0.0216227 

-0.0214193 -0.0410516 -0.0141908 
0.0420234 0.0100731 0.00413347 
0.000870309 -0.00144743 0.0220355 

-0.0124788 -0.00822555 -0.0971539 
-0.00133317 0.0144079 -0.0787601 
0.0240143 -0.0197938 -0.0420091 

-0.0834998 0.192734 0.520872 
-0.114424 0.108457 0.0898563 
0.00214889 0.0011762 0.0276124 

-0.00379517 -0.0519054 -0.270323 
0.0137511 -0.00883404 -0.0028212 
-0.0086326 0.00701541 0.0222923 

-0.0466367 0.0215147 0.686718 
-0.0345167 0.0489496 -0.32186 
-0.00374918 0.00312262 -0.010702 

-0.0753334 0.0344727 1.29373 
0.0330746 -0.00582742 -0.221218 
0.00324331 -0.00163545 0.207655 

-0.129811 -0.193614 -0.215428 
-0.126551 0.202546 -0.0249563 
0.0213454 0.0200544 0.113994 

-0.0638789 0.0350925 -0.361609 
-0.0937864 0.0480193 0.213085 
-0.00116372 0.00290488 -0.0264985 

-0.0382053 0.0342491 1.8753 
-0.0055984 0.0296481 3.24437 
0.0179537 -0.0309152 0.0425313 

-0.0774013 -0.158911 1.12536 
0.00252266 0.0575123 -0.476117 
-0.0014887 0.0283186 0.112087 

-0.103791 -0.00125139 -0.218995 
-0.034388 0.0484229 0.123082 
-0.00906935 0.00326997 -0.0984798 

0.01435 -0.108916 0.497713 
0.325852 -0.0244559 0.0686213 
0.0412628 -0.0492409 0.00541634 

-0.054014 -0.375795 -0.627846 
-0.0296723 0.127158 0.474649 
-0.0052377 0.000933058 0.0903241 

-0.0377108 -0.0440407 0.106059 
0.0869897 0.0347733 0.112151 
-0.0378771 0.085478 0.22001 

-0.0366122 0.147221 0.158787 
-0.0149649 0.0131863 0.0850108 
-0.0309491 -0.0333362 0.272477 

-0.00624951 -0.0721876 0.303951 
-0.0268929 0.00489051 0.560229 
0.00741209 -0.0131181 0.0353535 

-0.0663365 0.153725 -0.473112 
-0.22487 -0.0241105 0.351899 
-0.000858612 -0.0030487 -0.0111265 

0.000673452 0.00847306 0.0318383 
-0.0176338 -0.00614914 0.0305224 
-0.0012523 0.00019329 0.00654616 

-0.161027 -0.254363 -0.876884 
0.0198344 0.182455 -0.370808 
0.0183817 -0.0127593 -0.00901357 

-0.890705 -0.0730177 1.14441 
0.12269 0.33781 -0.497818 
-0.0141993 0.0323883 0.216764 

-0.0314877 0.0289086 -0.274169 