# vtk DataFile Version 3.0
Output file generated by Yade's KinematicLocalisationAnalyser
ASCII
DATASET UNSTRUCTURED_GRID

POINTS 13483 float
653.768 28.0244 -0.396834
840.067 58.3975 -0.443807
128.813 6.20575 -0.442217
876.072 7.95517 -0.349926
534.303 7.62574 -0.299785
336.66 34.4109 -0.460481
167.561 6.77562 -0.416878
611.604 10.2152 0.12717
531.553 22.7999 0.139564
781.742 13.1133 0.3515
225.589 8.84874 -0.0988353
274.903 6.23433 0.292397
704.819 30.4212 -0.133622
681.406 14.3291 0.0856848
146.996 17.0126 -0.457572
236.887 34.3123 0.400125
233.136 12.852 -0.273239
308.849 9.44375 0.371774
364.196 31.7522 0.432296
562.14 8.51975 0.350235
440.737 35.4612 -0.0986984
636.365 46.3094 0.258355
873.344 39.7526 -0.468412
758.386 47.008 0.47654
491.099 16.4004 0.2931
257.674 43.4797 0.12277
526.505 27.6243 -0.476806
630.063 20.3165 0.216356
47.9037 15.2737 -0.459022
778.344 32.3287 0.333805
516.241 4.8464 0.330411
17.5963 22.6676 0.31913
851.698 51.9555 -0.253774
530.015 2.46769 0.487383
84.4462 43.355 0.102607
559.202 30.3026 0.318709
568.483 16.5162 -0.43091
367.687 21.6417 -0.200009
572.359 25.3961 -0.309361
375.632 33.0127 -0.387491
258.282 14.5079 -0.291547
465.446 35.8057 -0.0645676
731.167 6.45127 0.212575
206.781 6.33441 0.349535
59.3405 6.94539 0.0926275
73.118 8.74555 -0.266818
748.982 8.58453 -0.390303
25.3207 11.6789 -0.282853
659.229 46.7179 0.355335
732.137 24.4777 -0.321838
184.847 31.8269 0.28261
834.648 39.6616 0.118157
37.6058 27.7472 -0.11406
573.006 2.95154 0.32934
152.309 7.18031 0.475202
638.865 35.2068 0.366926
541.225 26.049 -0.112492
187.182 0.929569 -0.261719
34.961 2.37965 -0.309199
373.481 17.5619 0.255224
668.722 47.1887 0.133111
495.043 33.5212 -0.170477
427.463 1.04184 0.192293
760.289 7.76869 -0.353438
28.4849 42.2153 0.234888
274.864 30.0738 0.291905
781.702 8.44098 0.238675
726.628 47.5604 -0.352795
447.227 8.48565 -0.478099
612.391 3.57956 -0.334376
813.436 32.862 -0.396267
140.274 7.56439 -0.276998
534.734 25.1153 -0.12369
511.804 15.2435 -0.0941654
315.519 16.5557 -0.335055
22.306 13.2981 -0.231256
855.823 39.3149 0.332855
356.617 38.7583 -0.278541
730.305 21.7537 0.353731
747.629 13.2684 -0.236743
862.651 11.4329 0.271445
498.577 34.1845 0.166958
99.6241 36.7938 -0.265743
744.568 36.7147 -0.221566
702.032 38.8386 0.0930525
879.274 46.1672 -0.113549
856.65 0.75358 0.527724
312.099 28.2842 -0.447738
670.745 6.35964 0.0780322
25.9841 5.3168 0.452778
142.81 38.0886 0.1364
551.105 13.8876 0.187804
848.822 29.7073 0.503774
209.849 27.8124 -0.228641
47.6098 34.5359 -0.266199
528.892 1.1585 0.11988
253.149 8.76384 -0.377567
814.685 44.3097 -0.237561
836.631 29.2575 -0.272993
388.091 20.4217 -0.254733
176.429 26.4546 -0.445525
590.75 37.9608 0.396882
407.648 15.1347 -0.475965
444.629 28.9061 -0.0966605
406.088 4.45423 0.408189
589.624 10.4758 -0.112835
881.089 14.1465 -0.189501
86.8669 38.4237 0.383643
360.403 4.74948 -0.178448
604.875 9.57923 -0.343365
387.503 43.6931 -0.439746
27.8836 24.273 0.472246
32.6926 5.72258 -0.338819
613.804 33.2701 0.421125
543.693 23.129 0.146762
28.4286 36.3249 -0.409867
100.493 29.1168 -0.232429
349.472 15.7401 -0.317607
647.829 18.9893 -0.114448
511.164 37.533 0.291921
799.376 7.72824 0.509473
791.281 6.40757 0.313497
416.912 36.9354 -0.0930278
687.355 26.0771 0.0984983
256.294 16.4426 -0.505976
355.288 3.65652 0.470135
111.294 30.8711 -0.323501
125.276 23.7322 0.26889
585.634 38.6153 0.0728099
329.474 18.717 0.476144
774.141 37.7226 -0.104129
731.308 45.6644 -0.109863
518.737 20.0235 -0.363341
841.86 13.7396 -0.310696
461.743 23.6958 0.246132
299.129 23.7688 -0.306339
732.71 33.6115 0.28606
300.703 28.8423 0.41938
623.227 12.0765 0.184919
358.138 35.5373 0.186977
544.753 11.1364 0.456914
396.002 30.8482 0.0862249
464.097 16.5648 -0.103748
343.882 40.7944 0.430585
205.993 28.9335 0.117527
844.636 60.407 -0.146668
876.558 16.6864 0.241111
6.55373 11.9671 -0.423724
468.48 21.9153 -0.425098
41.0824 21.9456 0.0980593
406.822 31.5639 -0.455236
426.499 24.3269 -0.254576
80.2883 11.6317 -0.472339
55.6663 32.9574 -0.438095
244.25 13.3603 0.414252
672.208 40.0072 0.390232
625.852 21.159 -0.451915
80.8245 20.673 -0.468203
760.761 48.2969 0.425439
829.589 2.28011 0.495583
718.245 46.6861 0.461146
755.317 2.3763 0.370215
596.21 26.4002 -0.420233
638.201 46.1793 0.442062
554.546 18.024 -0.356552
874.746 3.1166 0.237217
241.876 24.4016 -0.123589
138.554 34.3839 -0.194447
267.43 6.6006 0.372695
102.173 4.04373 0.25816
69.3223 9.90703 -0.201558
298.575 35.779 -0.306405
18.1968 24.2423 -0.385646
603.339 20.3212 0.399808
657.993 41.6867 -0.184761
500.676 21.0971 -0.343146
867.98 49.7809 -0.354104
440.027 8.4473 0.086978
472.833 37.1756 -0.371379
581.818 3.48723 -0.176628
24.6035 23.5648 -0.374894
625.908 4.46813 0.463481
592.07 4.28601 -0.290756
223.461 11.1121 -0.477646
460.22 15.9756 0.207132
337.176 6.22419 0.322476
419.958 18.7721 -0.331289
805.793 46.0469 0.0985397
208.113 24.8389 -0.411393
848.595 6.7734 -0.435897
802.61 42.4273 0.321183
414.861 10.1992 -0.161035
779.654 2.47066 0.431078
656.602 25.3368 -0.399157
808.213 21.1165 0.347513
467.682 44.4199 0.0801045
538.542 12.2667 0.380432
504.149 44.0572 -0.219518
482.956 8.69941 -0.131595
721.14 43.3936 0.253236
719.069 40.6474 -0.306178
208.237 37.9917 0.331063
860.514 11.991 0.110339
640.464 45.9454 -0.247289
12.3469 16.7021 0.167697
441.796 24.8244 0.328096
203.032 22.5277 -0.382061
101.409 37.4009 0.200884
846.585 26.9924 -0.444573
715.426 48.7635 -0.234573
346.014 25.1717 0.351974
578.441 10.1452 0.311313
89.6886 42.5172 0.162752
268.703 25.6096 0.474085
605.77 24.662 0.357222
527.832 18.6833 0.392817
284.864 0.895291 -0.343038
600.821 40.4267 -0.34667
578.89 41.8121 -0.441688
523.509 33.1249 0.373168
541.7 0.787421 -0.48904
766.344 18.5949 0.39357
194.742 11.7608 -0.166241
544 35.2213 -0.416775
613.861 41.6492 0.0550719
78.6723 0.906155 -0.281545
272.998 4.60218 0.17481
875.764 18.5479 -0.192026
863.643 13.1704 0.407967
881.919 21.973 0.475133
329.146 8.49377 -0.23303
813.237 23.9888 0.40797
442.664 40.5446 0.313273
487.228 0.812105 -0.399589
708.366 37.5789 0.404466
29.4717 29.9157 0.305042
358.824 40.9728 -0.451034
273.951 2.78144 0.302055
854.315 48.5399 -0.181929
777.775 50.6854 -0.229184
311.632 10.7247 0.18502
725.631 32.9601 -0.087948
606.522 2.70413 0.29657
589.734 6.27251 0.434511
105.641 17.0879 -0.529917
329.031 1.04024 -0.221748
372.721 2.28033 -0.356697
15.0213 7.74719 0.459678
4.55506 30.2276 0.247977
175.921 18.7427 -0.355833
74.4982 40.9989 0.207531
72.4631 28.336 -0.318239
459.741 14.3188 -0.420083
398.828 34.7489 -0.475381
832.496 40.2569 0.123213
21.2758 3.96728 0.280211
76.3256 6.77097 0.151542
681.138 39.4378 0.137208
320.044 0.931457 0.317469
396.893 16.2539 -0.101268
256.219 4.58369 -0.362403
713.277 23.0501 0.172361
490.514 8.27945 0.40088
815.451 20.9908 0.3653
686.446 29.5294 -0.304648
729.335 20.0373 -0.0953337
457.059 26.336 0.463914
111.086 43.8675 -0.30231
589.517 41.7162 0.0666559
805.523 16.3924 0.183863
258.463 29.7396 0.244693
34.8344 16.6086 0.162854
365.454 13.6558 0.481723
117.416 39.7808 -0.463442
291.077 41.5742 -0.182466
462.267 1.05762 0.183456
853.676 35.4581 -0.405888
747.974 0.762153 0.561451
361 3.09503 0.492055
325.899 26.3207 -0.145666
502.647 41.0543 -0.195789
88.3818 7.72198 -0.482425
215.31 44.4966 0.377386
839.621 34.6401 0.371913
538.242 38.526 -0.0663942
217.512 40.5001 0.245608
174.739 41.5813 0.386944
882.96 39.4599 0.383538
879.845 13.0415 0.515751
660.537 3.25765 -0.548648
206.783 23.5727 0.0947978
598.019 28.3072 0.0946931
600.104 28.062 0.268218
444.775 5.53578 -0.138673
523.663 0.919927 -0.285829
830.994 42.6563 0.480604
92.9839 29.8959 -0.21276
717.549 19.0616 0.434329
298.246 15.4139 -0.331607
10.8328 2.29872 -0.351351
137.044 35.9127 -0.19056
72.7459 22.9729 -0.440973
767.74 37.3817 0.311773
859.351 56.5284 0.162744
202.129 27.5561 0.177982
872.131 13.7335 -0.377146
48.7773 36.1656 -0.246138
99.2669 27.6027 0.163751
691.811 13.8982 0.435253
449.656 17.802 -0.48222
565.067 16.4948 -0.099497
258.96 27.7775 0.164203
678.17 4.51537 0.399438
882.637 12.8794 -0.399147
32.6793 31.1081 -0.264135
293.667 7.61632 0.189842
241.692 15.0344 -0.267872
1.10939 35.2088 0.147893
245.242 14.4225 -0.351545
230.638 10.9887 -0.140424
233.429 26.0018 0.279791
144.822 27.3317 0.13074
596.063 15.0826 0.307752
182.08 14.0049 0.339548
848.145 51.7742 -0.224446
189.447 3.72852 0.481003
51.5669 37.0036 -0.356668
813.256 53.6108 -0.426926
306.07 31.195 0.377035
738.606 25.6682 0.415881
860.655 35.6863 -0.47481
327.178 9.11398 0.106077
800.372 33.897 0.352302
357.698 2.63018 -0.35514
453.216 23.6452 0.353315
734.601 17.4517 0.467219
115.028 11.7452 0.428971
525.353 3.94098 -0.468602
819.227 19.9455 -0.171081
96.0403 7.45982 0.180101
306.324 14.5129 0.189392
460.672 11.4721 -0.235355
873.569 2.17695 -0.516147
432.711 1.88832 -0.481041
192.646 38.0826 0.268585
806.73 10.6192 0.398998
140.409 35.4833 -0.183486
286.478 31.2483 -0.378765
435.864 21.3024 0.207584
625.922 13.9475 -0.305915
421.117 9.59254 0.418924
496.757 27.5216 -0.410671
840.678 59.5948 0.333023
51.7569 10.9737 -0.100069
325.926 37.3823 -0.261283
413.216 26.1771 -0.38692
446.009 20.5617 0.25067
569.274 43.8645 -0.356462
823.028 43.2948 -0.1925
726.027 38.6919 -0.339995
245.998 33.69 0.385801
15.1641 30.597 -0.151906
717.26 41.5902 -0.12381
555.93 41.9126 -0.440279
249.704 38.7705 0.0955885
746.911 33.0396 0.125526
164.665 9.13646 0.209494
399.466 21.4734 0.310071
504.597 41.9172 -0.0994992
450.742 19.1305 0.206561
837.052 56.2562 0.292923
463.704 3.26945 0.440761
54.3282 24.9262 -0.294252
511.952 31.3147 0.325671
473.62 42.3815 0.346396
849.758 43.1032 -0.223986
797.647 35.2385 0.237946
590.545 18.6084 -0.156613
843.253 45.1665 -0.412241
319.097 2.04343 -0.429475
412.81 28.9448 -0.460838
32.003 38.2511 -0.292443
803.483 33.9068 0.145179
665.464 19.9938 -0.48427
504.098 0.779553 -0.470987
137.601 4.47765 -0.283855
465.093 40.2885 -0.0958281
13.3539 0.925441 0.308782
873.754 5.13465 0.0905698
403.431 39.0749 0.393731
[...]
POINT_DATA 13483
TENSORS Strain_matrix float
-0.0828295 0.204618 -0.228615 
0.125958 0.0787687 0.194766 
0.00152969 -0.000907537 -0.0567144 

-0.155564 -0.357623 2.48981 
0.180259 0.376957 -0.243116 
-0.002208 0.0133101 1.33687 

-0.0179099 -0.00467056 0.247821 
-0.00219222 0.0140196 -0.0387028 
2.37913e-05 0.00113232 -0.0705114 

-0.288394 -0.156973 -0.247258 
0.0144259 0.235442 0.80151 
0.0700768 0.0414672 -0.0940749 

-0.0214693 -0.0221832 0.0246059 
-0.0158614 0.00879199 0.00533501 
0.00940543 -0.0128322 0.0172599 

-0.00698976 -0.00325038 0.180985 
-0.00322965 0.00535659 0.0536198 
0.000223152 0.000284014 0.0200715 

-0.0127263 0.00655282 0.0733424 
-0.000317645 0.00192986 0.139171 
-0.00031098 0.000142926 0.00390201 

-0.0162633 -0.0332905 -0.0488785 
0.0062359 0.000243771 0.00569825 
0.00116585 -0.000194311 0.0105509 

-0.0378056 0.000347069 0.0136084 
-0.0960184 0.0274152 0.179967 
0.00119057 0.00177102 -0.0353676 

-0.0314315 0.0387963 0.30691 
-0.0629802 7.42906e-05 0.0932398 
-0.0047757 0.00332921 0.0209228 

-0.0230689 0.0173365 0.00511268 
0.00257193 0.0151994 0.0195384 
0.000103095 -0.000520288 -0.0105642 

-0.01521 -0.00399218 0.011914 
-0.0074245 0.00459254 0.00407815 
-0.000245009 0.000598806 0.000925508 

0.00792755 -0.0165533 0.00565865 
0.0410725 -0.0142678 -0.0356388 
0.000288425 0.000355837 0.00154632 

-0.0135442 -0.102167 -0.231654 
0.066992 0.0565951 -0.00505112 
0.00632421 0.00485126 0.0635227 

-0.012615 0.00728955 0.801856 
-0.00330399 0.00580436 -0.457499 
0.000302489 -0.000445597 0.12036 

-0.0128304 0.0178328 0.0195664 
-0.0232796 0.00505128 0.0584902 
0.000395359 0.000401496 -0.0112794 

-0.0588891 -0.049904 0.147073 
-0.00142814 0.0168671 -0.148673 
-0.000143098 0.00180748 -0.0196009 

-0.0268268 -0.0305206 -0.0210788 
0.00068796 0.0247519 -0.0860425 
-0.001733 0.00165772 0.0313685 

-0.0153651 -0.000867137 0.808015 
0.0237924 0.0161982 0.387294 
0.000178138 0.000342012 0.0410395 

-0.0260064 0.0216784 0.121228 
0.00954155 -0.00628985 -0.243116 
0.0353577 0.000193799 0.186865 

-0.00156394 0.0170787 0.00925381 
-0.0113511 -0.00069863 -0.0184366 
0.000506045 0.000197606 0.00495638 

-0.00235213 -0.00721641 0.220617 
-0.145819 -0.107084 -0.126851 
0.0571309 -0.150868 0.868318 

-0.0621069 -0.112495 1.25978 
-0.176402 0.133742 0.558654 
-0.00319163 0.00386266 -0.0847411 

-0.0827573 -0.0019009 -9.97391 
-0.0132283 0.257735 23.4456 
-5.73267e-05 -0.00160945 -0.338357 

-0.0210899 -2.2129e-05 0.182145 
-0.0479562 0.0409916 -0.15962 
0.00100607 -0.00119115 0.0406169 

-0.0243913 0.0115996 -0.0517997 
-0.0102079 0.0228106 0.0656005 
0.00714512 -0.0277593 0.00578564 

-0.00949992 -0.00840759 3.16514 
-0.0183722 -0.00240833 6.06591 
0.00314152 0.00271185 0.316631 

-0.102332 0.0209501 -0.316433 
-0.121276 0.0467075 -0.212955 
0.00228876 -0.00170682 0.00265386 

-0.00966242 0.00189681 -0.0477084 
0.00760958 0.00440466 -0.398561 
-0.000102061 -0.000402068 0.0172115 

-0.125557 -0.212498 0.419376 
0.306709 0.116487 1.11467 
-0.00437577 -0.0182224 -0.151399 

-0.0292247 0.00328311 -0.0609166 
-0.0555331 -0.0122517 -0.0358646 
-0.00151937 0.00121423 0.0454862 

-0.0104986 0.00349221 0.0799412 
-0.0656149 0.0191247 -0.131565 
0.00117674 -0.000807917 0.0268006 

0.0205446 0.0466998 -0.14462 
-0.224233 -0.0363786 -0.452252 
0.0421569 -0.0506224 0.853965 

-0.0317425 -0.00689848 -0.205361 
0.00813162 0.0164494 -0.615847 
-0.000653712 -0.00247335 0.117394 

-0.0082204 -0.0415239 -0.126894 
-0.0259004 -0.0426694 -0.118299 
-0.00142785 0.00212454 0.0162248 

0.00789271 0.0652574 0.130742 
-0.0557024 -0.0219302 0.21319 
0.000153858 0.000807389 0.0357531 

-0.00380561 -0.00325599 -0.927649 
-0.0188348 0.019693 -0.365608 
0.00099822 -5.23751e-05 0.0760649 

-0.0491977 0.0161531 -0.165008 
0.0299308 0.0499623 -0.230597 
0.0026953 -0.000277292 0.00653731 

-0.0384545 0.0202728 0.11718 
-0.0361047 0.00692661 -0.0331284 
-0.000588083 -0.000174921 0.00661107 

-0.00454612 -0.00272936 -0.00753483 
-0.0236319 0.025841 -0.290205 
-0.000936443 -7.02363e-05 -0.0142924 

-0.0212177 -0.00674373 -0.0855201 
0.0137733 0.0324077 -0.178499 
0.00288401 -0.0002428 0.0161541 

-0.0262925 -0.0671382 0.368381 
-0.00423714 0.0302592 -0.141514 
-0.00454386 0.00963608 -0.0305429 

-0.0834165 -0.00552058 -0.0105985 
0.00704414 0.00635056 -0.0106661 
-0.0396446 0.0100615 0.115722 

-0.0180323 0.00976498 -0.00192047 
-0.0106671 0.0052665 0.0431193 
-0.000850183 -0.000754349 0.00253538 

-0.0153611 0.0041994 -0.00178569 
-0.00230594 0.00318659 -0.0178365 
0.00134164 0.000561597 0.0220097 

-0.0117056 -0.00322355 0.0288999 
-0.00343514 0.00373445 -0.0303254 
3.06576e-05 0.000480854 -0.0143519 

-0.0527805 -0.00384145 -0.125672 
0.0262424 0.027354 -0.0542052 
0.0235988 0.0015916 0.0475163 

-0.0237247 -0.00982561 -0.0112041 
0.0291341 0.0329744 -0.0528359 
0.000621398 -0.000214127 -0.000598716 

0.0110028 0.0265794 -0.777238 
-0.0347712 0.0216527 0.329852 
-0.000369635 -8.94584e-05 -0.00328064 

-0.0425576 -0.187469 -2.04306 
0.146004 0.157325 -0.00264271 
0.00891725 0.00112508 -0.0273785 

0.00115487 -0.0400104 -0.333527 
-0.027312 0.0181766 -0.269476 
-0.00123391 -0.000620701 -0.0092359 

-0.172529 0.195984 0.112207 
-0.124923 0.178066 -0.168585 
-0.0173134 -0.0551355 0.672877 

-0.00613025 0.0301515 0.0104387 
-0.0226609 0.0028069 0.00588015 
0.000513799 9.19327e-05 0.00960468 

-0.0258175 0.0270055 0.029004 
-0.011874 0.00518091 0.0929988 
-0.00227299 0.000493192 0.0362537 

-0.0204945 0.00742479 0.0253667 
-0.00653106 0.00178435 0.03914 
0.000979461 -0.000456445 0.0145238 

-0.00345617 0.0404369 -0.812312 
-0.0232858 0.00710993 0.612765 
-0.00236554 0.00529345 0.72826 

-0.00497339 0.0579348 -0.202045 
-0.0450118 0.0383134 0.00558694 
0.00386001 -0.00010521 -0.0189533 

-0.0228142 0.145876 0.0554528 
0.00447269 0.0119921 -0.0413296 
0.000326431 0.00565812 -0.0372099 

-0.0101417 -0.0015563 -0.0203279 
-0.00174288 -0.00254584 0.0222955 
0.000335673 0.000715764 0.0230268 

7.27542e-07 -0.0225101 0.0309012 
0.0275303 0.0316067 -0.14341 
1.27171e-05 0.00093861 -0.0205112 

-0.151307 -0.114304 0.352996 
0.161753 0.154314 0.17659 
0.0302467 -0.0324032 0.112107 

-0.0388742 -0.0677527 0.252647 
-0.0857519 -0.0182709 -0.110667 
-0.000430242 0.000476252 0.0219844 

-0.021159 -0.044869 -0.0659482 
-0.00527331 0.00777972 -0.0272312 
-0.00662117 0.0434767 0.108625 

-0.0170186 0.0439592 0.089914 
0.0350751 -0.0045624 0.115337 
0.0310183 -0.00106269 0.234489 

-0.0290409 0.0241154 0.340167 
-0.038411 0.0100047 0.0596194 
0.000182417 0.000131852 0.00250453 

-0.0179767 0.0242101 -0.00641167 
-0.00768409 0.0217081 0.0203654 
0.000580613 0.000274937 0.0119933 

-0.0514177 0.0382684 -0.206691 
-0.114705 0.00299866 -0.134864 
-0.0601393 0.0254823 0.248207 

-0.011944 0.11267 -0.0447255 
-0.128143 0.0505718 -0.221262 
0.000695769 -0.00222303 0.0983712 

-0.0207133 -0.00126969 0.040803 
-0.00344014 0.00892204 -0.461961 
-7.06163e-05 0.00135129 0.0133948 

-0.0208933 -0.000863525 -0.00174201 
-0.000780943 0.0159627 -0.0196548 
0.000924658 -0.00121203 0.0121242 

-0.0423168 0.0883399 -0.0341406 
0.188838 0.0256915 0.337049 
-0.00510082 -0.00582602 -0.00921184 

-0.0110516 0.00502072 0.0157073 
-0.000462901 0.00986192 0.00409912 
-0.00040993 0.000270466 -0.00502137 

-0.00910222 0.0426662 -0.173311 
0.0197953 0.021937 -0.0917354 
-0.00120075 -2.85953e-05 -0.0135924 

0.00548773 0.0173307 -0.0591417 
0.00065448 0.00628487 -0.0438996 
0.00184585 0.00038746 -0.00390324 

-0.00891146 0.0150722 0.00499291 
-0.0229429 0.00314807 -0.292459 
-0.000425303 -6.61858e-05 0.0334938 

-0.0313756 -0.024856 0.00856348 
0.0351163 0.0317777 -0.00661482 
-0.00102211 -0.00123135 0.00946785 

0.0280505 -0.0728592 -0.797838 
0.0702511 -0.00149284 -0.28087 
0.000568383 -0.00355522 0.0259972 

-0.0113483 -0.028674 0.00876229 
0.0573225 0.0218065 -0.00511982 
-0.000146127 0.000430479 -0.00286009 

-0.0499357 0.0188927 -0.603231 
-0.239827 0.121374 0.247596 
-0.0124724 0.00529871 -0.0655544 

-0.0102961 -0.0324654 -0.0196771 
0.0057753 -0.0125015 -0.104165 
0.0011965 0.00338101 0.0558487 

-0.0742112 -0.000711438 0.504387 
0.0392856 0.0236649 -0.737218 
-0.000206456 -0.00718387 0.115914 

-0.0136903 -0.0967865 0.125239 
0.0819592 0.021535 0.0147841 
-0.000825787 0.00144048 0.00370941 

-0.0104459 -0.0149506 -0.0542013 
0.00113928 0.0159068 0.0243978 
0.000134516 0.000181103 0.00317737 

0.0125872 0.167053 -0.162391 
-0.0473941 0.0194274 0.911024 
-0.00701704 -0.0227577 -0.0556651 

0.00086464 0.0128916 0.0218857 
-0.00310497 -0.00620375 0.000397623 
-0.00101555 -0.000827491 0.00885623 

-0.109701 0.177183 0.804341 
-0.0607174 0.115594 -0.148222 
-0.00876284 -0.0659469 0.12322 

-0.0682146 -0.504433 -0.735673 
0.0288144 -0.00792621 -0.128807 
0.00109889 0.03269 0.186538 

-0.0597118 -0.0261446 -0.397627 
-0.0206939 0.0577982 -0.356426 
-0.000965648 -0.00147501 0.0349026 

-0.0357486 0.0246985 -0.0666364 
-0.0359663 0.000680725 -0.0362713 
0.00349359 -0.00403479 0.0663453 

-0.0288171 0.0141223 -0.0630773 
-0.00250977 0.00818003 -0.0181372 
0.0041179 -0.0199645 0.162803 

0.000345469 -0.0242907 -0.122892 
0.0983534 0.0447802 0.225305 
0.000631679 1.40018e-05 -0.00389559 

0.000906828 -0.00877192 -0.160817 
0.0475974 0.0148428 -0.0525362 
-0.0080901 0.0193341 0.0632865 

-0.0957408 -0.0685826 -1.30531 
0.0303812 0.076005 -0.530818 
-0.00493825 -0.00600022 0.0328101 

-0.0704322 -0.0615504 0.248285 
-3.68154e-05 0.0152572 0.0546258 
-2.98184e-05 0.0012465 -0.00542862 

-0.010212 0.0498679 -0.879705 
-0.0269587 0.0101205 1.0327 
0.000251392 0.000235377 0.0111891 

-0.027185 0.00769169 -0.0171263 
0.00444135 0.031651 -0.0649211 
0.000657077 -0.00805203 0.0368107 

-0.0237447 0.0145017 -0.193378 
-0.00314043 0.0120506 -0.152449 
-0.00167406 0.0014171 -0.0213763 

-0.370979 0.0673369 -0.293676 
0.326376 0.315882 -0.861988 
0.00451543 0.00224322 -0.0450288 

-0.104146 -0.0788736 -0.0321686 
0.326933 0.079124 0.631926 
0.0210102 -0.011377 0.348444 

0.00203979 0.0327707 -0.0613555 
-0.0186278 -0.0157808 -0.0580161 
-0.000481722 -0.000594048 0.0156985 

-0.00800397 -0.0211514 0.385866 
0.0240554 0.00782178 -0.265947 
-0.000186146 0.000598676 0.0399083 

0.0152904 0.00353702 2.98501 
0.00639015 -0.00065859 2.52722 
-0.000457942 0.000205887 0.13285 

-0.0617153 -0.0407192 -1.88246 
0.0196913 0.0485932 0.721058 
0.00373584 0.0194863 0.248859 

0.00125064 0.014071 0.00154829 
-0.00424117 -0.00369367 -0.0726615 
-0.000253922 0.000241646 -0.00247132 

-0.0223795 -0.00756991 0.432904 
0.00494038 0.00105792 -0.726497 
0.00171897 0.00398355 0.0505773 

-0.145232 0.0628247 -0.0050766 
-0.0576497 0.105386 0.00298517 
-0.0032365 0.00152485 0.0711612 

-0.317904 -0.196779 0.353616 
0.202133 0.239035 -0.181583 
0.00540156 -0.0200483 0.0236394 

-0.00375473 0.00324259 0.211507 
-0.0346171 -0.00163347 -0.190337 
-0.000198938 -0.000257643 0.0178983 

-0.0302554 0.0192146 0.076596 
0.0120517 -0.00236668 -0.0495225 
0.00167626 0.00102928 0.0335803 

-0.0398705 -0.0296326 -0.227077 
-0.0184942 0.0381794 -0.509799 
0.00150445 -0.00161621 0.12617 

-0.115748 0.0186658 0.013893 
0.0884013 0.106421 2.31125 
-0.0101067 -0.0478069 -0.689177 

-0.0128766 0.0118625 1.7101 
-0.000117396 0.00599102 -1.46811 
0.00730524 -0.00302925 0.164307 

-0.0167662 -0.00084725 0.0340363 
0.0139783 0.000184656 -0.0208711 
-0.000424856 0.000353485 0.0277355 

-0.00360425 -0.0219157 -0.436669 
0.0385086 0.0236906 0.404745 
-0.000288931 -0.00130994 0.0661341 

-0.100006 0.0487294 -0.208188 
-0.0453329 0.131189 0.276521 
-0.00133324 -0.00153872 0.0363309 

-0.00553745 0.0213468 -0.14332 
-0.0101891 0.00892186 -0.305613 
-2.56897e-06 -0.000298307 0.00577564 

-0.0103499 0.025928 -0.0201127 
-0.0282333 -0.00051104 -0.00100863 
0.00163365 -0.00089484 0.00944292 

-0.0110936 0.0107251 -0.012409 
0.00587779 -0.000545148 0.0361788 
-0.000238909 -0.00156492 -0.0248141 

-0.137754 -0.0484255 0.154019 
-0.0224635 0.114515 -0.0436568 
-0.00344829 -0.00288647 -0.0172103 

-0.0183384 -0.0115316 0.411586 
0.0852692 0.0227268 -0.00102876 
3.15666e-05 -2.25401e-05 -0.000683556 

-0.19619 -0.0644546 0.0283656 
-0.0549173 0.0938973 0.0316201 
0.0325644 -0.0841469 0.154432 

-0.107986 -0.0513617 0.46173 
0.0142132 0.0390484 -0.306733 
-0.0176012 0.0115564 0.450787 

0.00886047 0.0209327 -0.0407206 
-0.0535714 -0.010389 0.18921 
-0.00130849 -0.000290787 0.010523 

0.0042574 -0.0630257 -0.0156201 
-0.0089318 0.00800171 0.145676 
0.00295226 0.000317918 0.00955102 

-0.0222527 0.00266894 -3.08455 
-0.0113685 0.0159694 2.24644 
-0.000122963 -0.000683701 0.238094 

-0.0218244 0.0137852 0.149096 
0.00312133 0.00203485 -0.221711 
-0.000594007 0.000111178 0.0775679 

-0.0308589 0.0143642 -0.0430701 
-0.0190677 0.0245671 -0.0529372 
0.00124089 0.000411441 0.0104273 

-0.0163276 0.0132811 -0.029161 
-0.0211656 0.0304874 0.224463 
0.000190551 0.000492085 0.0178369 

-0.183523 0.0111084 0.367714 
-0.257069 0.167107 0.616148 
-0.0010641 0.000510076 0.00157179 

-0.0171916 0.00289016 0.0361128 
-0.00423902 0.00811489 -2.36859 
-0.000281615 -0.00107127 0.257448 

-0.355775 0.0415674 0.356782 
0.0829635 0.199187 0.431701 
0.0136965 0.0218202 0.0878615 

-0.00521262 0.0679064 0.0114555 
-0.0661359 -0.00683695 0.0259342 
-0.0236901 0.00101435 0.0395485 

-0.123681 -0.0251992 -0.294995 
0.122406 0.124078 1.00385 
0.00559155 0.0111327 0.0538608 

-0.074352 0.104597 0.232239 
-0.00352788 0.0410768 0.0787384 
-0.0838448 0.0077774 0.197557 

-0.171167 0.0425323 -0.16466 
-0.173856 0.143467 -0.0719549 
-0.00208725 0.00389678 0.0423483 

-0.0448756 -0.0218243 0.157695 
0.044685 0.0405945 -0.0753522 
0.000901167 0.000467205 0.00175097 

-0.0230796 0.0547028 -0.412174 
-0.0535386 0.029573 -0.134624 
0.000439657 0.00122589 0.00469954 

-0.0321084 0.00875375 0.323266 
0.0322292 0.0251657 -0.367559 
-0.00064076 0.000194527 0.0161035 

0.00205583 -0.0190937 -0.0381834 
0.0207718 0.000282449 0.000492331 
-3.05937e-06 -0.00390047 0.0141234 

-0.0208789 -0.0178612 -0.0206646 
0.0689498 0.00842653 0.0296467 
0.000705463 -0.00135318 0.00893588 

-0.0218325 0.0208395 -0.18178 
0.00500249 0.0182964 -0.245559 
0.000642486 2.78325e-05 0.0464657 

-0.0143494 -0.109312 -0.0400214 
0.0908803 0.0330565 -0.126533 
0.00090546 0.00101173 0.011362 

-0.00156625 -0.0232085 -0.135098 
0.0689191 0.0921602 0.0590421 
0.0021918 0.00197734 0.0595204 

-0.00450434 -0.0205831 0.0349979 
0.0189799 0.0133909 1.14152 
0.000102311 -0.000363692 0.0378158 

-0.0107967 -0.0615972 -0.0074499 
0.0183377 0.0250061 0.0132655 
0.000361818 4.54269e-05 0.00106606 

-0.0788171 0.242954 1.63789 
-0.310712 0.0765559 0.648256 
0.00768868 -0.0120342 0.133436 

-0.128869 -0.195193 -0.677271 
0.281934 0.234628 -1.08419 
-0.00109755 -0.0033069 -0.0615305 

-0.00666684 0.0209368 -0.00562596 
-0.00628388 0.0029134 0.0324464 
-0.000636514 0.00053042 0.0138863 

-0.0174904 0.0319368 -1.13178 
-0.0313728 0.00927843 -0.589127 
0.000910307 -0.000531752 0.018351 

-0.0210296 0.00295438 -0.00569049 
-0.0217061 0.00544104 0.0209621 
0.00105488 0.000133058 0.00810363 

-0.0107508 -0.0974282 3.6949 
-0.00976258 0.0283908 4.10085 
0.000868774 -0.000296159 0.237479 

0.0141857 -0.00322678 -0.186331 
-0.00127222 0.00098476 -0.111454 
-2.88334e-05 -0.000248124 -0.00741144 

-0.0286549 -0.00327864 -0.109348 
0.0106774 0.0195227 0.00244973 
-0.00124052 -0.000475531 0.0112257 

-0.0222691 0.00800506 -1.7443 
0.0137307 0.0149459 -0.453225 
-0.000427026 0.000329444 0.000330583 

0.00513779 0.00136523 0.0896784 
-0.00908352 0.00216404 0.0920981 
0.00163348 0.000262185 0.0176491 

-0.0944999 0.0113456 -0.752746 
0.172332 0.108533 -0.286057 
0.000672303 -0.00503146 0.0470384 

-0.0169359 0.035929 -0.731084 
0.0372631 -0.0045691 -1.37766 
-0.00133044 -0.00155247 0.031192 

-0.0189187 -0.00500417 -0.0587786 
0.00232659 0.00757895 -1.44696 
-0.000177243 0.000257374 0.0616747 

-0.324043 -0.0432868 0.10482 
-0.323654 0.237666 0.635597 
0.0239683 0.029492 0.146295 

-0.666502 -0.152557 1.20377 
0.289186 0.450086 -0.892467 
-0.014312 -0.0182092 0.385442 

-0.051107 0.0509582 1.87225 
0.0052142 0.0342441 -1.6426 
-0.0114572 -0.0107616 -0.0324078 

-0.0647836 -0.00137467 0.257065 
0.000697572 0.02566 0.104997 
-0.028438 -0.0097722 0.480419 

-0.0267327 -0.103325 0.368292 
0.0672764 0.0727443 0.585287 
0.000785535 0.00132384 0.0518786 

-0.0393768 0.0185501 1.35589 
-0.0324428 0.031201 -2.86267 
-0.00296045 0.000812511 0.042721 

-0.031701 -0.0408655 -0.542074 
0.0408449 0.0531119 -0.0139977 
0.0115805 -0.0136413 0.0162613 

-0.191333 0.211684 0.154376 
-0.0692194 0.10112 0.233904 
-0.0177394 0.0227006 0.0868714 

-0.0152805 0.00563859 0.0319823 
-0.0184917 0.0179121 -0.0339981 
0.000145179 2.82244e-05 0.00630375 

0.00759384 0.0189177 0.0282426 
0.00576264 -0.00185505 -0.00169502 
0.000517641 0.00176555 0.010788 

-0.0140135 -0.00448478 0.0927584 
-0.00139702 0.00873317 -0.0748059 
-0.00010547 -0.000621743 0.0244842 

-0.018661 0.0111532 0.0179571 
0.00347254 0.00809572 -0.00164261 
0.00168731 0.000458817 0.0318148 

-0.0136877 -0.00614449 -0.00649733 
-0.0107681 -9.80009e-05 -0.0407698 
-2.31589e-05 0.000409599 -0.0132896 

0.0493755 -0.00679065 0.0070622 
0.0663541 -0.0253363 0.115784 
0.000234786 -0.000350191 0.00810907 

-0.0259856 -0.0129406 0.0571255 
-0.0881826 0.0460367 0.00822476 
0.000836402 -0.00373803 0.0168434 

-0.0658759 -0.0530558 -2.62026 
0.0412298 0.0799016 -0.245956 
-0.00432889 -0.01345 0.159884 

-0.0387509 0.0227123 0.165852 
-0.0662605 0.0595265 0.0517188 
-0.0267259 0.00898531 -0.0233815 

-0.00596536 0.00926484 -0.0225243 
-0.00944101 0.00099049 0.0188188 
0.00116534 -0.000107321 0.00786674 

-0.405902 0.283123 2.2615 
-0.164787 0.256824 0.931829 
0.00514588 -0.0207572 -0.10722 

-0.023925 -0.0157697 0.0355704 
-0.0125367 0.0205795 -0.00785923 
0.00186856 -0.00221846 -0.0112708 

-0.00389571 -0.0103902 1.88255 
-0.0766904 -0.0425012 0.84917 
0.0119475 0.00687457 0.0880237 

-0.072821 -0.0117585 -0.0912691 
0.0137971 0.0277551 -0.017511 
-0.00369572 -0.0138649 0.0757759 

-0.0166055 -0.000362666 0.00035224 
-0.00357802 0.0140736 0.0356442 
-0.00936256 -0.00191104 -0.0338601 

-0.170829 0.104612 0.144252 
-0.195664 0.137414 -0.468351 
-0.0385732 -0.0720952 0.270842 

-0.00918596 -0.00744095 0.0299798 
0.0145069 -0.00938949 0.0125022 
0.00248356 -0.00187604 0.0311782 

-0.0142971 -0.0039518 0.31527 
0.00865872 0.0108572 0.0162384 
0.000457865 -0.000343532 0.0076238 

-0.0316751 -0.104966 -0.0527571 
0.0234528 -0.0132344 -0.0533013 
-0.00102608 0.000115841 0.0438727 

-0.00971388 -0.000292502 -0.00731718 
-0.00183607 0.000757747 0.00785972 
0.000997395 -0.000501515 0.00724001 

-0.0530281 0.00513162 0.238788 
0.0165414 0.0593146 0.0912015 
-0.015341 -0.0285994 -0.055517 

0.0457233 0.690273 -0.310502 
-0.243896 0.0735495 0.110827 
-0.0314656 -0.0763548 0.232527 

-0.035421 0.0117651 0.604677 
-0.0303706 0.0296635 -0.067776 
-0.00232501 0.00117563 0.0217473 

-0.141409 0.156712 -4.50282 
-0.14225 0.0867081 -1.18335 
-0.000426085 -0.00210953 0.167992 

-0.0818868 0.218678 0.633409 
-0.248769 0.146209 0.753617 
0.000519571 -0.0225109 -0.255915 

-0.0134117 -0.0435217 -0.0182189 
0.0259338 0.00994202 -0.0028181 
0.00166943 0.000456526 -0.0102014 

-0.299228 -0.192421 -0.480312 
0.0504605 0.22813 0.354155 
0.00248355 -0.0250885 0.232705 

-0.104033 0.190453 -0.232945 
-0.0341104 0.099743 0.72126 
-0.00295942 -0.000357731 0.0597187 

-0.136758 0.113462 -0.931351 
-0.183914 0.0473862 -0.40556 
0.000589639 0.0014787 -0.0486889 

0.14591 0.111006 -1.97286 
-0.660808 0.346428 0.199145 
0.0605804 0.1116 0.351395 

-0.00404566 -0.0104759 -0.0298206 
-0.0116081 -0.0173512 -0.00126883 
-2.57459e-05 0.00273616 0.0271943 

-0.00739077 -5.40609e-05 -0.0434881 
0.0191211 0.0217051 -0.0640881 
-0.000544401 -0.000340656 -0.000324662 

-0.0396067 0.00177647 -0.0252307 
-0.0259389 0.0279782 0.0482374 
-0.00284001 -9.96353e-05 0.0333373 

-0.0601313 0.0527696 0.724742 
-0.160021 0.0554066 0.0125023 
-0.0521975 -0.0182759 -0.0166911 
