# vtk DataFile Version 3.0
Output file generated by Yade's KinematicLocalisationAnalyser
ASCII
DATASET UNSTRUCTURED_GRID

POINTS 13483 float
638.407 29.0479 -0.418797
797.802 62.9548 -0.402364
126.195 6.21475 -0.450078
834.711 13.1933 -0.249277
524.452 7.73189 0.301267
329.847 34.7622 -0.454931
164.256 6.79039 -0.422555
598.4 10.4872 0.126801
521.374 24.0229 -0.155741
752.391 15.4207 0.379429
221.062 8.95211 -0.0965733
269.299 6.25136 0.296726
686.133 33.1386 0.149898
664.628 17.5433 0.0774352
143.948 17.2266 -0.465914
232.182 34.5868 0.397185
228.547 12.9723 -0.271402
302.752 9.50622 0.378661
357.113 32.0919 0.439659
551.048 8.60526 0.355635
432.436 35.9435 -0.0998759
621.849 48.4276 0.261129
832.352 46.286 -0.459583
734.447 53.167 0.441348
482.284 16.6993 0.29109
252.53 44.5326 -0.126728
516.194 28.6441 -0.468138
616.383 20.5745 0.224691
46.9311 15.4056 -0.460515
750.872 39.2521 0.363875
506.843 4.85894 0.338608
17.0851 23.1969 0.311684
809.86 59.8985 -0.243031
520.272 2.47326 0.487676
82.5575 44.1447 0.100752
548.058 30.4879 0.331719
557.426 16.5683 -0.416437
360.595 21.8009 -0.200287
561.367 25.7319 -0.309692
368.389 33.4333 -0.385482
252.956 14.4569 -0.312436
457.07 36.1522 -0.0643473
709.843 6.54886 0.199728
202.663 6.29188 0.360211
58.1743 6.9932 0.0844134
71.7915 8.84775 -0.265745
725.562 7.72328 -0.642055
24.8597 11.712 -0.290085
644.496 49.6521 -0.355758
709.108 25.9394 -0.317791
180.966 32.2585 0.282135
797.809 41.4074 0.12373
36.6036 27.9963 -0.113058
561.532 2.97873 0.341628
149.175 7.2116 0.478384
624.44 36.4295 0.389094
530.903 27.0967 0.118889
183.687 0.943034 -0.259936
34.2597 2.36263 -0.324351
366.469 17.8004 0.262336
652.785 48.6478 -0.147161
485.981 33.9512 -0.171122
419.601 1.04208 0.193089
734.746 7.72663 -0.568765
27.9255 42.7315 0.235272
269.393 30.1449 0.290296
752.269 10.9516 0.305016
707.812 50.8403 0.356008
439.078 8.52689 -0.487157
599.089 3.73728 -0.344634
778.634 35.5973 -0.381692
137.407 7.63045 -0.278598
524.449 25.9306 -0.125779
502.475 15.2039 -0.106646
309.205 16.5998 -0.334392
21.9652 13.2628 -0.237999
815.803 45.661 0.304502
349.687 39.1367 -0.280108
707.731 23.4747 0.348655
724.39 14.3518 -0.268396
827.937 12.4382 0.196022
489.082 34.6519 0.160737
97.9226 37.7659 -0.267123
721.673 41.1536 -0.223365
684.027 43.9056 0.054972
838.245 52.0276 -0.114849
822.451 0.771062 0.481031
305.858 28.41 -0.448615
656.094 6.32581 -0.121414
25.4176 5.28801 0.469921
139.664 37.9997 -0.135357
540.231 14.1561 0.203026
812.788 33.1207 0.473091
205.452 28.2628 -0.249821
46.4365 34.8536 -0.261426
519.151 1.1623 0.1381
247.962 8.80664 -0.392713
783.483 52.4881 -0.245007
802.327 30.5815 -0.26745
380.743 20.6223 -0.263995
172.758 26.6994 -0.432091
578.505 40.0533 0.404111
399.809 15.1838 -0.475908
436.27 29.3055 -0.0953902
398.396 4.45238 0.408088
577.553 10.6832 -0.082186
839.976 19.804 -0.149262
84.8899 39.1802 0.386219
353.497 4.78346 -0.176698
591.642 9.621 -0.338512
380.106 44.2948 -0.440122
26.6525 24.3664 0.454948
31.9885 5.74275 -0.338838
601.616 33.8471 0.421081
532.748 23.5328 0.155178
27.6961 36.8242 -0.411668
98.1969 29.9563 -0.226426
342.792 15.8591 -0.313478
633.651 19.1823 -0.116515
501.726 38.5002 0.294126
767.694 7.55226 0.567101
760.116 6.66201 0.32523
409.198 37.1888 -0.094509
670.318 29.6104 0.0942865
251.131 17.0241 -0.516225
348.479 3.68568 0.467049
109.193 31.0668 -0.314585
122.674 23.6399 0.298427
573.519 39.7599 0.0715297
323.049 18.8467 0.484602
748.772 45.3507 0.0987312
712.517 48.5531 0.110336
509.103 20.3233 -0.404423
808.037 13.7426 -0.302225
453.263 24.088 0.24342
293.082 23.9598 -0.301867
710.98 35.8215 0.291549
294.601 29.2567 0.420008
609.718 12.061 0.191401
351.161 35.8748 0.187864
534.089 10.9526 0.524751
388.544 31.0471 0.0839487
455.185 17.2074 -0.13078
337.013 41.2677 0.432589
201.62 29.8142 0.115159
802.198 66.2507 -0.142802
835.822 22.5821 0.269358
6.38816 12.0431 -0.428512
459.994 22.2007 -0.414646
40.0684 22.074 0.100065
399.129 31.8307 -0.484654
418.744 24.4419 -0.251547
78.7932 11.7571 -0.47672
54.7468 33.173 -0.432673
239.266 13.4952 0.417452
656.758 42.9213 0.411166
612.163 21.2183 -0.457525
79.3372 20.8904 -0.484806
737.132 53.1983 0.470399
795.638 2.28717 0.532533
699.085 51.0608 0.458387
731.145 1.68791 0.616409
583.895 27.4505 -0.438764
623.671 48.0577 0.450127
543.7 18.261 -0.371651
840.79 3.1066 -0.264943
237.008 25.0325 -0.13185
135.184 34.8948 -0.197145
261.996 6.64069 0.383412
100.184 4.12497 0.273646
68.0269 10.0045 -0.202542
292.555 36.214 -0.302718
17.7047 24.8148 -0.373151
590.284 21.8262 0.423197
642.428 45.3153 -0.192716
491.715 21.3774 -0.358249
826.556 56.8847 -0.343374
431.951 8.48124 0.0866543
464.362 37.5289 -0.3787
570.003 3.47413 -0.208298
23.7847 23.8452 -0.381781
612.37 4.45996 0.474312
579.895 4.37486 -0.283203
219.028 11.2767 -0.494543
451.805 16.3034 0.180569
330.613 6.2672 0.33207
412.355 19.0072 -0.326301
776.203 53.2384 0.104918
204.428 25.2139 -0.423163
813.991 6.69581 -0.429172
773.102 47.6923 0.307427
407.183 10.2777 -0.163125
751.178 2.87451 0.397443
641.26 27.4099 -0.4266
775.916 21.9449 0.336091
459.23 44.8576 0.260329
527.745 12.3886 0.363612
494.643 44.9807 -0.219667
474.16 8.7217 -0.137475
701.268 47.6105 0.255502
699.503 43.1631 -0.296378
204.013 38.6198 0.335015
825.623 12.7526 0.116485
625.435 47.8419 -0.248696
12.1751 16.8067 0.167597
433.418 25.2361 0.331845
198.924 23.4021 -0.442266
99.7366 38.295 0.200276
811.173 30.0216 -0.428253
696.571 53.4907 -0.222084
339.169 25.35 0.346473
566.91 10.226 0.324169
87.8431 43.4544 0.053033
263.102 25.7647 0.470539
593.31 25.792 0.356499
517.875 20.2328 0.399435
279.076 0.897932 -0.343814
589.027 41.5246 -0.349942
567.19 43.4921 -0.441105
513.488 34.8492 0.379232
531.515 0.963062 -0.574953
739.688 21.9252 0.445765
191.018 12.1007 -0.170639
533.788 35.682 -0.412023
600.431 42.1832 -0.118971
77.2856 0.906693 -0.273524
267.457 4.62894 0.181145
834.987 24.44 -0.193781
827.415 15.646 0.339862
841.222 27.9583 0.452738
322.682 8.52913 -0.235911
779.584 25.144 0.386927
434.365 40.9855 0.314219
478.413 0.812903 -0.398074
689.511 40.9504 0.456039
28.533 30.4098 0.301947
351.915 41.3281 -0.457752
268.406 2.80442 0.304366
813.404 56.7001 -0.180011
752.385 58.4642 -0.227941
305.447 10.8093 0.19191
704.032 35.8636 -0.0894273
593.67 2.60307 0.268523
577.576 6.31561 0.440983
102.958 17.5277 -0.515932
322.618 1.04334 -0.223871
365.544 2.2864 -0.347825
14.6992 7.76962 0.468661
4.61182 30.7462 0.242917
172.501 18.8054 -0.364916
72.8915 41.5637 0.206364
70.9437 28.6333 -0.320194
451.44 14.5925 -0.398774
391.354 34.9979 -0.467322
795.638 42.0125 0.120626
20.7929 3.98014 0.277134
74.9534 6.86787 0.141571
664.753 42.5084 0.134428
313.682 0.92874 0.319752
389.443 16.3249 -0.10358
251.006 4.61815 -0.383074
692.992 24.2524 0.170808
481.642 8.31487 0.406589
781.511 21.8782 0.361745
669.354 32.7996 -0.299497
707.841 21.4623 -0.0838918
448.643 26.7096 0.476233
109.046 44.4459 -0.302849
576.61 43.5179 -0.0658308
773.136 17.3206 0.255315
253.254 30.6965 0.251757
33.9613 16.8249 0.170567
358.549 13.736 0.488274
115.246 40.2241 -0.466827
285.31 41.9967 -0.186906
453.825 1.0748 0.170501
813.929 41.5338 -0.387222
724.522 0.755414 0.59272
354.1 3.15588 0.513296
319.443 26.5017 -0.154994
493.032 42.0112 -0.199145
86.7673 7.86809 -0.48016
211.012 45.2247 0.377594
804.068 36.9522 0.372041
528.135 39.4061 -0.065082
212.989 41.33 0.253556
170.997 42.4127 0.395067
841.951 45.4389 0.377919
838.528 18.6943 0.459193
646.684 3.51719 -0.566335
202.634 24.6956 0.0812116
585.772 29.8799 -0.0964322
587.808 29.4499 0.260177
436.66 5.57573 -0.137029
514.078 0.92518 -0.289859
794.27 43.3545 0.50118
90.8808 30.6684 -0.213967
696.858 20.0102 0.450611
292.188 15.5821 -0.339798
10.5167 2.29936 -0.361409
133.584 36.4232 -0.189684
71.304 23.1467 -0.445079
743.255 44.3857 0.294308
818.216 64.06 0.161892
197.784 28.3147 0.174601
831.113 19.2389 -0.336814
47.657 36.4493 -0.251383
97.0644 28.3423 0.164418
674.011 16.606 0.455534
441.549 17.9867 -0.481482
554.02 16.5624 -0.100698
253.635 28.7562 -0.192467
662.229 4.94865 0.562975
841.601 18.6077 -0.34287
31.7421 31.4465 -0.263821
287.754 7.59658 0.194038
236.757 15.2615 -0.253215
1.10579 35.2653 0.146003
240.291 14.5501 -0.361829
226.005 11.1248 -0.135793
228.7 26.2719 0.285748
141.881 27.66 0.125627
583.808 15.5465 0.301535
178.428 14.0904 0.345117
806.454 58.5054 -0.217116
185.829 3.81536 0.496414
50.4695 37.2433 -0.352297
781.561 63.3937 -0.426113
300.012 31.5192 0.378873
715.213 27.7275 0.464349
820.888 42.7805 -0.520481
320.733 9.14976 0.11076
768.651 37.9121 0.401238
350.852 2.61625 -0.36439
444.836 23.9733 0.351132
712.642 18.3142 0.406259
112.496 11.8566 0.429253
515.746 3.97999 -0.470318
785.337 20.5558 -0.157257
94.2362 7.62123 -0.203224
300.177 14.6523 0.191136
452.483 11.88 -0.22684
839.395 2.0025 -0.555809
424.741 1.9283 -0.507925
188.488 38.9688 0.273113
774.188 10.3571 0.422693
136.978 36.0703 -0.17873
280.52 31.5222 -0.377628
427.866 21.387 0.217089
612.368 13.9581 -0.311648
413.215 9.62541 0.439675
487.781 27.7601 -0.418663
797.699 64.5246 -0.368094
50.7447 11.0814 -0.103001
319.333 37.4296 -0.276999
405.575 26.4563 -0.415263
437.747 20.7366 0.243032
557.59 45.1725 -0.357175
787.083 43.3677 0.20302
705.817 42.6072 -0.396278
241.104 34.3812 0.381842
14.4255 31.1871 -0.154589
698.153 44.7272 -0.118871
544.941 43.3315 -0.434857
244.867 39.7595 0.0959525
723.397 36.5609 0.109151
161.392 9.17238 0.213033
392.02 21.7119 0.309389
495.035 42.8294 -0.100042
442.37 19.4926 0.199692
796.166 59.5736 0.299354
455.274 3.25301 0.45302
53.189 25.1802 -0.303624
502.321 32.5349 0.345535
464.921 42.8796 0.356954
809.101 50.9224 -0.230236
765.126 40.3555 -0.234151
579.295 18.9333 -0.150385
803.668 49.9258 -0.430622
312.743 2.0332 -0.429691
405.595 29.4781 -0.449339
31.1049 38.5643 -0.296047
770.962 38.3961 0.144198
649.74 20.8688 -0.474183
494.931 0.77173 -0.475136
134.742 4.51579 -0.286776
456.725 40.6514 -0.0960207
12.9915 0.931016 0.316248
839 4.20562 -0.293362
[...]
POINT_DATA 13483
TENSORS Strain_matrix float
0.0690067 -0.040155 0.76444 
0.236229 -0.0625369 -0.189306 
-0.00126083 0.00087567 0.0354833 

-0.921084 0.138059 -11.1484 
0.220264 0.30051 -12.271 
0.0274023 -0.0499003 0.264481 

-0.0184671 -0.00532526 0.408973 
-0.00130307 0.0070836 -0.469325 
0.00233042 0.000385246 -0.0314764 

-0.469884 -0.526125 -2.06877 
0.454515 0.60904 1.81172 
0.000872252 0.018082 -0.0159337 

-0.169352 -0.135108 0.178227 
0.0785742 0.0957489 -0.232823 
0.0120954 0.00392755 0.237206 

-0.0222034 -0.0603773 0.319588 
-0.00415415 0.0072767 -0.147449 
0.00112096 0.000589106 -0.00472119 

-0.0119797 0.00278527 0.00731352 
0.00214088 -0.00156253 0.162548 
-0.000481463 -0.000488627 0.0146733 

-0.00323782 -0.0523296 -0.0659827 
-0.0263128 -0.0252413 -0.0576749 
-0.00384002 -0.00158019 0.0338701 

-0.0188695 -0.0332284 0.118519 
-0.0412475 -0.0100239 0.354635 
0.000606836 -0.00102609 -0.00096217 

-0.0322581 -0.0382009 0.343509 
0.00894377 -0.0724405 0.376949 
0.0330147 -0.0141176 0.18681 

-0.0256146 0.0118133 0.00222727 
0.000712928 0.0161023 -0.00554044 
-0.000676696 -0.00118199 -0.000254502 

-0.0131192 -0.00488637 -0.0187383 
-0.00338351 0.00325759 -0.0202497 
-0.000962434 0.000522376 0.00779626 

0.124149 0.12972 0.0433911 
-0.429478 -0.027026 0.41151 
0.00467576 0.00104245 0.00135951 

-0.116717 0.0255524 -0.197752 
0.214598 0.0735821 -0.516083 
-0.00322073 0.00210841 -0.0206843 

-0.00993757 0.00333649 -0.365417 
-0.0118915 -0.00922777 1.27862 
-0.000478988 -0.00164711 0.0450682 

-0.00270653 0.0073312 -0.387733 
0.0263208 0.0122017 0.282997 
-0.000275575 -0.000137376 0.0434556 

-0.0312197 -0.00908994 0.0698071 
0.00504119 0.025734 -0.144064 
0.00222826 -0.000957087 -0.00339389 

-0.0207017 -0.00477124 -0.00338111 
-0.00832682 0.0101549 0.0379041 
-0.000656344 0.000801737 0.0199484 

-0.0164758 -0.00602086 -0.049201 
0.0656816 -0.00476252 0.64471 
0.00102601 -0.000700325 -0.0182562 

-0.0188715 0.0161271 0.00237231 
-0.00869786 0.00284293 -0.0102469 
0.000524494 0.000905368 0.0153466 

-0.00591169 -0.00409513 0.115713 
0.00162398 0.00940225 0.0500216 
-0.000644253 -0.000561702 0.00262708 

-0.023764 0.0371281 -0.0232604 
-0.0491427 -0.0653591 -0.471638 
-0.00488887 -0.0503234 0.343412 

0.027851 0.0206863 -0.158426 
-0.0413217 -0.0132881 -0.875238 
-0.00147893 -0.00158064 0.04131 

-0.0786296 0.335213 2.84256 
-0.171733 0.190912 -6.44668 
-0.00260328 0.00649422 1.29953 

-0.0315881 0.00081673 0.119672 
0.0204908 0.0376886 -0.0766306 
0.000182693 -0.00214457 -0.0040711 

-0.0573562 0.0476812 0.00588545 
-0.0340524 0.0423207 0.0352436 
-0.0272945 0.0309628 0.336705 

-0.0106951 0.0211405 1.47999 
0.0107155 0.0345016 -2.26288 
0.00048656 0.000586505 0.0252553 

-0.0761601 -0.0290886 -0.0573247 
-0.0261917 -0.0214694 0.252953 
-0.00225573 -0.00132324 0.045677 

-0.009941 -0.00485145 0.191736 
0.00144377 0.00630125 -0.540373 
-0.00058375 -0.000850874 0.0497739 

-0.107657 0.262755 -0.845476 
-0.203061 0.100745 -1.34853 
-0.00233752 -0.00613056 0.0711992 

-0.0214374 0.00482446 0.0438282 
0.000273213 -0.00634411 0.0259264 
0.00289369 0.000131313 0.0129345 

-0.0797094 -0.000551054 0.0295739 
-0.173165 0.105416 -0.312792 
0.00483939 -0.00027401 0.00580481 

0.00736514 -0.183168 -0.421842 
0.109057 0.00180031 0.742231 
-0.00439844 0.00457433 -0.148516 

-0.0326493 0.0653757 -1.05229 
-0.00399744 0.00177991 0.286527 
0.00360746 -0.00851722 0.105696 

0.000641475 -0.0319506 0.0297061 
0.0336566 -0.0279338 -0.0694471 
-0.000925945 0.00751506 0.0259258 

0.0258475 -0.0543175 -0.229291 
0.0371083 0.0118596 -0.323977 
-0.00138924 -0.0120012 -0.0398638 

-0.0146455 0.0123551 -0.0942667 
0.0147471 0.0221736 -0.475546 
-0.00071374 -4.61364e-05 0.0135296 

-0.0119761 -0.0113264 -0.0218442 
-0.00298607 0.00761255 -0.028907 
-0.000535494 -4.98324e-05 0.0132551 

-0.00106791 0.0264192 -0.00226771 
-0.017925 0.000776169 -0.0194515 
0.00100251 0.00116011 0.000560008 

-0.00714995 0.0204469 -0.0545957 
-0.00817071 0.000722111 0.154753 
-0.000166067 0.000406282 0.00546852 

-0.048071 -0.00556934 -0.183821 
-0.102288 0.0506788 -0.0725818 
-0.000995772 -0.000109851 0.00111157 

0.00584033 0.00183389 0.0292486 
-0.00994042 -0.000476961 -0.00106719 
0.00708781 -0.0103689 -0.000699014 

-0.0462923 -0.0975687 -0.254249 
-0.0750504 0.11092 0.263464 
0.0263263 0.0718612 0.245918 

-0.0244765 0.0129056 0.00139381 
-0.0117458 0.00420041 0.119272 
-0.00278556 -0.00267048 -0.0102458 

-0.0188981 0.012604 0.00821253 
-0.0178551 0.0142797 -0.0243428 
0.00111093 -6.09375e-06 0.0098074 

-0.0103538 -0.0036249 0.00852198 
0.00653281 0.00673153 0.00466626 
2.60699e-05 -0.00127505 -0.00649297 

-0.17957 -0.115868 -0.264963 
0.00474499 0.0364847 0.310524 
-0.00229587 -0.0102342 0.408502 

-0.0319959 -0.0172038 0.000159392 
0.0317721 0.0374701 -0.0628141 
-0.00139858 -0.00053547 0.0246517 

0.0260055 0.215762 0.0716041 
-0.179875 0.0360138 -0.00411346 
-0.0145617 -0.00264268 -0.0692001 

-0.244708 -0.0753295 -0.877739 
-0.237572 0.0928746 0.193447 
-0.00281175 0.00389551 0.0338403 

-0.02397 -0.011159 -0.0946879 
0.0366414 0.0302745 -0.0943043 
0.000317616 0.00010831 0.00320386 

-0.0399951 -0.148835 -0.0230374 
-0.0290695 0.051563 -0.250239 
-0.0428268 -0.024396 0.331657 

-0.00437434 0.00905549 -0.0135226 
-0.0106898 -0.00318451 0.00241907 
0.000189273 -0.000592893 0.016308 

-0.028148 0.0494278 0.0381008 
-0.0116588 0.0182615 0.11927 
0.00584832 0.000830101 0.0484573 

-0.0167053 -0.00616205 -0.0269486 
-0.00190158 0.00572538 0.116592 
0.000545124 0.000212128 -0.00376457 

-0.129264 0.0437318 -1.17302 
-0.0406469 0.125313 0.00940808 
-0.001079 0.000875375 0.0170336 

-0.00279987 0.058296 -0.0919037 
-0.11787 -0.0335764 0.011015 
0.000600486 -6.48295e-05 0.0144742 

-0.0185931 0.105411 0.258545 
0.00653488 0.0233156 0.00141893 
0.00020993 0.00392698 -0.0527377 

-0.011646 -0.00441556 -0.0271427 
-0.00253005 0.00230152 0.0233492 
-0.000140504 0.000976367 0.021166 

-0.00450237 -0.00949269 -0.097779 
-0.0105857 0.00327778 0.0233923 
-0.00219859 0.000761731 0.0169012 

-0.190912 -0.252608 0.750722 
0.0901588 0.313647 -1.91085 
0.0081426 0.0159568 0.775663 

-0.0825145 -0.0644721 0.0636971 
0.0433943 0.0874871 -0.683366 
-0.000147859 -0.000359353 0.00260362 

-0.00921282 -0.017736 -0.0791332 
-0.00124474 -7.90827e-06 0.000735943 
-0.000167847 0.000888657 0.00927802 

-0.187154 -0.14112 -0.930241 
0.0994777 0.130441 0.707453 
-0.00256948 0.021906 0.282436 

-0.0108803 -0.0040208 0.0526045 
-0.0270409 0.0157477 0.144554 
0.0179858 0.0212195 0.870121 

-0.00291313 -0.0272968 0.027118 
0.0135807 0.0316291 -0.0945501 
0.000385734 0.00163274 0.00031609 

-0.0788803 0.140583 -0.300662 
0.0216327 -0.0487208 -0.041212 
0.0303432 0.0276826 0.295882 

-0.0594382 0.0791837 -0.335184 
-0.213331 -0.101036 -0.114861 
-0.0679043 0.0413169 0.456296 

-0.0110907 0.00206829 -0.130556 
-0.00323078 0.0086399 -0.0633681 
-0.00032172 0.00057109 0.0979689 

-0.0506778 0.0416945 -0.0308785 
-0.087999 0.0074849 -0.217969 
0.0075172 0.00219682 0.0742949 

-0.114169 -0.0192908 -0.27372 
0.0363152 0.229316 0.580561 
-0.0166775 0.00609695 -0.277613 

-0.0150943 0.0064083 -0.00895197 
0.00329271 0.0101989 0.00917805 
-0.000952526 0.000422212 0.000483801 

-0.0189619 -0.00250869 0.0724547 
-0.0278899 0.000893386 -0.0659269 
0.0031795 -0.000902588 0.0825964 

-0.0197553 -0.0115958 -0.0763919 
-0.00865729 -0.0044482 0.123596 
-0.00184893 0.000607792 0.0468126 

-0.00754682 -0.000692727 0.0297422 
-0.0107539 0.00143576 -0.149398 
-0.000565361 0.000100909 0.0255847 

-0.0517191 -0.0365283 -0.0133572 
0.0286928 0.0414262 0.0160119 
-0.0018957 -0.00207248 0.027086 

-0.211178 -0.227971 -0.243943 
-0.105002 0.170476 1.00515 
-0.00500331 0.00284456 0.0372911 

-0.00315665 0.0140094 -0.0189474 
-0.015433 0.00465966 -0.000190305 
-0.0003512 -0.00015852 0.00863307 

-0.187208 -0.108908 1.05578 
0.0372643 0.167408 0.051941 
-0.00525864 -0.00255192 0.0576287 

-0.391327 5.03156e-05 -0.0130419 
-0.173935 0.210311 0.276905 
-0.00865647 -0.000914242 0.0636467 

0.0072271 -0.396192 -2.0583 
0.0491574 0.0764072 -0.142644 
0.00183056 -0.00661837 -0.0291024 

-0.040606 -0.0914393 0.144439 
0.0407542 0.118361 -0.214143 
0.000975757 -0.000486814 -0.0249341 

0.0286026 0.00864799 0.123775 
-0.0224 -0.0229788 0.0901724 
-0.0092269 -0.0062472 -0.00913224 

-0.157905 0.0397988 -0.113943 
-0.0289073 0.17575 1.28399 
0.0455154 0.00817658 0.0623538 

0.0120798 0.224241 0.168711 
-0.153225 0.0240562 -0.155249 
0.00249616 -0.00192206 0.00176015 

-0.00502935 0.0728126 0.0844602 
0.0473974 0.0115009 -0.0968232 
-0.00021239 0.0281147 0.103907 

-0.00519831 0.225167 0.22573 
0.00799264 0.09717 0.334975 
-0.00283001 0.0256586 0.0676129 

-0.0444875 0.010085 0.0561841 
-0.025699 0.0370042 0.235624 
-0.00300146 7.01221e-05 0.0324021 

-0.0470963 -0.0713112 0.0365459 
0.126091 0.0219838 -0.104342 
0.00941296 -0.00328643 0.0764513 

-0.0232513 0.00638458 -0.0849684 
0.00787769 0.00101941 0.08586 
0.000310379 -0.000107035 0.000622194 

0.00335683 0.0191782 0.0290241 
-0.0960605 -0.0444128 -0.10237 
-0.000380166 -0.000430613 -0.0035688 

-0.0124445 0.000720665 -0.0528762 
-0.0223383 0.0208231 -0.0473189 
-0.0030522 0.0019586 0.0126639 

-0.340856 -0.265298 -0.794726 
0.0883365 0.193142 6.25153 
0.00411581 0.00462657 0.213401 

-0.0283613 -0.0195407 -0.765092 
-0.153842 0.0093317 0.00109572 
0.0019217 -0.00110047 0.0261898 

-0.0404389 -0.00494074 0.106442 
0.00991145 0.0275583 -0.118986 
0.00108719 -0.00619037 -0.0498725 

-0.0335828 0.174091 -0.224455 
-0.00127787 -0.0289762 0.0529036 
0.000835977 -0.0228972 0.0473841 

-0.0297973 0.00607073 -0.0579733 
-0.0110008 0.0188698 -0.169529 
7.20947e-05 0.000183332 0.00731264 

-0.742351 0.343908 0.180503 
-0.439881 0.664019 -0.0683795 
0.0534673 0.00212427 0.309708 

-0.0453177 -0.0770976 0.412427 
0.017871 0.0874175 0.0622733 
0.00362445 0.00229863 0.0183068 

-0.0163497 -0.0085999 -0.0500952 
0.00381222 0.00537219 0.0487751 
0.000502251 3.10992e-07 0.0194541 

-0.0117044 -0.0112545 -0.299726 
0.020678 0.0131607 -0.303072 
-0.000212469 -0.000401234 -0.0165313 

-0.0639714 -0.165499 0.174933 
-0.00716822 0.0432505 -0.590619 
0.0246905 0.00335648 0.0647505 

-0.0375918 0.0316216 -0.572606 
0.0655381 0.0295547 0.207738 
-0.000220782 -0.000921365 -0.0435348 

-0.00493792 -0.00232864 -0.00449685 
0.0018846 0.00445944 -0.0240287 
-0.00054096 -0.000753677 0.0047675 

-0.0142744 0.00451714 0.147196 
-0.00372704 0.00628548 0.148737 
0.000495308 -8.59353e-05 -0.0455666 

-0.0254142 0.122764 0.043693 
-0.109827 0.007593 -0.114803 
-0.00842646 -0.0281934 0.0766557 

0.0161171 0.0667535 -0.197759 
0.0854195 -0.0209778 0.202755 
0.000315259 -0.00107273 -0.0903836 

-0.0231588 0.0138162 0.207037 
0.0129589 0.0327716 0.434416 
0.00070881 6.24672e-05 0.00515292 

-0.020357 0.00838283 0.044733 
0.00374414 -0.000436287 -0.0263823 
0.00100836 -0.000235624 0.0211853 

-0.0835354 0.0282497 -1.07779 
0.0475976 0.0505562 -1.25736 
0.0110937 -0.0129762 -0.151618 

-0.0214544 -0.0191294 0.560032 
0.00884526 0.0108596 0.867434 
0.00170395 3.64403e-05 0.0194333 

-0.019256 -0.0347537 1.54542 
-0.0185413 0.0108458 -2.06216 
0.000391061 9.16454e-05 0.155549 

-0.0161052 0.000238727 0.0172209 
0.00242318 0.00347999 0.0342909 
-0.000401146 -0.000141297 0.0221136 

-0.00851979 -0.0143179 -0.579596 
-0.0966665 0.0113148 -0.694461 
0.000592438 0.000786378 -0.00687179 

-0.0672289 0.127091 -0.187154 
-0.0961921 0.101751 -0.237634 
-0.00667277 0.00582456 -0.0307834 

-0.0152732 0.005796 0.0733198 
-0.00456598 0.00873354 0.353115 
-0.00586578 -0.00632164 -0.0589385 

-0.00807314 0.0678913 -0.108984 
-0.0259789 -0.0098 -0.0290028 
-0.00414761 0.00253694 -0.0112079 

-0.0131537 -0.0126093 0.0209334 
0.0221971 0.00714384 0.0473312 
-0.00100091 -0.000816766 0.01473 

-0.0244441 -0.0444556 -0.0497112 
0.006089 0.0137114 -0.0694071 
0.000204479 0.00022871 0.0116621 

0.00370354 0.0378226 -0.0837787 
-0.0291065 0.00185514 -0.0577414 
1.39152e-05 0.000265148 0.0105361 

-0.172336 0.105929 0.336532 
-0.0484614 0.0338262 0.134465 
0.0466255 0.0790047 0.0455871 

-0.0765305 0.114322 -0.0928581 
-0.146876 -0.00439391 -0.317485 
0.0142564 -0.0268483 0.0903676 

-0.0130282 -0.0131219 -0.151985 
0.0163271 0.0194342 -0.10703 
4.77221e-05 -6.91613e-05 -0.00772971 

0.0123015 0.0184596 0.000448728 
0.0939996 -0.0777966 -0.0669177 
0.00160927 -0.00120858 0.037252 

-0.0398566 0.00873674 -2.58039 
-0.0277127 0.0344027 -1.0187 
9.31084e-05 -0.000671403 0.142553 

-0.0110335 0.00724815 -0.0675243 
0.000636954 0.00593695 0.0523253 
-0.000345529 -0.000454325 0.0178233 

-0.0316586 0.0319454 -0.0235116 
-0.0185574 0.0236624 -0.15768 
4.37209e-05 0.00289845 0.0236368 

-0.0446347 0.0155122 0.172177 
-0.0527184 0.0473442 0.509865 
-0.00783458 0.000246983 0.0297488 

-0.0725663 -0.147842 0.103731 
0.0571742 0.131213 0.0867291 
-0.0239311 -0.0136776 0.177797 

-0.014156 -0.00699406 -0.291616 
0.00583242 0.0113897 -0.697762 
-0.000325923 0.000226733 0.102748 

-0.187586 0.351665 -0.846903 
-0.212772 0.232452 1.64826 
-0.0110835 0.0603152 0.258581 

-0.0518748 0.0909763 0.142777 
0.215678 0.112562 -0.0547331 
0.0136005 0.0711937 0.290017 

-0.115536 -0.08282 -0.57699 
0.0713872 0.050954 1.19307 
0.0018734 0.00163022 -0.00812369 

0.0591604 -0.225915 0.368999 
0.103861 0.0318169 -0.730669 
0.000185396 -0.0151165 0.0515544 

-0.00492437 -0.00550012 0.00493657 
0.0288541 0.00396918 0.0426247 
0.00208788 -0.000105424 0.0152425 

-0.0206675 0.0102798 0.0437084 
-0.00490931 0.0134761 0.0584885 
-0.00153316 -0.000279955 0.00133404 

0.0239475 0.115617 -0.580713 
-0.0878665 0.00792184 -0.341232 
0.00610437 -0.0147642 -0.0101351 

-0.01205 0.00189978 0.168341 
0.0109855 0.0178677 -0.11906 
0.00852606 -0.0146749 -0.0999633 

-0.00902235 -0.0116884 0.0145613 
0.00271982 -0.00410245 0.0203793 
-0.000126686 -0.000307192 0.0247399 

0.000288139 0.00535383 0.0113953 
-0.0074153 0.00349273 0.00218878 
-0.000534874 0.00103532 -0.00284173 

-0.0437741 0.00098053 1.08102 
0.00338332 0.0230472 3.32687 
-0.000896015 1.20593e-05 0.287838 

0.00560731 -0.0499608 0.177829 
0.0420403 -0.0180998 0.071726 
-0.000754229 0.000685274 0.0138466 

-0.0622426 0.0544051 0.0681255 
-0.0346627 0.0332584 -0.0853431 
0.000587043 -0.00632887 0.0617027 

0.00137642 0.00228432 0.33184 
0.00703493 -0.0173921 -0.836334 
0.000264587 -0.000270439 0.0715993 

-0.0096819 0.0226868 0.114674 
-0.0270326 -0.000370534 -0.148639 
0.000206693 -0.000987062 0.0138699 

0.0917093 -0.394101 -0.0427418 
0.342132 -0.123456 1.38413 
-0.0104847 0.0653319 -0.0625108 

-0.123938 0.0789529 -0.159151 
-0.104041 0.0388793 -0.158302 
-0.00650796 -0.00566533 0.0849315 

-0.031974 0.0153727 0.0533667 
-0.0139855 0.0144689 0.0167625 
-0.000301184 0.000476718 0.020547 

-0.00647374 0.0232208 0.175174 
-0.0226496 0.00549062 0.119699 
0.00130935 0.000974653 0.00765484 

-0.00873755 -0.0120568 -0.0593896 
-0.0150391 0.00432532 0.034344 
0.000968725 0.000885482 -0.00429137 

-0.0134705 -0.0324552 3.7784 
0.0272875 0.0106255 0.979776 
0.000523617 0.00042352 -0.219445 

-0.014045 -0.034307 -0.0890052 
0.0371804 0.0129993 -0.0318863 
-4.76225e-05 -0.000770028 0.0107949 

-0.0272875 0.00117689 0.243254 
0.0054011 0.0113207 0.122542 
-0.00166867 -0.000464165 0.00179348 

-0.0475338 -0.0113612 0.573402 
0.0436704 0.0176185 0.861076 
0.00013227 -4.01587e-05 -0.000891374 

-0.0113637 0.0253512 -0.0190057 
-0.000472421 0.0174742 0.379145 
0.00128983 0.000193596 0.00197669 

-0.0629431 0.176682 -1.84154 
0.241629 0.0598734 -3.70091 
0.020204 -0.0167854 -0.0421696 

-0.0548556 0.0431027 -1.83505 
0.0183427 0.0191246 -1.46291 
0.0127853 0.000350742 -0.172147 

-0.0164852 -0.0130617 1.82728 
0.0122904 0.0227138 -1.28493 
-2.48422e-05 -0.000191697 0.054775 

-0.0805608 0.308592 9.85168 
-0.0818228 0.133782 -3.42571 
-0.0103785 0.0152606 2.50231 

-0.128186 -0.00578808 1.09492 
-0.00291625 0.12298 0.347067 
0.00298175 0.0139813 -0.00777389 

-0.054104 0.0874017 0.724018 
-0.0826038 0.101572 0.556031 
0.00199301 0.0286256 2.05216 

-0.152277 -0.134329 0.643118 
0.062109 -0.00580712 0.268825 
0.0112714 -0.0524447 0.272973 

-0.0510158 0.123758 -0.0891386 
0.00841938 0.0196446 0.81308 
0.0141557 -0.0141094 -0.00299725 

-0.0478657 -0.00710781 -0.339332 
0.017655 0.088081 -3.01136 
-0.00305738 0.0129791 -0.0959816 

0.0108421 -0.0225082 0.229305 
-0.00697094 -0.0432255 0.109281 
0.000901548 -0.00120754 0.0248072 

0.0107099 -0.633487 1.29053 
0.388717 0.360486 -1.2505 
-0.0155116 -0.0431833 0.538043 

-0.0322872 -0.00512563 -0.0186971 
0.0284783 0.00365352 0.123789 
-0.00230344 0.0118336 0.0470158 

-0.00468858 -0.0511728 -0.133398 
0.018767 -0.00709305 -0.00690753 
-0.000429405 -0.00227248 -0.0119049 

-0.0179508 -0.00573789 0.0724362 
0.0031265 0.00633514 -0.0176177 
-0.00390983 -0.000888971 0.0403988 

-0.0236796 0.0206229 -0.0476476 
-0.0160729 0.00846895 -0.0664221 
0.00374015 0.00130178 0.0105653 

-0.00937654 -0.0088038 -0.0123545 
0.00513334 0.00499861 0.0055673 
0.000112372 -0.000890745 -0.00507957 

-0.00342124 -0.0228083 -0.00263417 
0.0387982 0.0131727 0.0492639 
-0.0142585 0.00167578 -0.0339055 

-0.0693774 -0.0225925 -0.0248026 
-0.150222 0.0868479 0.00936761 
0.000117731 0.00393016 0.0118658 

-0.0325299 0.0524191 0.327628 
-0.0478993 0.0221416 -2.09086 
5.68389e-05 -0.00154837 0.109814 

0.0467564 0.137764 -0.7647 
-0.0577688 -0.0107497 0.211853 
0.00367912 0.00241359 -0.0262127 

-0.0148157 0.0338605 -0.0514871 
-0.0177674 0.0434242 -0.054718 
-0.000646666 0.00141368 0.0326527 

0.0732135 -0.0187841 -0.77781 
-0.17288 -0.0943225 -0.55903 
-0.0082003 0.00783511 -0.075485 

-0.00772207 -0.00322436 -0.000223183 
0.00356895 -0.0023252 -0.0158701 
9.92148e-05 0.000506599 0.017575 

-0.0132061 -0.0178042 0.300935 
0.0200306 0.00695805 0.169666 
-0.000610131 -0.000192351 0.0161235 

-0.0594009 -0.0453784 -0.0562835 
0.00864064 0.00424917 -0.110203 
0.00456896 0.0153082 0.0692827 

-0.0211013 -0.05727 -0.360573 
0.0318342 0.0165009 0.124905 
0.000921942 0.00109526 -0.0262126 

-0.0161127 0.0041521 3.67911e-05 
-0.00490478 0.00109172 0.00244596 
-0.000336845 0.000881044 0.00205165 

-0.0295129 -0.00269903 0.0354321 
0.00805901 0.0168582 0.0527856 
-0.00425099 0.000120986 0.0668407 

-0.0228926 -0.0112111 0.0624525 
0.0105208 0.0134164 0.196569 
0.000137472 -0.000255685 0.0679877 

-0.0543742 -0.0419951 -0.168061 
0.0320225 -0.000922994 -0.0376682 
0.00680378 -0.00157821 0.05366 

-0.0122145 -0.00237554 0.00735328 
-0.000962344 0.00271406 0.00747266 
0.001366 -0.000112873 0.00244626 

-0.00182414 -0.0231372 -0.0418091 
-0.0405337 -0.0194486 -0.0810901 
-0.00117005 0.000759331 -0.00736954 

-0.0857775 0.0268961 -0.0305033 
0.202924 -0.109196 -0.376611 
0.00615447 -0.0125573 0.402545 

-0.0642426 -0.0104619 -0.0163758 
-0.144807 0.034562 0.322087 
0.00129525 -0.00213363 -0.0509025 

-0.0328282 -0.0587682 0.0936526 
0.0432623 0.0312255 0.419311 
0.000920967 0.00474588 0.0213388 

-0.10691 -0.00108708 -1.57942 
0.149592 0.0971362 1.1326 
-0.00802401 0.0126724 0.0790233 

0.0158025 -0.0403845 -0.207107 
-0.00980538 0.0113955 -0.0352619 
-0.0036793 -0.00286105 -0.0448773 

-0.473793 -0.107263 -1.00236 
-0.0161019 0.45342 0.103268 
-0.0108026 0.0396121 -0.11088 

-0.091242 0.0722349 0.458083 
-0.116525 -0.0464975 0.635916 
0.00173947 -0.000262167 0.0693853 

-0.163746 -0.0671028 -0.243689 
-0.0340691 0.164587 -0.136453 
-0.00690564 -0.00461036 0.0353689 

-0.0575578 -0.0422694 -0.324923 
0.00250954 0.00261363 -0.358139 
-0.0308521 0.0455818 0.211289 

0.00141703 -0.00382085 0.228737 
-0.10972 -0.011753 -0.165535 
0.00769449 0.000313562 -0.00296182 

0.00128403 -0.00339136 -0.114888 
0.00597783 -0.0190411 0.0831692 
0.0694599 0.0333953 0.646005 

-0.0139474 -0.0107087 -0.00579957 
0.00250646 0.00271347 0.00965163 
5.22873e-05 0.000275506 0.0201432 

0.0871271 0.133005 -0.0902773 
0.111142 -0.0426114 0.365443 
0.000435706 0.0026793 -0.0270629 

-0.0383028 -0.0160271 -0.357936 
0.274183 0.0531096 -0.450227 