# vtk DataFile Version 3.0
Output file generated by Yade's KinematicLocalisationAnalyser
ASCII
DATASET UNSTRUCTURED_GRID

POINTS 13483 float
618.27 34.2937 -0.444447
760.758 69.1329 -0.450007
124.393 6.15831 -0.459504
793.629 17.3826 -0.223886
513.561 7.68197 0.350656
325.407 35.4833 -0.461391
161.971 6.85653 -0.42917
584.248 10.6708 0.135199
511.354 24.8827 -0.142035
720.889 19.8525 0.39533
217.449 8.98744 -0.0962055
265.243 6.25939 0.298287
660.539 36.1955 0.135399
643.065 21.9833 0.0686153
141.92 17.2848 -0.466436
228.388 34.8218 0.396437
224.87 13.0353 -0.272334
298.405 9.53564 0.387979
351.595 32.2052 0.444883
538.249 8.49683 0.405416
425.01 37.2152 -0.0979235
599.736 51.6105 0.261875
791.563 49.9967 -0.492935
701.726 59.9334 0.428692
473.074 17.4338 0.303154
248.538 44.7253 -0.12762
505.976 29.1362 -0.534434
600.749 21.8583 0.231093
46.5332 15.3863 -0.456035
718.769 45.1343 0.333171
496.407 5.20659 0.376175
16.6682 23.3951 0.299277
770.98 65.4768 -0.239745
509.496 2.57186 0.49814
81.4346 44.5972 0.101309
536.175 31.8466 0.328694
545.352 15.6153 -0.468701
355.116 21.9547 -0.196808
548.134 26.21 -0.32926
362.831 33.5517 -0.391634
249.012 14.4972 -0.313611
448.429 37.9064 -0.0670557
684.312 7.28837 0.0953859
199.301 6.18266 0.37626
57.33 7.02407 0.0770517
70.832 8.95789 -0.264913
698.268 9.76056 -0.632488
24.479 11.648 -0.293175
622.328 55.7861 -0.306578
682.179 28.1576 -0.326735
177.835 32.6175 0.282214
758.731 44.4152 0.12364
36.0286 28.0818 -0.114702
548.585 2.96355 0.370459
147.08 7.21199 0.480194
604.986 40.5313 0.41277
518.958 28.0173 0.119092
181.221 0.937782 -0.263453
33.7647 2.35271 -0.333944
361.058 18.0465 0.277158
630.621 54.1531 -0.142675
476.85 34.871 -0.175548
413.199 1.03715 0.197029
706.225 8.26606 -0.596994
27.6409 43.0614 0.235281
265.401 30.234 0.290098
721.242 15.3556 0.234521
676.859 56.1077 0.348187
432.062 8.59839 -0.502453
584.939 3.97255 -0.339765
744.156 37.5498 -0.37762
135.48 7.65105 -0.282636
514.124 27.085 -0.144396
492.688 16.091 -0.125953
304.948 16.7243 -0.338866
21.5953 13.2242 -0.243635
775.233 49.4082 0.330647
345.032 40.8015 -0.283337
681.539 25.2285 0.34472
696.444 16.9227 -0.27365
790.262 12.4755 0.172214
479.895 35.568 0.160793
96.6225 38.1386 -0.266761
691.305 46.417 -0.22091
659.374 46.9433 -0.0957115
797.307 55.92 -0.121435
785.427 0.782107 0.501362
301.684 28.5018 -0.448942
637.435 8.0064 0.086565
25.0101 5.2928 0.483888
137.568 38.7129 -0.144254
528.898 14.5481 0.203409
773.879 36.5406 0.522115
202.2 29.2929 -0.24255
45.8524 35.1728 -0.259866
508.296 1.39041 0.137557
244.051 8.82002 -0.400528
745.585 58.1728 0.258832
764.868 32.8839 -0.247176
375.066 20.7665 -0.266273
170.786 26.8689 -0.454105
563.191 41.4105 0.405052
393.993 15.3302 -0.467752
428.36 30.3524 -0.120232
392.328 4.49594 0.408795
564 10.7994 0.130899
798.975 23.9267 -0.156146
83.7464 39.5093 0.387549
348.217 4.80948 -0.181118
577.597 9.64451 -0.351494
374.449 44.6534 -0.44224
26.1666 24.7314 0.463645
31.5185 5.75684 -0.34379
584.716 34.541 0.452676
521.728 24.9935 0.14703
27.1802 37.0213 -0.410362
97.0134 30.3039 -0.228048
337.821 15.8268 -0.322238
615.688 21.6351 -0.105193
492.762 39.0503 0.302878
732.702 7.70436 0.580689
724.624 8.46649 0.256675
403.449 37.738 -0.0945501
647.637 34.4925 -0.0992631
247.178 17.1694 -0.522672
343.274 3.70944 0.463846
107.883 31.488 -0.310793
121.241 23.9012 0.300251
559.635 39.571 0.0679196
318.416 18.6877 0.466972
716.863 51.828 0.105511
681.683 53.854 0.105353
499.115 21.0546 -0.414517
771.147 13.7792 -0.30664
445.147 25.2069 0.216541
288.953 24.1374 -0.30296
682.864 38.5681 0.3106
290.467 29.3696 0.425064
595.266 12.2918 0.183308
346.192 37.1972 0.193804
522.512 11.2573 0.516288
382.874 31.2112 0.0847286
447.211 18.1904 -0.101829
332.439 42.4115 0.441326
198.134 31.2771 0.11371
764.949 72.4305 -0.151331
794.774 26.6684 0.27761
6.16442 11.9848 -0.433797
451.668 23.6123 -0.409641
39.4732 22.2466 0.0938374
393.382 32.2609 -0.487846
412.766 25.4475 -0.260906
77.7439 11.818 -0.482329
54.0459 33.5162 -0.438978
235.454 13.5588 0.424874
635.229 48.031 0.388192
597.498 22.0269 -0.467041
78.3477 21.0134 -0.498293
704.483 60.24 0.459072
759.025 2.3525 0.516097
668.8 58.0941 0.451378
703.714 2.29344 0.408547
569.982 28.6581 -0.411805
601.585 51.7251 0.447333
532.347 19.0115 -0.382211
801.462 6.32972 -0.308442
233.108 25.2916 -0.135016
133.204 35.2319 -0.201731
257.988 6.66792 0.386824
98.8856 4.19509 0.277753
67.0673 10.1205 -0.195805
288.385 36.3205 -0.303284
17.5031 25.2765 -0.348186
575.62 22.0626 0.457473
619.961 50.6754 -0.189479
482.151 22.4985 -0.430239
786.029 61.3988 -0.353669
425.074 8.59708 -0.105394
455.701 39.0094 -0.375377
556.623 3.48482 -0.252864
23.3323 24.0167 -0.381651
597.325 4.51551 0.516159
566.276 4.35756 -0.286306
215.437 11.3046 -0.510666
443.963 16.6836 -0.190396
325.671 6.29153 0.335605
406.462 19.2849 -0.351897
740.57 61.2407 0.10087
201.323 26.3324 -0.431682
776.993 6.68134 -0.450661
739.332 54.0436 0.313561
401.08 10.6457 0.170792
719.586 4.66393 0.67394
619.599 29.7035 -0.436788
740.923 22.8347 0.348615
451.215 47.1732 0.26496
516.698 12.6436 0.38174
485.704 46.1801 -0.2221
465.634 8.78889 -0.138418
673.496 51.1022 0.270055
672.253 46.7244 -0.288371
199.582 40.0589 0.334533
788.073 12.6838 0.103334
603.722 51.7929 -0.25075
11.6051 16.8991 0.163851
426.525 25.5771 0.370573
195.842 24.6218 -0.418509
98.4377 38.6636 0.200411
771.521 32.9795 -0.398557
666.397 61.0806 0.219657
334.189 25.7336 0.347569
553.687 10.2301 0.343302
86.7256 43.8481 -0.162701
259.101 25.831 0.472425
579.007 27.1248 0.387871
507.446 20.7592 0.432069
274.944 0.898256 -0.344725
573.732 43.745 -0.353417
552.537 44.557 -0.442316
504.289 36.0884 0.379864
520.552 1.8114 -0.664614
708.572 27.749 0.398284
188.39 12.3941 -0.16966
523.572 38.1974 -0.417786
582.232 46.6298 -0.110502
76.2064 0.921718 -0.277072
263.417 4.63847 0.182727
793.905 28.4863 -0.186835
789.31 15.89 -0.410067
800.192 32.005 0.462871
318.091 8.52096 -0.234314
744.035 26.5835 0.426475
426.949 42.6656 0.315813
470.17 0.854225 0.482369
664.965 43.8057 0.451215
28.0027 30.5944 0.30699
347.172 42.5108 -0.459365
264.365 2.81267 0.304883
774.602 61.3475 -0.187092
718.306 64.4795 -0.24676
301.077 10.8908 0.195143
676.487 38.5015 0.0798336
579.738 2.62328 0.24323
564.007 6.36562 0.446146
101.721 17.9314 -0.564327
317.861 1.02343 -0.227751
360.042 2.29155 -0.343683
14.4276 7.80875 0.480819
4.82496 31.2572 0.241319
170.138 18.9236 -0.357228
71.8228 42.1862 -0.206261
69.8356 28.865 -0.319476
444.168 14.845 -0.394884
385.692 35.1446 -0.466605
756.71 45.3511 -0.112631
20.4539 4.01868 0.268903
73.9659 6.96628 0.140175
641.296 47.5427 0.128167
308.988 0.947575 0.307909
383.658 16.4435 -0.105307
247.088 4.64852 -0.387497
667.422 26.1879 0.217696
472.944 8.37739 0.512441
746.013 22.7966 0.360668
646.213 38.5031 -0.295705
682.136 23.3552 -0.118307
440.696 27.9299 0.477351
107.641 44.8837 -0.303531
560.475 45.1077 -0.0665043
739.14 17.9495 0.235694
249.32 30.8655 0.24883
33.4042 16.9304 0.172483
353.278 13.787 0.498654
113.861 40.6213 -0.473213
281.16 42.171 -0.188282
446.255 1.12066 -0.237595
773.932 45.1747 -0.439137
696.551 0.823558 0.584942
348.794 3.19354 0.524595
315.242 26.8858 -0.147113
484.329 43.1013 -0.199551
85.6655 7.83635 -0.494794
207.139 45.8745 0.37753
766.039 39.236 0.356586
518.741 41.8749 -0.0638555
208.734 41.8309 0.248384
168.531 42.989 -0.388856
800.984 49.4664 0.385382
797.533 22.8308 0.461891
629.366 3.44981 -0.633553
199.451 26.096 -0.0869917
571.808 30.8061 -0.100943
573.853 30.4335 0.270356
429.682 5.66426 -0.142369
503.665 0.941639 -0.329121
755.466 46.7063 0.469974
89.6775 31.0237 -0.215862
671.353 20.9206 0.489121
287.99 15.7986 -0.352103
10.3283 2.29377 -0.369845
132.105 37.0686 -0.186643
70.3319 23.2739 -0.444475
711.2 50.4268 0.293722
780.498 70.7085 0.16465
194.424 29.4893 0.174467
789.686 23.3167 -0.289428
47.0276 36.7981 -0.250819
95.8702 28.6998 0.162163
651.538 19.5098 0.450342
435.397 17.4891 -0.474297
542.109 16.4793 -0.116064
249.691 28.9191 -0.193019
642.626 8.66033 0.508306
800.6 22.7314 -0.342424
31.1949 31.5721 -0.26561
283.588 7.59623 0.1955
232.997 15.4363 -0.24488
1.09243 35.6338 0.151306
236.472 14.5426 -0.374656
222.343 11.1846 -0.134817
224.775 26.3979 0.282683
139.79 27.6993 0.117852
570.167 15.4336 0.355462
175.981 14.0818 0.354279
767.741 63.6822 0.213495
183.34 3.76904 0.502289
49.8153 37.6853 -0.348754
745.639 70.9891 -0.426454
295.861 31.6251 0.379417
688.08 31.0089 0.461939
780.665 46.4386 -0.479301
316.167 9.13352 0.115777
735.836 43.5557 0.331624
345.604 2.59872 -0.377224
437.288 24.7191 0.352853
686.433 19.5943 0.422213
110.995 11.9506 0.414426
505.14 4.0493 -0.491171
749.793 21.5494 -0.18475
92.957 7.60398 -0.2114
295.872 14.7172 0.197541
445.552 12.4469 -0.220981
801.133 4.60186 -0.474442
418.171 1.92468 -0.541696
184.423 39.9653 0.275944
739.894 10.3701 0.39081
135.15 36.5513 -0.188317
276.363 31.6038 -0.379809
421.323 21.4089 0.212548
597.779 14.2324 -0.300542
406.717 9.69484 0.416381
478.213 28.6284 -0.457406
760.594 70.5685 0.118945
50.0319 11.1755 -0.105584
314.842 37.8015 -0.265773
399.73 26.6976 -0.395938
431.046 20.8351 0.261647
544.739 47.7862 -0.36939
751.608 48.0062 -0.200744
676.64 46.3327 -0.341484
237.2 34.5914 0.381131
13.8226 31.6213 -0.152621
670.553 49.7875 -0.116938
533.768 45.8678 -0.445017
240.948 39.9771 0.095977
694.055 41.2981 -0.106378
159.144 9.30439 0.213471
386.219 21.8748 0.302796
486.228 44.0535 -0.101856
435.058 19.2381 0.185879
758.68 66.0674 0.301083
447.765 3.30671 0.479599
52.4153 25.5562 -0.301249
492.75 33.0809 0.351062
456.274 44.4191 0.354936
769.542 55.0012 -0.244383
731.519 45.1261 -0.226336
565.881 19.0444 -0.167885
764.147 55.1883 -0.447072
308.271 2.17122 -0.450726
400.068 29.782 -0.450177
30.5655 38.7211 -0.293426
737.669 42.8225 -0.153452
628.511 24.2453 -0.483437
485.051 0.772457 -0.466873
132.822 4.53266 -0.288443
448.933 42.2227 0.0954782
12.765 0.934906 0.322894
799.393 6.99437 -0.121549
390.185 39.5114 0.398112
[...]
POINT_DATA 13483
TENSORS Strain_matrix float
-0.1406 0.230941 -0.9198 
-0.337554 0.203454 1.06658 
0.00633679 0.0334008 0.0549666 

-0.0394709 0.186295 -0.0371337 
-0.0740291 0.110649 -5.06937 
0.00736687 -0.00913909 -0.0189573 

-0.0107181 0.00401633 -0.244247 
-0.00248198 0.00752976 0.18721 
0.0142981 -0.00503855 -0.00670684 

-0.474663 -0.125389 -0.350552 
0.247754 0.182085 0.20448 
-0.00564821 -0.00435731 0.0506331 

-0.106244 -0.0714587 0.165345 
-0.0047473 0.0628506 -0.0772612 
-0.00692433 0.00995822 0.0316551 

-0.0396154 -0.0408245 1.95186 
0.0547347 0.0373808 1.03116 
-0.000992782 -0.000476225 0.0806938 

-0.0150133 0.00127713 -0.0202856 
-0.00262265 0.00985926 0.189707 
-0.00089163 -0.000636865 0.043788 

-0.010578 -0.0266334 -0.0648259 
0.0061371 -0.0186084 -0.0717947 
-0.00303237 -0.00109237 0.0471122 

-0.137293 0.12424 1.22348 
-0.14979 0.122732 1.2549 
-0.0318689 0.0107653 0.702353 

0.0138377 -0.119016 0.0347432 
-0.029457 0.0131745 -0.107715 
0.0132171 0.0151676 0.0490006 

-0.00889894 -0.00853014 0.00284213 
0.00792449 0.00277669 -0.00358015 
-0.000575966 -0.000723643 0.0109972 

-0.00536423 -0.000537604 -0.00597871 
-0.00105293 0.0018123 -0.00451273 
-0.00023956 0.000155713 0.00253342 

-0.0262876 -0.150902 0.898373 
-0.149842 -0.00578903 -0.232881 
6.70313e-05 0.0329387 0.337087 

-0.0624042 -0.00524176 -0.105208 
-0.00191358 0.0313237 0.107457 
0.000490275 -0.00236137 0.0611554 

-0.0046504 -0.00798362 0.0472379 
0.0129673 0.00278601 0.0749476 
0.000374863 0.000483718 0.108459 

-0.00132441 -0.0106196 -0.199499 
0.0115234 0.00778658 -0.0598746 
-0.000481701 -0.00052423 -0.00557195 

-0.00665896 -0.00974681 0.0142375 
0.00928309 0.00389013 -0.0250619 
0.000522088 -0.000217478 0.00820735 

-0.00765032 -0.000274046 0.0078942 
0.00573281 0.000428888 0.0192275 
-0.000126548 0.000401603 0.0087352 

0.0155072 0.0127074 0.356136 
-0.0316412 -0.0139408 -0.263106 
-0.000148683 0.00212541 0.0292992 

-0.0841277 0.0654206 0.0581832 
-0.0415508 0.0756406 0.332322 
0.0029529 0.019239 0.0136412 

0.017973 -0.0397651 -0.129098 
-0.00661401 0.0144089 0.010786 
-0.000413879 -0.000712155 -0.00298159 

0.0247701 -0.236256 0.0175231 
0.242272 0.0405858 0.040844 
-0.0308268 0.0300095 0.218547 

-0.0275367 -0.0102006 -0.155657 
0.0312467 0.0165652 -0.0643384 
0.00513343 0.00310101 0.116376 

-0.0303204 -0.104288 0.169911 
-0.0411649 0.00294613 -2.20113 
-0.00902633 -0.0388978 -1.31165 

0.0300181 -0.0859666 -0.0500567 
0.0628228 -0.00994088 0.055239 
0.00232109 0.000756187 -0.0187355 

-0.01015 0.0101287 -0.00875597 
-0.00668727 0.00430164 0.00459628 
-0.00110337 -0.00213219 0.00988282 

-0.0562816 0.0148073 2.06697 
0.00310497 0.048143 2.10408 
-0.00209462 0.00218175 0.308873 

-0.0457956 0.172215 -0.679029 
-0.088864 0.158337 0.299603 
-0.007739 0.0545633 -0.0524239 

-0.00542328 0.0174391 0.278375 
0.00372211 0.00255146 -0.464258 
-0.00018373 -4.08866e-05 0.0595993 

-0.0348922 0.0736533 -0.725225 
0.069544 -0.0377406 -0.0284321 
0.000991564 0.00170095 -0.0333698 

-0.0513549 0.00491146 0.0368743 
-0.0131574 0.0321862 -0.00638513 
0.0042807 -0.0384978 0.46545 

-0.0239253 0.0407152 0.111532 
0.0965071 -0.023438 -0.285435 
-0.00155096 0.00104337 -0.02028 

-0.121144 0.527037 -1.11356 
-0.0419582 0.0812603 -0.931672 
-0.0140783 -0.00422911 -0.00332056 

-0.0306193 0.0293527 -0.160582 
-0.0307464 0.0383206 0.110216 
-0.005286 -0.0250018 -0.26292 

-0.00189096 0.00712531 0.0488494 
-0.000470208 -0.0152667 -0.0295902 
-0.000383217 -0.000468287 0.00269516 

-0.00956987 0.0286135 0.187605 
0.0346158 -0.00181559 -0.55069 
0.0176065 0.00130156 0.096781 

-0.114599 0.0536101 -0.297173 
0.0160594 0.0558407 -0.261832 
0.00116532 0.00304104 0.171795 

-0.0105795 -0.0369604 0.0256369 
-0.010875 0.0144888 0.0568359 
-0.00324302 0.00322737 -0.0255773 

-0.0696589 0.123192 -0.458419 
0.00373116 0.0678434 -0.27423 
-0.000590925 0.00120672 0.041344 

-0.0086965 -0.0021403 -0.0998179 
0.0170018 -0.00620054 0.0175589 
0.000370057 -0.000170033 0.0128394 

-0.00984081 -0.00762133 -0.0239463 
-0.0127976 0.0147396 -0.0239127 
-0.000146587 -0.000798707 -0.000871178 

0.0748116 0.00494493 0.0473227 
-0.0593962 -0.0410753 -0.146964 
-0.00176147 -2.3445e-05 -0.005745 

-0.189506 -0.0840226 -0.0655132 
0.171651 0.165752 -0.289275 
-0.0174372 -0.00110955 0.109458 

-0.0281206 -0.008192 -0.0265986 
-0.014366 -0.020727 0.0123477 
-0.0888956 0.0226167 0.312102 

-0.0165204 0.00995923 -0.00918895 
-0.0191786 0.00831579 -0.0179214 
0.0010362 -0.000144414 0.0117192 

-0.00356164 0.00755497 -0.0314099 
0.00395391 0.00170632 0.0661369 
-0.000204793 -0.000544807 0.00808896 

-0.151526 -0.0805751 -3.36103 
-0.0346141 0.0736851 -2.40503 
-0.0061114 0.00259185 0.240016 

-0.0168881 -0.0337423 0.00148154 
0.00830419 0.00966139 -0.0334904 
0.000199865 0.000111158 0.0129353 

0.032355 -0.258249 1.14889 
-0.00857192 -0.0275026 0.193861 
-0.0770424 0.136926 -0.243334 

-0.0024931 -0.123826 -0.121447 
0.142813 0.0697951 0.0156538 
-0.00404837 -0.0038789 -0.0384023 

-0.174425 -0.0317071 0.532946 
0.174036 0.103968 -0.145657 
-0.0174001 0.016172 -0.0162609 

-0.0991665 -0.233127 0.870291 
-0.00538309 0.0753563 -0.167652 
0.00744788 0.0102331 0.00237449 

-0.0014552 -0.00929833 -0.0418029 
-0.000940065 0.0011344 -0.0126528 
0.000831064 -1.82362e-05 -0.00785424 

-0.0350118 0.0376948 0.0375327 
-0.0286624 0.00107267 0.164215 
0.0322289 0.0114782 -0.0213301 

-0.0154868 -0.00320035 -0.00704808 
0.00196698 0.00282644 0.0323016 
0.000971468 0.000269124 0.00687889 

-0.0611043 -0.177802 -2.13273 
0.161353 0.0781036 1.04801 
-0.000836452 -0.000433172 0.0848646 

-0.135029 0.192768 0.0687815 
0.0981804 0.155598 -0.203291 
0.00310857 0.017668 0.0361325 

-0.011422 -0.0887017 0.197355 
-0.00124009 0.00481099 -0.0422989 
3.80048e-05 0.00261249 0.022547 

-0.00852919 0.00057394 -0.0156084 
-0.00209016 0.00191208 -0.00359294 
0.000112023 0.000557372 0.00845651 

-0.013662 -0.0113981 -0.0165759 
-0.00857769 -0.000273083 -0.0273095 
-0.00084198 0.000711258 0.0318188 

0.0156783 -0.192579 1.31211 
-0.101212 -0.0631637 0.303298 
0.0188375 -0.041714 0.159991 

-0.0573492 0.0212667 0.0563025 
0.00719558 0.0401632 -0.168048 
-0.000356775 0.00107574 0.0376043 

-0.0220748 -0.0245501 -0.0259151 
-0.015066 -0.0125501 -0.0233252 
0.000947372 0.00065164 0.0375228 

-0.0811647 0.0259103 -1.96708 
-0.0246461 0.0606412 -5.1272 
-0.0187433 0.0122474 0.218118 

-0.0511469 0.00833013 0.22818 
-0.0343302 -0.00633662 0.0941509 
-0.00679979 0.0155002 -0.0477969 

-0.00274592 -0.000397142 0.0439364 
-0.00125048 0.0229108 -0.0389606 
-4.52079e-05 -0.000339465 0.00678357 

0.0436188 0.0357332 -0.0637611 
-0.0700799 0.0192377 0.0337363 
0.0113097 -0.042909 -0.0817691 

0.000211819 0.0857174 0.0371091 
-0.108694 0.0346161 0.0471616 
0.0174412 0.0472371 0.102858 

-0.0207817 -0.00324771 -0.0388338 
-0.00586014 0.00170077 0.540512 
0.000489218 0.000480995 0.0880461 

-0.0422336 0.0341331 0.124131 
-0.000293535 -0.00309298 0.00472638 
-0.043589 0.0513105 0.186734 

-0.337951 0.0787922 1.39319 
-0.445688 0.332269 -0.347132 
0.028633 -0.00395514 0.137957 

-0.00785754 0.00291345 0.0183596 
-0.000102654 0.000314381 -0.000356632 
-0.00081504 -0.000587323 0.0119136 

-0.180057 0.147062 0.399127 
-0.10426 0.180436 0.382796 
0.0101256 0.0145066 0.0262592 

0.0201427 -0.0296019 -0.266718 
-0.041505 -0.0225159 0.0376901 
-0.00300449 -0.00215381 0.0393279 

-0.00171548 0.0269714 -0.0242196 
0.00405761 0.000551727 0.000425071 
-0.00180938 0.00355238 -0.0324429 

-0.0234311 -0.0310319 -0.0515503 
-0.0147118 0.015751 0.022837 
0.000396141 -0.00125435 0.00701187 

0.0333684 0.0441052 -0.563576 
0.0446471 -0.0257137 0.330588 
0.00177842 0.00104162 -0.0301644 

-0.00636368 -0.016692 0.00041147 
-0.0380958 -0.00336125 0.195824 
-0.00912316 0.00119921 0.0663592 

-0.0106219 -0.187075 0.359498 
0.249123 0.0752485 0.230665 
-0.000762419 0.0030751 0.0558722 

-0.0808452 0.217764 0.181773 
-0.141894 0.111849 0.74628 
0.137011 0.0578242 0.504426 

-0.44811 -0.468396 -0.52515 
0.316791 0.225849 0.425927 
-0.00365578 0.0122568 0.125972 

-0.0102477 -0.00172837 0.0443591 
-0.00188166 0.00968829 0.0257172 
-0.000207696 -0.000272918 0.00474358 

-0.0189786 -0.0118974 -0.0826149 
0.00840702 0.0140792 0.0190172 
-0.000162901 0.000261235 0.00169257 

-0.298054 -0.436576 1.26714 
0.436553 0.235161 -0.696043 
0.010906 0.0251326 0.0124397 

-0.133208 -0.47197 -0.459634 
-0.136544 0.0453941 -0.0523584 
0.0486947 -0.0146307 0.308751 

-0.0407014 0.0731718 0.179907 
-0.00132149 -0.0160001 -0.0716568 
0.000447135 -0.00257383 0.0223117 

-0.0310761 1.63612 -0.698955 
0.00806125 -0.075127 0.0352573 
0.00186523 0.0477858 0.107876 

-0.00615669 -0.00615272 0.00673346 
0.00343675 0.00359402 0.0171469 
-0.000102318 0.000533976 0.00186459 

-0.371992 -0.404823 -0.102054 
0.439993 0.330262 0.0596406 
-0.00315607 0.123838 -0.117135 

-0.0136668 0.00229335 0.0324312 
0.000652338 0.00548182 0.188727 
0.000514837 0.000250949 -0.0216014 

-0.0277405 0.00110922 -0.177939 
-0.0386835 0.0536285 -0.240787 
0.000776263 -0.000971096 0.0104774 

-0.108753 0.158243 -0.492132 
-0.0563377 0.0915373 -0.428011 
0.000117774 0.00439071 0.00468145 

-0.201886 -0.076182 0.0440469 
-0.00937659 0.17204 -1.21772 
0.00175911 0.0123769 -0.017477 

0.00889581 0.0118003 -0.104206 
-0.0802683 -0.0458643 0.200593 
0.00359932 -0.000939843 0.00756358 

0.00290634 -0.00239355 0.0782634 
0.00620228 0.00350681 0.13062 
5.26201e-05 0.000239961 -0.00302291 

-0.0484014 -0.0256038 0.126259 
-0.00243564 0.0605471 0.0235966 
-0.00271456 -0.176373 0.378815 

-0.0106206 -0.00295584 -0.00919366 
0.00676888 0.00618191 -0.0425849 
0.000552033 8.3648e-05 0.0120902 

-0.313836 -0.373025 2.29217 
0.00118808 0.19013 0.269341 
-0.00134696 0.000347363 -0.0199492 

-0.0238744 -0.0528468 0.0768094 
-0.0962661 -0.068472 -0.0654327 
-0.0131065 -0.0012085 0.034944 

-0.0110986 -0.0236843 -0.030244 
0.0267945 0.0123197 -0.00958675 
0.00155143 -0.00074535 0.0120175 

-0.00430965 -0.0391347 -0.682987 
-0.0219325 0.017808 0.252772 
-0.0106097 -0.00638018 0.0641083 

-0.156982 -0.282971 -4.98382 
-0.0539231 0.159897 -0.740854 
-0.0128605 -0.00836131 0.0187652 

-0.0181655 0.0190017 -0.00123573 
0.00239241 0.00856958 0.113607 
-0.000737711 0.000310128 0.0277855 

-0.049073 -0.0984414 -0.462846 
0.0650565 0.0582805 0.154313 
-0.00106456 -0.000216737 0.000983034 

-0.022951 0.0107358 0.122636 
-0.00653326 0.00968022 0.0534599 
0.00111886 -0.00112018 -0.00783053 

-0.051316 0.00368875 0.0351288 
0.00548691 0.0295522 0.0283813 
3.94797e-05 0.000575988 0.0254651 

0.00167859 0.00400512 0.00294856 
-0.0083137 -0.00549138 0.00455846 
-0.000249881 -0.000700297 0.000265157 

-0.00401166 0.0290808 -0.00804732 
-0.0184629 0.0119201 -0.138662 
-0.0001422 0.000528104 0.00553337 

-0.0140838 0.0125674 0.0125035 
-0.00109606 6.9174e-05 -0.00536722 
-0.000549765 0.00155015 0.0280445 

-0.0337008 -0.0159194 0.0448961 
-0.000880535 -0.00695932 -0.0928464 
-0.0019023 -0.000115214 0.0575394 

-0.00755915 -0.00282115 0.0934034 
-0.00607577 0.00124499 0.388034 
0.000885782 -0.000260631 0.0320492 

-0.00863591 -0.00957928 -0.159202 
-0.0171954 0.0159716 1.57616 
-0.00732537 0.0028328 -0.0414814 

-0.00897663 0.000779039 0.0134412 
-0.00209345 0.00352528 -0.00250799 
-0.000558709 -3.92475e-05 0.0109985 

-0.481762 -0.03536 0.312582 
-0.14516 0.221117 -0.469068 
-0.0041996 -0.00852463 0.134284 

0.0194022 -0.176698 -0.133627 
0.186186 -0.019416 -0.308429 
0.0159813 0.0025331 0.0251874 

-0.00411358 0.000987186 -0.233795 
0.00735178 0.00691294 -0.0785628 
0.000267454 5.81698e-05 0.100663 

-0.00680488 -0.0224658 0.00466658 
-0.00840054 0.0147675 -0.034913 
0.0022773 -0.000745643 -0.00360167 

-0.0430897 -0.00669702 -0.000781341 
0.0608945 0.0530956 0.214306 
0.0132165 -0.0121192 0.063644 

-0.255189 0.0261734 -0.357077 
-0.59326 0.174801 -0.819275 
-0.000928112 0.0053168 0.0188746 

-0.016335 -0.00210583 -0.503897 
-0.041489 0.0591216 0.217812 
0.000356567 -0.000384497 0.0053519 

-0.0125217 0.105744 0.797584 
-0.0287067 0.0427272 0.513019 
0.00121459 -0.00353635 -0.0401425 

-0.588381 0.395306 -0.538708 
-0.274803 0.558627 -0.0993258 
-0.0246402 0.0715393 0.0739177 

0.010667 0.00269572 0.0188052 
-0.00316241 -0.0121199 0.148307 
-0.000296444 0.000219417 -0.00335526 

-0.204181 -0.37741 -0.698689 
-0.0271967 0.169515 -0.895498 
-0.00438096 0.0257327 0.0896032 

-0.00722173 -0.00360912 -0.659744 
-0.00306468 0.00481157 -1.29989 
3.58247e-05 0.000215293 0.114054 

-0.0103426 0.00495437 -0.0872659 
0.00115092 0.00358387 0.0256724 
-0.000726845 -0.00028641 0.01348 

-0.00268015 0.00738638 0.0141957 
-0.0136975 0.00227692 0.0299381 
0.000132994 -0.000892228 0.00435503 

-0.00860665 0.015267 -0.112307 
-0.0192443 0.00320901 -0.141953 
0.00147768 0.00173589 0.00799312 

-0.198176 -0.0136933 0.0261064 
-0.0963286 0.222743 1.08919 
0.0280197 0.00570878 -0.0249176 

-0.0541566 0.0632503 -0.166231 
0.0735362 0.0930687 -0.170196 
0.000606984 -0.00130236 0.0383202 

-0.145091 0.00752942 -0.15271 
0.115974 0.146409 -0.890015 
0.00838902 -0.0233586 0.170471 

0.0252568 -0.0892539 -0.00581363 
0.034476 0.042705 -0.190921 
0.000920781 0.00326555 -0.00707852 

-0.0476842 -0.0425029 -0.214625 
-0.0196114 0.0364375 0.367704 
0.000520473 0.000371494 0.0783965 

0.0120306 0.000678181 -0.0254649 
0.0367253 -0.0355506 0.0352414 
0.000412935 -0.00742197 0.0652837 

-0.0476651 -0.0386913 -0.31904 
0.125716 0.0825453 0.127355 
0.0155037 -0.00331738 0.0817959 

0.00353312 -0.000480972 0.036011 
-0.00304178 -0.00317188 0.0303935 
0.00043573 -0.000301048 -0.00071158 

-0.040619 -0.0831392 0.185511 
0.0695944 0.0538116 -0.0902168 
-0.00626478 -0.00234709 -0.0246778 

0.00215965 -0.00191153 -0.0219841 
-0.0053166 -0.00446774 0.0538577 
-0.00011131 -0.000159111 -0.000749359 

-0.0213454 0.0435508 0.0537696 
-0.0519835 0.0190323 0.0328374 
-0.00114389 -0.000753548 0.0183636 

-0.141037 0.00190964 0.0896251 
-0.267898 0.135886 -0.4163 
0.0062111 0.00165628 0.0363878 

-0.0365051 0.0609263 -0.100604 
-0.00419937 0.0379468 -0.00239808 
0.000646382 -0.00200715 0.291104 

0.00108533 0.0104197 -0.000537888 
-0.000348484 -0.00518604 0.0282357 
0.00065976 0.000340238 0.000166674 

0.0139422 -0.199849 -0.263689 
0.272368 0.0381776 0.0700183 
0.00371589 0.00709417 -0.012834 

-0.00724904 -0.0501083 -0.549016 
0.0240366 -0.118904 -0.860339 
-0.00430369 0.00554837 -0.683933 

0.0101737 -0.0741957 -0.364276 
-0.0255856 0.0109574 -0.116102 
-0.00306717 -0.0101709 0.0779539 

-0.00186632 -0.161028 1.99238 
-0.0162598 0.0759934 0.192813 
0.0144089 -0.0193111 0.108732 

0.013484 -0.0196363 -0.00429472 
0.0262733 -0.0179429 -0.0192334 
-0.00297939 -0.000707018 0.0100528 

-0.0186169 -0.0486675 0.0423215 
0.0335006 -0.00728976 -0.0998801 
0.00123436 0.000340821 0.0216002 

-0.00287453 0.0886571 0.327565 
-0.0897325 0.0192665 0.116301 
-0.0016803 -3.26546e-05 0.00902171 

-0.0224156 -0.00193829 0.105853 
0.0011424 0.0169428 -0.0720645 
0.000726566 -0.000835933 0.0112548 

-0.0180006 -0.031771 7.02057 
0.0388924 0.0280862 -4.40623 
-0.000542174 -0.000542618 0.127888 

-0.0016988 0.0191771 0.116828 
-0.0380966 -0.0313861 0.297918 
8.40262e-06 0.00210612 -0.0093855 

-0.024927 0.0052507 0.296796 
-0.00318366 0.00243256 0.187583 
-0.00255681 0.00142193 0.0489667 

-0.00914454 0.00313502 0.67176 
0.00166415 0.00785025 -0.0178508 
-0.00182155 -0.00219619 -0.314528 

-0.0153529 0.0086259 -0.410418 
-0.0257409 0.0047713 0.0879268 
0.000429605 -0.000120104 0.049923 

-0.118507 0.1375 -0.691921 
-0.0491602 0.150828 3.07891 
0.00231723 -0.00701648 -0.168772 

-0.0733501 -0.108587 -0.464451 
0.192378 0.0822945 -0.1199 
0.0116408 -0.00183862 -0.107073 

-0.0120792 -0.00418536 -0.519162 
0.00338532 0.0209563 -1.41526 
-0.000294727 0.00013545 0.118758 

-0.091707 -0.0496768 0.580929 
-0.0672008 0.0943435 -8.5844 
0.000364804 0.00203432 0.128297 

-0.114904 0.125831 0.647538 
-0.116311 0.0289648 0.417059 
-0.011885 -0.00498268 0.101882 

-0.240541 -0.221013 1.78844 
-0.0237853 0.244639 -2.58588 
0.00787742 0.00473183 -0.596773 

-0.004916 -0.124508 -0.107802 
0.217916 0.10039 -0.0181443 
-0.0364152 0.00125486 0.178344 

-0.0749564 0.0722369 0.0742076 
0.0193043 0.0627718 0.458336 
-0.0169424 0.0132582 0.101165 

-0.0732674 0.123948 -2.7537 
0.0851035 0.194273 -9.00882 
-0.00324202 -0.00359549 0.0266304 

-0.000127683 -0.0465579 0.263199 
-0.0655682 -0.00713794 -0.373848 
-0.00915994 -0.0304479 -0.0903835 

-0.333989 -0.404011 0.215235 
0.207218 0.329873 -0.337716 
-0.0328806 0.00588412 -0.00142033 

0.00694067 -0.00296761 -0.00775695 
0.00680062 -0.00962011 0.0111088 
0.0171373 -0.00170052 0.0327751 

-0.03307 0.02972 -0.155033 
-0.027388 0.0118076 -0.107133 
-0.000400435 0.0011631 0.0235261 

-0.00548193 0.000401309 0.0348365 
-0.00212365 0.00325468 0.00609964 
0.000284002 -8.77042e-05 0.0013687 

-0.00967803 -0.0127692 -0.0872604 
0.0263094 0.0186673 0.0431788 
-0.00315198 0.000704547 0.00918196 

0.00160305 0.00213812 -0.0124278 
0.0131238 0.00554826 0.0629721 
0.00148745 -0.000436585 0.0101556 

-0.00367457 -0.00116982 -0.00764917 
-0.00313593 0.00337742 -0.0119073 
-6.20854e-05 -0.000191069 -0.00113055 

-0.0248878 0.128206 -0.0444409 
0.0630763 -0.0350369 -0.289136 
0.0012997 0.000502131 0.0125342 

-0.11439 0.0515432 1.02101 
-0.0984355 0.123234 -0.791147 
0.00252943 0.0132442 -0.0819959 

-0.158645 -0.178062 0.0821419 
0.214125 0.184433 -0.32708 
0.000816029 -0.000668006 0.00197954 

-0.0424455 -0.0845232 0.524488 
0.0575137 0.0673118 0.584304 
-0.00504911 -0.000160984 0.101322 

0.0457267 0.0385102 -0.0544096 
-0.00133796 -0.0210862 0.608469 
-0.00291346 0.012304 0.130081 

-0.0275922 -0.0192132 -0.0148334 
0.0211588 0.0166796 0.00448006 
-0.00583946 -0.0413277 0.123168 

-0.0137544 -0.0476729 -1.10399 
0.0395754 0.019238 0.913921 
-0.00330772 0.00685626 0.0264494 

-0.00647962 -0.0651034 -0.188734 
0.0762945 0.00504057 0.00106989 
-0.00393042 8.39561e-06 0.0243769 

-0.0123576 -0.00995641 0.207428 
-0.00444974 0.0238872 0.122896 
0.00871364 0.00284184 0.0395198 

-0.0738681 0.0155037 0.0504563 
-0.0281842 -0.000877513 0.221285 
-0.000916608 -0.00259715 0.139181 

-0.018101 -0.000272391 0.00864583 
-0.0140545 0.005233 0.0110684 
-0.00134404 -7.17203e-05 0.0305018 

-0.0072582 -0.00923752 -0.0690951 
0.00823844 0.00170271 -0.219413 
0.00444009 -0.00289941 0.0709332 

-0.0254827 -0.236756 0.00793554 
0.138186 0.0514403 -0.116192 
0.0390721 -0.00623509 0.0848397 

-0.0419067 -0.0483918 0.0618334 
0.0574163 0.0185396 -0.0183181 
-0.00030634 0.00352972 0.0209301 

-0.00135179 -0.0261274 0.217379 
0.136508 0.0231543 -0.789923 
-0.00409818 0.00338785 0.0452144 

-0.267447 -0.406909 0.719126 
0.0794392 0.324752 -0.411684 
-0.0106959 0.0096313 0.00324131 

-0.0222552 0.0259984 -0.239636 
-0.11889 0.0188958 -0.614606 
0.0119331 -0.00187963 0.0189846 

-0.0230451 -0.00112764 0.0686738 
-0.017525 -0.00646993 0.15145 
-0.000779817 -0.00107359 0.125418 

-0.376374 0.156203 -0.693914 
-0.145405 0.172687 0.0818075 
-0.0130661 0.00543027 -0.042918 

-0.107444 0.00235587 0.391214 
-0.00279426 0.0798976 -0.358468 
0.00239609 8.34428e-05 0.0994366 

-0.786061 0.566695 1.0087 
-0.215702 0.611664 -3.89934 
0.0197957 0.0114255 0.394504 

-0.190543 -0.0870007 0.0332434 
-0.0597595 0.106091 -0.795441 
2.80488e-05 0.00122279 0.0272931 

-0.163815 -0.182193 0.404661 
-0.307953 0.171683 -0.229267 
0.00460768 -0.0103932 0.0645965 

-0.0143308 -0.0635745 -0.143543 
0.023672 -0.00824254 -0.537485 
-0.00498229 0.0126906 -0.122945 

-0.076228 0.0821436 -0.565639 
-0.0528501 0.133827 -0.818266 
-0.00979541 0.00129112 -0.0122191 

-0.104542 -0.11184 0.0057662 
0.199566 0.133221 -0.0352821 
-0.000319513 8.86669e-05 0.00763262 

-0.0203489 -0.125133 -0.0433089 
0.0932922 0.000834191 0.00997085 
0.00633989 0.000187578 0.0344416 

-0.220368 -0.283497 -1.30645 
-0.0426533 0.237541 0.570369 
0.000301881 0.00874675 0.204274 

-0.330892 -0.15094 0.106374 
-0.542735 0.154722 -0.361935 
-0.0229437 -0.0175862 -0.00490666 
