# vtk DataFile Version 3.0
Output file generated by Yade's KinematicLocalisationAnalyser
ASCII
DATASET UNSTRUCTURED_GRID

POINTS 13483 float
588.709 38.3294 -0.451864
722.206 71.8871 -0.446017
121.947 6.16426 -0.459541
752.654 19.6166 -0.253037
499.21 8.28053 0.30138
319.557 36.0434 -0.473466
159.015 6.90638 -0.437219
563.378 10.9668 0.117717
496.873 27.7811 0.144134
684.828 19.9502 0.400365
213.6 9.02063 -0.0955491
260.621 6.25898 0.304564
630.479 41.9714 0.138758
614.17 25.3578 0.0928733
139.378 17.2679 -0.480655
224.32 35.016 0.395431
220.948 13.1333 -0.272278
293.288 9.61791 0.399285
346.124 33.7487 0.427311
520.996 8.71652 0.500586
414.369 38.44 -0.104536
571.449 57.4919 0.261053
750.543 52.3302 -0.487292
665.502 64.1168 0.426128
460.154 18.8209 0.282269
244.476 45.1335 -0.130277
491.286 31.8191 -0.48023
577.253 21.0457 0.274363
45.4367 15.5456 -0.455283
682.155 49.5449 0.345444
482.51 5.95771 0.459908
16.3367 23.5898 0.298144
731.063 67.8124 -0.2422
495.365 2.57822 0.497044
80.2664 45.4992 0.100344
518.034 34.0702 0.342562
528.411 16.7551 -0.452291
348.305 22.6042 -0.18104
531.042 27.8756 0.325587
355.504 35.215 -0.395568
244.891 14.6024 -0.316901
436.675 38.4507 -0.0643711
650.815 9.60567 0.139155
195.692 6.15772 0.383653
56.0098 7.09005 0.0743389
69.3211 8.94279 -0.263626
662.957 10.3184 -0.607391
23.58 11.7361 -0.289925
593.745 59.917 -0.353243
647.932 30.2528 -0.334249
174.468 32.8585 0.280256
717.793 46.2856 0.122042
35.114 28.2333 -0.115946
530.118 3.05842 0.36371
144.32 7.19319 0.4774
578.071 46.8149 0.374657
504.31 29.6122 0.124771
177.915 0.949929 -0.266597
32.8903 2.34313 -0.341484
354.158 18.6648 0.276871
601.849 57.4189 -0.153028
463.156 36.4326 -0.172095
403.379 1.03863 0.201093
669.784 8.39425 -0.562721
27.01 43.4379 0.235277
261.294 30.8227 0.294099
684.709 15.4517 0.255232
644.593 62.7122 -0.345049
421.568 9.19089 -0.594096
564.098 4.10398 -0.670009
705.784 38.7421 -0.407848
132.946 7.68894 -0.285181
499.631 30.064 -0.146557
479.691 17.1908 -0.119055
300.01 16.7846 -0.349105
20.6554 13.307 -0.243738
734.384 51.5054 0.334048
337.845 41.2643 -0.279874
647.762 27.3292 0.327518
663.485 19.7206 -0.238649
751.305 12.8103 0.20401
466.338 37.4393 0.165354
94.8682 38.2637 -0.266354
657.131 49.3066 -0.215109
628.66 53.5388 -0.0925402
756.348 58.3346 -0.110989
746.46 0.786584 0.533105
297.142 28.3853 -0.438443
611.628 7.91527 0.162086
24.1993 5.33682 0.487262
134.813 39.5156 -0.139951
512.443 15.8192 0.191441
733.504 38.3075 0.48043
198.586 29.9504 -0.238498
44.815 35.4648 -0.259986
494.11 1.3802 0.133347
239.912 8.89391 -0.40938
705.874 62.3443 0.257075
725.338 34.004 -0.230125
367.186 22.3141 0.2509
167.597 27.1475 -0.452608
542.714 46.8368 0.390752
384.589 16.7172 -0.531037
417.681 31.9102 -0.100197
383.629 5.18132 0.450399
545.275 11.0575 0.116302
757.963 26.2007 -0.154077
82.2935 40.3161 0.385912
341.478 5.02149 -0.200963
557.335 9.2774 -0.44667
367.658 46.5886 -0.450276
25.8752 24.9126 0.531861
30.6625 5.77291 -0.344878
561.357 36.3343 0.420806
505.622 26.171 0.169861
26.2895 37.2851 -0.408857
94.8358 30.4931 -0.224319
331.49 16.2663 -0.299794
590.585 22.9553 0.117927
479.398 41.4945 0.29512
695.844 7.6133 0.566127
687.947 8.3705 0.270842
394.815 39.5914 -0.0961406
618.039 39.6812 -0.108579
242.973 17.4361 -0.519022
336.871 3.90757 0.455337
105.337 31.5115 -0.315181
119.042 24.1622 0.301029
539.392 44.4862 0.0703841
313.215 19.6642 0.46853
679.548 56.2868 0.102709
649.227 59.828 0.111688
485.291 22.2846 -0.407286
732.684 13.9076 -0.319396
433.686 25.4001 0.218644
284.215 24.257 -0.307268
648.373 41.464 0.279466
285.818 29.4492 0.431123
573.189 12.4643 0.200354
340.298 38.7874 0.19114
507.299 12.1275 0.44347
374.56 33.544 0.0869051
436.006 18.4302 -0.106083
326.686 43.0156 0.430234
194.574 31.8009 0.11285
726.705 75.8737 -0.151502
753.857 28.9876 0.288367
6.13122 12.5994 -0.435536
440.324 24.0511 -0.404813
38.5889 22.396 0.0895985
384.618 33.8717 -0.496611
402.748 26.1161 -0.265418
76.3888 11.74 -0.498171
53.0063 33.9392 -0.442813
231.449 13.6185 0.433614
606.905 52.2578 0.380357
574.089 23.2133 -0.455508
76.5103 20.7618 -0.52964
666.915 63.2253 0.411939
720.024 2.33018 0.571255
635.853 64.3959 0.443654
667.638 2.19842 0.533599
548.472 31.6942 -0.421121
572.511 59.0202 0.442986
515.858 19.8083 -0.394788
760.722 8.9647 -0.319559
229.112 25.5314 -0.139671
130.479 35.6161 -0.198991
253.458 6.68282 0.402445
96.6332 4.40115 0.275649
65.5776 10.2082 -0.181532
283.956 36.4365 -0.300874
17.3768 25.6096 -0.366383
553.264 23.994 0.457208
589.816 55.3955 -0.19049
469.615 24.386 -0.367895
744.251 63.3719 -0.363368
414.872 8.85838 -0.112663
443.419 39.9941 -0.3669
537.947 3.47849 -0.264834
23.045 23.7472 -0.389982
575.655 5.15947 0.546181
547.114 4.37159 -0.310178
211.627 11.3588 -0.515613
433.118 16.6267 -0.21555
319.971 6.15601 0.371047
396.919 20.266 -0.329225
701.873 66.382 0.0999467
197.903 26.9316 -0.447727
738.085 6.63949 -0.444182
699.577 58.9044 0.313589
392.29 11.093 0.191888
682.73 4.80938 0.693586
591.66 34.7507 -0.414577
703 23.538 0.45053
438.251 47.6691 0.267402
500.764 13.8832 0.393391
471.795 47.8761 -0.234477
454.008 8.80809 -0.138292
641.154 57.7564 0.267751
640.393 52.4162 -0.302298
195.881 40.869 0.332089
749.145 12.8239 0.126612
573.125 60.6664 -0.2415
11.0853 17.8258 -0.164692
415.294 27.1081 0.336556
192.661 25.0053 -0.391012
96.6823 38.7836 0.201909
731.917 34.419 -0.434929
634.148 67.6403 0.220811
328.406 26.4494 0.354397
535.002 10.298 0.376172
85.3057 44.1469 0.168149
254.782 26.3691 0.463137
556.227 28.7155 0.380629
494.036 23.0245 0.392787
270.227 0.900189 -0.350324
552.846 49.2651 -0.350976
533.164 47.4763 -0.447054
489.927 39.1753 0.390774
505.177 2.36758 -0.628993
674.208 29.8672 0.372452
185.029 12.6552 -0.163246
508.268 39.551 -0.419163
557.158 51.0908 -0.117766
74.6826 0.918495 -0.27839
258.833 4.64599 0.188346
752.982 30.7979 -0.184725
750.536 16.0195 -0.43143
759.298 34.3058 0.454758
312.625 8.54036 -0.241771
705.115 27.9232 0.418071
417.385 44.029 0.315048
458.561 0.86095 0.507942
634.085 50.0397 0.451212
27.1658 30.8136 0.300753
341.374 44.0616 -0.480771
259.773 2.8198 0.309077
733.333 63.2598 -0.180051
680.179 69.3078 -0.248375
295.987 10.9942 0.207567
644.163 42.7634 -0.0958631
559.471 2.62689 0.271072
545.016 6.59172 0.453035
99.7005 18.4519 -0.599869
312.382 1.02575 -0.232653
352.731 2.29571 -0.342766
13.7836 7.71401 0.490694
4.6458 32.5684 0.249231
167.021 19.2242 -0.356152
70.5519 44.0018 -0.206442
68.2291 29.3132 -0.318096
433.255 14.8057 -0.436238
378.029 37.0593 -0.477565
715.769 47.2838 -0.125203
19.6799 4.04433 0.267969
72.4666 6.96069 0.147079
611.043 52.1356 -0.138203
303.636 0.944895 0.312751
374.681 16.7135 -0.109485
242.772 4.76278 -0.402847
634.475 28.618 0.160422
460.826 8.97432 0.498204
707.66 23.5494 0.357171
616.34 43.5372 -0.298056
648.645 25.5053 -0.1024
429.352 28.0763 0.479053
105.634 45.4766 -0.30391
539.454 50.4199 0.0684763
700.633 17.9497 0.185572
245.133 31.2848 0.241147
32.5917 17.0256 0.180805
346.4 14.1821 0.494382
111.92 41.2941 -0.466833
277.039 42.4596 -0.190028
435.063 1.4024 -0.263149
733.197 47.2277 -0.448316
660.571 2.12097 0.722791
341.998 3.47091 0.563968
309.294 27.6957 -0.14905
470.783 44.5819 -0.205376
84.0275 7.95031 -0.34518
203.393 46.7667 0.377549
726.693 40.9525 0.412229
503.856 45.2531 0.0653423
204.922 42.7122 0.250359
165.543 43.3184 -0.395528
759.996 51.8444 0.385298
756.458 25.1674 0.471762
605.694 3.98548 -0.646759
196.105 26.7846 0.0934225
549.318 33.9066 -0.104546
551.36 33.4964 0.278267
419.431 5.92256 -0.132574
489.33 0.93116 -0.329472
714.924 48.828 0.556924
87.4226 31.2513 -0.214428
638.172 22.7457 0.462706
283.091 15.9426 -0.360076
9.57845 2.32076 -0.389851
129.536 37.5288 -0.188311
69.1766 24.1128 -0.463885
674.301 53.2349 0.322112
738.831 75.1792 0.163875
190.927 29.8625 0.176071
748.79 25.3967 0.344992
45.9611 37.1149 -0.250945
93.5675 28.9871 0.168046
621.362 23.5936 0.436885
424.342 18.0235 -0.54451
525.115 17.3776 0.131572
245.581 29.3386 -0.19069
614.5 10.0094 0.398069
759.609 25.0308 -0.347266
30.3432 31.8602 -0.264611
278.7 7.6637 0.199604
229.007 15.5965 -0.241097
1.08913 37.2208 0.146191
232.433 14.6039 -0.382981
218.407 11.286 -0.130307
220.773 26.5732 0.286558
136.467 28.7599 0.115799
550.48 16.1982 0.361647
172.646 14.203 0.352394
727.831 66.4844 0.214328
179.953 3.8293 0.504825
48.7547 38.0845 -0.349809
708.261 75.468 -0.426744
291.264 31.5914 0.37593
653.619 33.8103 0.474505
739.969 48.6076 -0.468096
310.742 9.14283 0.125413
697.985 45.8341 0.344331
338.936 2.5238 -0.42001
425.779 25.5657 0.372699
653.405 22.1619 0.449936
108.739 11.9886 0.421353
490.973 3.97334 -0.48652
711.572 22.7097 -0.173838
91.0891 7.64865 -0.22351
290.9 14.7871 0.204339
434.385 12.4709 -0.235457
761.387 7.3145 -0.524824
408.299 2.0088 -0.533753
181.15 40.3021 0.271059
702.822 10.4867 0.400228
132.345 37.733 -0.197197
271.803 31.8754 -0.380884
410.706 22.0683 0.215843
575.418 14.5652 -0.330676
396.534 9.34668 0.393026
465.052 30.3318 -0.449685
722.888 73.3 -0.355951
48.9439 11.3633 -0.109286
309.079 39.3266 -0.265966
389.926 27.7361 -0.386554
420.259 20.9568 0.276274
526.31 51.2145 -0.372406
710.823 50.8346 -0.184385
645.511 52.7586 -0.351388
233.152 34.8679 0.378798
13.491 32.2707 -0.152934
638.69 55.3437 -0.11493
516.532 50.2401 -0.38658
236.922 40.2828 0.0953564
659.35 43.7273 -0.101906
156.269 9.40002 0.219811
376.473 22.5562 0.262301
472.891 45.9482 -0.103359
424.351 19.7202 0.194215
719.891 68.9869 0.307344
436.584 3.39859 0.508838
51.3631 25.9554 -0.302467
479.174 34.9107 0.340009
443.605 45.5895 0.364441
728.673 56.843 -0.237855
694.052 48.0539 -0.226622
546.365 20.0434 -0.138261
723.298 57.0793 -0.44555
302.952 2.15737 -0.469591
390.363 30.8474 -0.453876
29.7074 39.0025 -0.295462
699.93 45.5355 -0.154372
600.136 28.1841 -0.491026
472.211 0.734622 -0.449217
130.276 4.56518 -0.293018
436.508 42.8207 0.0954795
11.9961 0.932709 0.321692
759.333 7.29715 -0.138015
382.766 40.992 0.391972
609.262 9.9717 0.503373
[...]
POINT_DATA 13483
TENSORS Strain_matrix float
-0.0190525 -0.0188053 -0.949992 
-0.0460699 -0.0193454 0.297637 
-0.00390585 0.000235819 -0.0448275 

-0.0257169 0.164616 1.57057 
-0.0358814 0.0559992 -2.10473 
-0.0074246 -0.0251607 -0.693672 

-0.00961269 -3.45418e-05 -0.00218561 
0.00313058 -0.00141154 -0.102697 
0.000130392 -2.12601e-05 -0.00349012 

-0.0462079 -0.259238 -0.773905 
0.199292 0.164167 0.393132 
0.007378 0.00626362 0.0240717 

-0.0524331 -0.127732 -0.191983 
0.161148 0.13247 0.0425776 
-0.0178932 -0.0161535 -0.171005 

-0.0303186 -0.0070192 -0.323393 
-0.0257027 -0.00436835 0.340815 
0.00132813 -0.000363414 0.038356 

-0.015077 0.0185541 -0.0619737 
-0.0129796 0.00709322 0.209079 
-0.000669741 0.00116647 0.040704 

-0.0319604 -0.156652 -0.17975 
0.101851 0.0623138 -0.104994 
0.00787613 0.00346807 0.0287384 

-0.0520268 -0.020175 0.400035 
-0.00773093 0.0376204 0.0997729 
0.0235262 -0.00485176 0.158794 

-0.08155 0.0985263 -0.157047 
0.0121753 0.0448074 0.149957 
-0.0154014 -0.0167444 0.01603 

-0.0130524 0.000643144 -0.00393448 
0.00271705 0.00497991 -0.0102749 
-0.00013813 -0.000395673 0.00685609 

-0.0143579 0.00289116 -0.00124342 
-0.00273612 0.00337604 -0.00215265 
0.000421695 -0.00116287 0.011836 

-0.010247 0.153681 0.16433 
-0.032288 0.0163536 -0.355679 
-0.0184528 0.0169307 0.0988608 

-0.47388 0.123332 -0.0165383 
-0.0368738 0.355716 -0.127258 
-0.000171131 0.00655638 -0.00886006 

-0.0274814 -0.00649881 1.08588 
0.0188152 0.016892 0.126095 
-0.000212555 -0.000436591 0.0690724 

-0.0066965 0.00337418 0.238782 
-0.00385913 0.00619034 0.0596659 
4.80629e-05 -6.35599e-05 0.0135504 

-0.00428336 -0.000317319 0.0133315 
-0.000606447 0.00193196 -0.0233595 
0.000412636 -0.000187463 0.00833644 

-0.0079857 0.0203494 0.0222044 
0.00822 -0.0165031 -0.0262118 
0.00108565 0.000185809 0.0172139 

-0.153253 -0.129287 0.654931 
0.079869 0.16995 -1.24046 
-0.00480541 0.000462769 -0.0125796 

-0.101719 0.000422086 -1.09064 
0.0435825 0.0646197 0.173472 
-0.0741088 0.00876347 -0.0626237 

-0.083932 0.183972 -0.553055 
0.203649 0.0201276 -0.38425 
0.000885329 -0.000409671 0.0262025 

0.401073 -0.82996 0.0739204 
0.714901 0.441801 -0.131814 
-0.141962 0.0609961 -0.0247929 

-0.00807627 -0.00511007 0.00304972 
0.0148886 0.00953444 0.0964613 
0.000552232 0.000290678 -0.00358187 

-0.218139 0.261317 11.1408 
-0.186826 0.357247 5.99509 
0.0216383 0.0273853 0.291142 

-0.190534 -0.297543 -0.797201 
0.221012 0.271167 0.784692 
-0.00744973 2.27517e-06 -0.0707456 

-0.00614323 -0.0103681 -0.0063511 
0.0110249 0.00193178 0.00546186 
-0.00144954 -0.00290593 0.0143851 

-0.039825 0.0303258 -0.24209 
0.0339198 0.0723429 3.77834 
-0.00405832 -0.00346669 0.198946 

0.0380337 -0.067249 -0.0927639 
-0.127048 -0.198851 0.315798 
-0.0239082 0.00250098 0.136546 

-0.01909 0.0360923 0.141284 
0.00974844 0.0200501 -0.0209647 
0.000604183 -0.00104362 0.0720421 

-0.129048 -0.170155 0.342642 
0.121112 0.148469 -0.746445 
0.0147896 0.000373072 -0.0412034 

-0.0877845 0.0616251 0.282698 
0.0148289 -0.0515181 -0.405776 
-0.0143977 0.0403844 0.184462 

0.0181852 0.0925542 -0.0316559 
-0.0535267 -0.0390143 0.0694453 
-0.00284766 -0.00294419 0.0182572 

-0.0101051 0.324783 -0.635186 
-0.150607 0.0750998 0.435646 
0.0154523 -0.0010206 0.0248061 

-0.00228712 0.0238903 -0.244051 
0.0290453 0.0208066 -0.134872 
0.00345753 -0.0100958 0.0877322 

-0.0139706 0.0846147 -0.0319527 
-0.0784098 0.0489965 -0.0367501 
0.0103222 -0.0156632 0.201496 

-0.173483 -0.293096 -0.567949 
0.04022 0.156682 0.495417 
-0.00172308 -0.00161191 0.0402475 

-0.0916774 0.0878341 0.606753 
-0.0289654 0.0735647 0.535738 
-0.00197325 -0.00235872 0.126707 

0.0613194 -0.105903 0.16306 
0.0917757 -0.0120195 0.0265892 
-0.00980977 -0.000626957 -0.00598257 

-0.0738303 -0.0401387 -0.760425 
0.0370207 0.0987176 0.655906 
-0.0021324 0.00163333 0.0490287 

-0.0590345 -0.0674553 -0.905161 
0.193115 0.0704339 0.120334 
0.00648177 -0.00869525 0.0939925 

-0.00427924 -0.0343733 -0.107492 
-0.0424432 -0.008972 0.0733714 
-0.00155753 0.000336451 0.00634131 

0.0188626 -0.151009 -0.196721 
0.074642 0.00467493 -0.143245 
0.000408917 -0.000658102 0.0112395 

0.0133389 -0.205235 0.0506531 
0.35808 0.0649687 -0.349996 
0.00720915 0.0102019 0.0808551 

-0.0101616 -0.00470029 -0.0021772 
0.00588733 -0.00725753 -0.0341207 
-0.00165702 -0.00131546 0.045432 

-0.0268242 0.020198 -0.0158425 
-0.00990548 0.014421 -0.0529757 
0.000515325 -0.00136948 0.0185044 

-0.00569279 0.00760091 -0.0740168 
-0.0180548 -0.0067829 0.111922 
-0.00152038 -0.002205 0.051491 

-0.114474 0.160781 -1.81388 
-0.0464579 0.14298 -0.303713 
0.0178093 -0.0162972 0.194186 

0.0153096 0.0210296 -0.00814832 
-0.0130177 -0.0281753 0.0309098 
0.00177912 -0.000494221 0.000609016 

-0.155064 -0.461709 0.690698 
-0.160943 0.0520147 -0.542782 
0.00725941 -0.0162053 0.0785429 

-0.145117 -0.123005 -0.169899 
0.031341 0.116283 0.315766 
-0.000981203 -0.00195061 -0.00419727 

-0.0302556 -0.0223405 -0.0182195 
0.0255306 0.032787 -0.00365296 
-0.000325963 -0.000374076 -0.00229577 

-0.0309903 -0.084642 1.31697 
0.00429202 0.0344547 -0.266728 
0.00270822 -0.0026703 0.11993 

-0.0131703 0.0116112 0.0285911 
-0.0217458 0.0201622 -0.0131797 
0.000226741 0.000682395 -0.00641129 

-0.0398907 -0.0381306 0.109775 
0.00845885 -0.00556835 -0.116647 
-0.0260719 -0.0182601 0.0965102 

-0.0211144 -0.00265652 -0.106862 
-0.00281733 -0.00300155 -0.0191726 
0.0117119 -0.000677147 0.0695323 

-0.815716 0.144812 2.31185 
-0.189811 0.257805 -1.46855 
0.0496104 0.00480226 -0.118038 

-0.2122 0.41785 0.357318 
-0.314723 0.0654716 0.260105 
-0.0165183 0.016269 0.11333 

-0.0146602 0.0117419 0.0293928 
0.00345727 0.0230735 0.0269506 
0.000103182 0.0107423 0.040004 

-0.0039374 0.00214738 -0.0126161 
-0.00398482 0.000713043 -0.0105386 
0.00026608 0.000799671 0.00368186 

-0.0259174 -0.0286253 -0.188606 
0.0206266 0.0333664 -0.450554 
-0.00170945 0.00016126 0.0144319 

0.138067 -0.348868 1.24641 
0.117286 -0.0793031 -0.722338 
-0.00837138 0.0244751 0.0796469 

-0.114443 0.0711885 -0.353219 
-0.0107885 0.122087 -0.231818 
0.000719095 5.02946e-05 -0.000479061 

-0.0173302 -0.0120189 -0.00111835 
-0.00073241 -0.00158335 -0.00417002 
9.38998e-05 0.000868815 0.0244822 

-0.0170915 -0.00959047 -0.120692 
-0.00633367 -0.0198019 0.0546925 
0.0245568 -0.00942011 0.151896 

-0.104886 0.0510008 0.0829257 
0.00770759 0.0799013 0.301916 
-0.00482713 0.00354447 0.0211002 

-0.0113319 0.0910986 0.0782594 
-0.0366456 0.0292234 0.0522176 
-0.00012209 -0.000958768 0.00426192 

-0.0934321 -0.0169639 -0.110465 
0.0220348 0.0121841 0.0513884 
-0.0052254 -0.00223899 0.0657684 

-0.0078644 0.042119 -0.782193 
-0.00286125 0.0141182 0.753573 
0.00328204 -0.00756583 0.0974768 

-0.0461176 0.0266115 -5.54496 
-0.0156601 0.0354429 -1.96213 
0.00115415 0.000642627 0.691561 

-0.0930557 0.00974472 1.8098 
-0.0310888 -0.0589806 0.746638 
0.00134625 0.00920494 0.730252 

-0.105449 0.0933306 0.369676 
-0.161946 0.0178674 0.0940772 
0.00637905 0.0794986 0.120464 

-0.0110347 0.00745672 0.00804865 
0.00154622 0.00447487 -0.00681583 
-0.000482929 0.000579913 0.0058749 

-0.0246976 0.180503 0.340631 
-0.0210507 -0.000970733 0.210544 
-0.0234668 -0.0228323 0.15221 

0.0122681 -0.133351 -0.129795 
0.0583435 0.0342837 -0.0780537 
-0.0325455 -0.00180875 0.0643512 

-0.0100612 0.0172267 -0.0575383 
0.00390208 0.0137784 0.170804 
0.000782121 -9.12238e-05 0.00506736 

0.0331228 0.0347591 0.0331648 
-0.0213593 -0.0291465 -0.0257406 
-0.000572961 -0.000285725 -0.00705215 

0.00898523 -0.0109059 0.0244441 
0.0240471 -0.0138891 0.0398867 
-0.00153391 0.000142549 0.0148911 

-0.0234072 0.070785 -0.674466 
0.215406 0.0968924 0.318881 
-0.0068421 -0.051922 -0.100669 

-0.0548389 -0.0916136 0.324797 
0.138147 0.0876706 0.465942 
-0.0199668 0.00407808 0.16314 

-0.0595053 -0.11327 0.275517 
-0.117402 0.143949 0.0829136 
0.000205097 0.00148838 0.0257014 

-0.0870927 -0.108843 0.210636 
-0.00542554 0.0855724 0.149495 
-0.0308965 -0.0899427 0.391034 

-0.114911 0.0589704 0.105173 
-0.0987152 0.0561477 -0.0139631 
0.000345903 0.000418288 0.0104436 

0.00764164 0.0136007 -0.0890204 
-0.00874998 -0.0145784 -0.0034491 
0.000667923 -0.000510782 0.00384508 

0.0391724 0.089107 -0.495403 
-0.217318 -0.0222949 0.350263 
-0.0157082 0.00249612 0.00409403 

0.0292885 0.0471893 0.0292572 
-0.0123608 -0.0444197 0.237602 
-0.00684184 -0.0352853 -0.00677384 

-0.00338235 -0.0197197 0.0672445 
-0.00582829 -0.00197108 0.0251887 
-0.000653758 -0.000604026 -0.00741332 

-0.00408017 0.734809 0.0620594 
0.000640537 0.0673734 0.0593814 
0.000947623 0.0244454 0.0545278 

-0.00325014 -0.0466395 0.2473 
0.0938034 0.0215767 -0.00339558 
0.000800758 4.89876e-05 -0.0388627 

-0.451177 0.180445 0.313923 
-0.180346 0.492744 0.0413931 
-0.0302871 0.00900891 0.181893 

-0.00731514 0.00724413 0.0682702 
0.000622817 0.00470306 0.250812 
4.05129e-05 0.00128778 0.141624 

0.00858902 0.0408458 0.0949709 
-0.0563065 -0.015242 0.043727 
-0.0027221 8.14362e-05 0.0100793 

-0.084356 0.00114331 0.515236 
-0.0729958 -0.00552989 -0.17431 
-0.00392192 -0.000724079 0.0989647 

-0.175379 -0.100527 -0.163051 
0.17577 0.101602 1.18165 
0.0122425 -0.01905 0.0341619 

-0.0180729 -0.029536 -0.0739808 
0.00271645 0.0273475 0.00462904 
0.00117469 0.00103617 -0.00126766 

-0.012033 -0.0209813 -0.0129954 
0.022966 0.00660056 -0.0656502 
0.00182921 0.00741676 0.0523807 

0.0153306 0.047476 -0.0252486 
0.00841426 -0.00708403 -0.0184873 
-0.0220188 0.00497232 0.0116846 

-0.0108541 0.00343695 -0.022553 
0.010938 0.00798571 -0.0147989 
0.000254513 -0.000255926 -0.00481514 

-0.043206 0.0811821 0.702633 
-0.215962 0.0452934 -0.0490933 
-0.00186049 0.00245717 -0.0126287 

-0.0948607 -0.0700853 -0.0506826 
-0.0661676 0.0907401 -0.0139868 
0.0135418 -0.00202436 0.0847189 

-0.0331675 -0.0550639 0.0799538 
0.0903739 0.0386127 0.0110247 
-0.00496571 -0.0439316 0.102403 

-0.000708723 -0.006696 0.282699 
-0.00478961 -0.00394154 0.0395822 
0.000629207 -0.000373777 -0.037747 

0.105436 0.0335406 -0.286153 
0.0564756 -0.0570796 1.2344 
-0.0655279 0.0435432 0.517613 

-0.0878702 -0.0936128 1.88024 
-0.0107677 0.0460589 0.264693 
-0.00037637 0.00052984 0.376718 

-0.122202 0.0567878 0.0858242 
-0.349656 0.154483 0.407281 
0.00379373 -0.00119715 0.00249423 

-0.129312 0.0643491 0.781375 
0.0164567 0.0934534 -1.19843 
-0.0603311 0.0433241 1.08308 

-0.218922 -0.270947 -1.00038 
0.0872356 0.195173 0.345603 
-0.00287773 0.00173343 -0.0198846 

0.0116445 0.00373709 -0.0139683 
-0.0027691 -0.0147193 -0.00614896 
0.0013233 -0.000627616 0.0151116 

-0.00551006 0.0505962 0.123486 
-0.0592197 0.0211441 0.112014 
8.04494e-05 -0.000361491 0.00605094 

-0.0307731 0.0174725 0.0153082 
0.030534 -0.0042928 -0.047714 
-0.00487551 0.00630869 0.10537 

-0.0609477 -0.0301393 -0.453715 
0.0103842 0.106457 -1.09405 
-0.00480528 0.0165608 0.47856 

-0.0117843 0.0282347 3.83841 
0.00296124 0.0630402 -4.9016 
-0.00275382 0.00382484 -0.00735996 

-0.0163592 0.000141361 2.6661 
-0.011686 0.0130961 4.65311 
-0.00131605 -9.38069e-05 0.514804 

-0.00601976 0.00584806 -0.0067547 
-0.0098509 0.00236898 0.0148667 
-9.84032e-05 0.000145338 0.00731761 

-0.0346285 0.0200389 0.443421 
-0.0505986 0.0335405 -0.22068 
-0.0120471 -0.00557524 0.0939802 

-0.0182848 0.125801 0.303919 
-0.122952 -0.063259 0.629316 
0.000667103 -0.00124397 0.0634234 

-0.0175903 -0.00246594 -0.625632 
-0.0358554 0.0111727 -1.27759 
0.00467765 -0.00309733 0.00523015 

0.0366015 0.132205 -0.0478178 
0.0430464 -0.0110841 0.19241 
0.000159936 0.000483707 0.0105192 

-0.0196754 -0.0430372 0.198433 
0.0482076 0.00441287 0.42206 
0.00664911 -0.0505919 -0.0548987 

-0.191234 -0.539935 -0.193321 
-0.0937854 0.108716 -0.648148 
-0.00318319 0.0809501 0.0656254 

-0.16252 -0.0888811 -0.0871878 
0.123795 0.149249 -0.0970035 
-0.00277115 0.000113175 0.0487848 

0.00744731 -0.0831047 0.00756355 
-0.0636864 -0.0324359 0.0510066 
-0.049291 0.00164374 0.169453 

-0.0337037 0.0492499 -0.1139 
-0.0694721 0.0142817 -0.0825801 
-0.00398562 -0.00396192 0.00539977 

-0.238014 0.364264 -0.764784 
-0.100214 0.118998 0.258395 
-0.0095307 0.00234986 0.0598928 

0.00743874 -0.0914031 -0.225799 
0.0775289 -0.00288842 -0.0856896 
0.00568165 -0.000115494 0.0479013 

-0.0225733 0.00329328 0.0315878 
-0.00804895 0.0183035 -0.283465 
-0.000780695 -0.00047 0.0245875 

-0.0361172 -0.0297015 -0.0684427 
-0.000574436 0.0439588 0.13722 
0.0244375 -0.101627 0.144275 

0.0145903 0.185655 0.109083 
0.0291912 0.0514597 0.105079 
0.00210454 -0.000864644 -0.0145076 

-0.014934 -0.0101213 -0.0922075 
-0.0355176 0.0146642 0.0544299 
3.17257e-05 0.00192732 0.0169443 

-0.11921 -0.0191943 -0.415561 
0.374391 0.12086 0.191796 
-0.039152 0.0513318 0.375662 

-0.061885 0.094659 -0.986455 
0.0105212 0.0638102 0.426226 
0.00208024 0.00219299 0.0217255 

-0.014949 0.0744285 0.138523 
0.1353 0.0107301 -0.608289 
-0.00500273 -0.00125391 0.0597654 

0.00567713 0.187418 0.0339796 
-0.180184 -0.0317986 0.112968 
-0.00127335 -0.00453797 -0.0338417 

-0.0235889 -0.122993 -0.128082 
0.185373 0.024684 -0.0429537 
0.00721732 -0.00960071 -0.0614392 

-0.00729918 0.089453 -0.075269 
-0.116131 0.022955 0.0291211 
0.00142952 0.00326871 -0.0426174 

-0.00546904 0.0219412 0.196472 
-0.0452186 0.0168423 0.0230241 
7.28399e-05 -0.000654897 -0.0244856 

0.00590717 0.0147343 0.0471152 
-0.0104303 -0.0041382 0.0117978 
-0.000341553 0.000670978 0.00705921 

-0.109133 0.16535 0.174684 
-0.0853193 0.120221 0.185174 
0.0202684 0.0172826 0.0898037 

0.000283233 0.0220094 -0.0404881 
-0.0238028 -0.00670669 -0.143979 
0.000120837 0.000458958 0.0421462 

-0.105644 -0.0933353 0.381012 
0.0854623 0.0343105 -0.182172 
0.00202298 0.00421602 0.0552206 

0.100869 -0.195134 -0.368065 
0.189627 -0.0513968 -0.292536 
0.00825946 -0.00705145 -0.0454176 

-0.0233449 -0.00690766 -0.138853 
-0.026078 0.0363114 -0.0856123 
0.00466209 0.00731346 0.0728981 

0.037169 0.206811 -0.156047 
-0.146654 0.0302141 0.104627 
0.0162249 -0.0064707 -0.00412775 

0.012722 -0.0747184 0.0140317 
0.0484504 0.0138754 0.0832394 
-0.00224469 -0.00359906 -0.0498213 

-0.0235177 0.0575442 -0.00649901 
0.0111928 0.0895723 2.94332 
0.000849931 0.0126189 -0.0973975 

-0.0222185 0.0664498 0.275278 
0.037268 0.00737734 -0.127412 
-0.00107158 -0.000175524 0.00118795 

-0.163671 -0.231647 1.23614 
0.0628769 0.0798633 0.360031 
0.00503726 -0.0336143 0.273424 

-0.0250229 0.0473253 0.0541222 
0.0534912 0.0154048 -0.0408571 
0.000122988 -0.00241137 -0.0106568 

-0.0112513 0.0303909 0.119595 
-0.0442541 0.000874948 -0.0779802 
0.00593715 0.00284568 -0.00569132 

-0.000540434 -0.00969687 0.208637 
0.0058828 -0.00213377 0.58539 
-0.00202653 1.25067e-05 -0.0216118 

-0.00824377 -0.0136585 -0.000975989 
0.00224026 0.00770372 -0.00288669 
0.000462823 -8.11668e-05 -0.0059895 

-0.0829299 0.173208 -12.8776 
-0.00584677 0.113521 -9.45578 
0.000188885 -0.00266875 0.857498 

-0.0107295 -0.0233157 -0.055399 
0.0321442 0.0202759 -0.317703 
-0.000445269 0.00265642 0.0214023 

0.0126372 -0.0361872 -0.118682 
0.0329622 -0.00215147 0.250074 
0.00650817 -0.00130844 0.00739682 

-0.00543847 -0.00837829 -0.176919 
0.0121795 0.00286285 0.0820686 
0.000209072 -9.85156e-05 -0.00619994 

-0.0115283 0.0128511 -0.137208 
-0.0104551 0.00549736 0.0632941 
-0.000274595 -0.000416597 0.01984 

0.0590523 0.298073 1.13921 
0.145851 -0.0847633 0.0917478 
-0.00699789 -0.0081658 0.0712028 

-0.109787 -0.0411015 1.19833 
-0.270755 0.0725482 2.22895 
-0.0108096 -0.0039218 0.00244046 

-0.0409609 0.0200635 -1.69726 
-0.0379442 0.0541294 -2.94055 
-0.000886635 -0.000159668 0.0786214 

-0.086149 -0.0790317 1.23367 
-0.14454 0.16679 1.70469 
0.0367302 -0.00506118 -0.751577 

-0.210736 0.141827 1.59304 
-0.126817 0.23058 0.443965 
-0.00300401 0.0159365 -0.00962516 

0.0300539 0.00580629 2.71621 
0.033002 -0.0136204 -1.29025 
-0.0106545 0.0207692 1.12301 

-0.113398 0.0214946 -0.296167 
0.105895 -0.052008 0.649943 
-0.0567965 -0.0286761 0.146083 

-0.111641 0.033787 0.1168 
-0.235834 0.0938352 -1.26991 
-0.0045336 -0.00373068 -0.00927047 

-0.325984 -0.118288 0.28284 
0.200809 0.394791 11.6257 
-0.0110491 0.0736425 5.76889 

-0.0430766 -0.0843408 0.191156 
0.0796721 0.0333375 -1.00139 
-0.00176847 -0.000735259 0.0639219 

-0.36594 -0.164941 -0.19187 
0.720142 0.164238 -0.129812 
-0.00246331 -0.0156281 0.206182 

-0.00827546 -0.00379189 0.00727942 
0.00216435 0.00319605 0.015446 
-0.000386384 -0.000560523 0.00776783 

-0.0594601 0.079687 0.336412 
0.139106 0.0918282 0.0934204 
0.055161 -0.0129844 0.262218 

-0.0227863 0.00700173 0.1453 
-0.00258848 0.0019963 0.0122941 
-0.015568 0.0176262 -0.155916 

-0.0686238 -0.0119622 0.237844 
0.011275 0.0422705 -0.176786 
0.0222227 -0.00369656 0.147895 

-0.0123061 0.00382526 -0.0115467 
0.0120287 0.00737968 0.0882333 
0.00268989 -0.000777686 0.0376078 

0.0183862 0.0418398 0.0258226 
-0.0302554 -0.0212553 0.0621466 
-3.13298e-05 0.000511521 0.00646999 

0.00822952 0.0896558 -0.0359191 
-0.0527237 0.00780814 -0.159777 
-0.0023498 0.00165168 0.0100894 

-0.0524989 -0.201919 1.90472 
0.0174888 0.0645971 0.29379 
-0.00310237 -0.0024205 0.242162 

0.0357248 0.0817976 -1.1082 
0.0165736 -0.0143251 -0.501038 
-0.00673409 -0.00851045 0.0542149 

-0.00336734 -0.0224426 0.537428 
-0.110289 0.0399369 -0.405766 
0.00148542 -0.000851827 0.0451265 

-0.000650148 -0.120196 0.68895 
-0.119054 -0.130741 0.149397 
-0.00169251 -0.00228098 0.00161178 

-0.0118071 -0.00804532 0.00830826 
0.00206273 0.0180046 0.00852759 
0.00159512 -0.000869476 -0.0164891 

-0.0488849 -0.171146 -0.0697575 
0.0972592 0.108564 -0.181245 
0.00143034 -0.000320939 0.00321781 

-0.0188607 0.00604525 0.0213804 
0.00266103 0.000357764 0.00888729 
-0.00158785 0.000508743 0.0244508 

-0.0543404 -0.0021048 0.49476 
0.0477303 0.0618761 -0.282571 
-0.00179947 0.00121849 0.0743242 

-0.0345458 -0.00112847 -0.0932872 
0.0300873 -0.0536278 0.0760914 
0.00269655 -0.0375607 0.133993 

-0.0461324 0.0236892 -0.0366956 
-0.0517276 0.0236007 -0.0184799 
-0.0118701 0.00792865 0.159882 

-0.0104973 -0.00195575 -0.000331723 
0.00485378 0.00571591 0.130059 
-6.32002e-05 0.000345353 0.028881 

-0.0475845 -0.0603614 0.227525 
-0.0300072 0.0481598 0.0126453 
0.00257362 0.00650067 -0.000431167 

-0.0389085 -0.0161038 0.0305121 
-0.00272282 0.00154059 0.0750899 
0.00648418 -0.000341774 0.0714447 

-0.0132184 -0.0475844 0.114425 
-0.0804078 0.0285317 0.420343 
-0.00248286 -0.000137635 0.00221594 

-0.0872976 0.138511 0.193211 
-0.117505 0.0518852 -0.318465 
0.0451794 0.0352379 0.401689 

-0.0376447 -0.0178065 -0.356792 
-0.0365453 0.0350416 0.112597 
-0.00593357 -0.000437575 0.113426 

0.00619552 0.0344788 -0.000758649 
-0.00658415 0.00662038 -0.239466 
-0.00115556 -0.000120896 -0.0155424 

-0.241622 -0.321435 1.40296 
0.12409 0.202125 -0.00303753 
0.0302666 -0.0284705 0.191499 

-0.112112 -0.0274623 -1.00753 
-0.0588386 0.103781 -0.378836 
0.00106423 0.0506544 0.128182 

-0.0389907 0.0315034 1.43297 
-0.0344702 -0.00736722 3.33404 
0.00335001 -0.00324307 0.564434 

-0.105418 -0.300915 -2.4245 
-0.0192905 0.140927 1.32365 
0.00151495 -0.000611419 -0.11603 

-0.188603 -0.039032 -0.286863 
0.0489204 0.114998 -0.301318 
-0.0084986 -0.00194925 0.169857 

-0.0398899 0.0419809 0.500066 
0.0417088 0.345957 1.10848 
0.0330901 -0.0579914 0.255507 

-0.137932 -0.0294602 -0.773593 
0.00740983 -0.0651569 -0.0418878 
0.0201845 -0.0277954 0.239095 

-0.145477 -0.157331 -0.00744293 
0.174756 0.11124 -0.0761675 
-0.0034621 0.00408981 0.0669479 

-0.00682145 -0.0150799 0.00420905 
-0.00421569 -0.0061903 0.0137874 
0.00200438 -0.00150934 0.0292556 

-0.0721782 -0.0676197 0.619249 
-0.0789967 -0.0196752 0.466739 
-0.0226836 0.021943 -0.0349162 

-0.0883393 -0.0936349 0.655125 
-0.121294 0.153682 -0.794993 
-0.000381387 -0.00640913 0.029552 

-0.013213 -0.0650696 0.0314419 
0.0345225 0.0254056 0.105453 
-5.10472e-05 -0.000127957 -0.000175678 

-0.055483 -0.0238787 -0.00212503 
0.0294811 0.0356448 0.0984893 
0.0130564 -0.0706407 0.375663 

-0.659928 0.186037 2.63951 