# vtk DataFile Version 3.0
Output file generated by Yade's KinematicLocalisationAnalyser
ASCII
DATASET UNSTRUCTURED_GRID

POINTS 13483 float
670.079 27.2693 -0.457842
874.279 48.343 -0.47767
131.431 6.15174 -0.442572
916.277 5.733 -0.334138
546.329 7.50906 -0.301144
343.374 34.0838 -0.461907
170.862 6.73549 -0.411221
625.9 10.0408 0.130698
543.176 22.135 0.142452
808.91 12.6196 0.368152
230.185 8.73691 -0.105032
280.591 6.21326 0.291276
724.389 28.6919 -0.134283
700.36 13.8415 0.0845273
149.87 16.8487 -0.458718
241.906 33.8847 0.396158
237.834 13.0967 -0.250055
315.029 9.35904 0.400147
371.619 31.2734 0.425072
574.707 8.49715 0.34867
449.995 35.0429 0.0951394
651.761 43.7581 -0.0335913
913.098 35.7149 -0.49806
780.485 42.9156 0.435062
501.86 15.9565 0.295781
262.863 43.1206 0.123987
537.925 26.6351 -0.475796
644.793 19.0062 0.230297
48.872 15.2068 -0.458972
804.309 30.119 0.325372
527.65 4.83662 0.32167
18.1072 22.3172 0.312686
886.87 45.3578 -0.248782
541.798 2.47713 0.473864
86.2425 42.8621 0.101396
571.745 29.6504 0.329681
581.612 16.3551 -0.417939
375.101 21.4835 -0.195415
585.172 25.1392 -0.322563
383.211 32.6535 -0.385542
263.678 14.4308 -0.308864
474.939 34.8063 -0.0636315
754.522 6.55167 0.1675
211.047 6.32872 0.343159
60.4882 6.91593 0.0931131
74.4847 8.68937 -0.265177
772.915 8.37685 -0.448196
25.783 11.5111 -0.290993
675.294 44.3249 0.356061
755.075 22.8852 -0.34741
188.954 31.2877 0.283883
866.824 34.9953 0.122042
38.3058 27.5308 -0.113804
585.783 2.923 0.323186
155.385 7.18448 0.466304
654.103 33.2496 0.36713
552.714 25.628 -0.119815
190.853 0.915848 -0.26027
35.6795 2.40066 -0.293464
380.86 17.1683 0.266991
685.916 45.1583 -0.132526
505.951 32.9754 -0.176684
436.592 1.03419 0.186568
784.815 7.63029 -0.31772
28.7591 41.717 0.234883
280.415 29.8688 0.294713
808.842 7.84989 0.183189
747.741 44.5362 -0.349491
456.843 8.48153 -0.469034
626.663 3.509 -0.337413
844.399 30.1865 -0.378251
143.121 7.48662 -0.275623
546.253 24.7011 -0.133685
522.912 15.0729 -0.101242
321.978 16.4592 -0.334006
22.6931 13.1866 -0.227666
891.75 33.0326 0.310315
363.563 37.9941 -0.278498
752.148 20.5842 0.355932
771.679 13.0879 -0.231287
901.096 10.801 0.254105
509.685 33.94 0.164475
101.603 36.2114 -0.263534
765.909 33.6692 -0.218678
721.69 37.2051 0.0905298
919.424 41.7791 -0.10362
894.155 0.75026 0.510148
318.533 28.2879 -0.431458
688.635 6.3697 0.0762388
26.5449 5.2728 0.445132
145.369 37.1569 0.13726
563.134 14.0078 0.185401
882.713 25.1096 0.569154
213.906 27.4491 -0.223368
48.7349 33.9251 -0.263207
540.648 1.15882 0.105168
258.425 8.74755 -0.360142
846.223 40.1294 -0.25577
870.394 26.1319 -0.247112
395.748 20.2697 -0.264132
179.988 26.23 -0.43882
605.286 36.9299 0.398963
416.886 14.7654 -0.507386
454.051 28.6137 -0.0962364
414.814 4.4685 0.406181
603.268 10.7866 -0.087281
921.047 11.8043 -0.180976
88.6951 37.9938 0.387928
367.786 4.68624 -0.180698
618.875 9.41151 -0.325701
395.024 42.7532 -0.440226
28.5687 23.9363 0.476629
33.4053 5.73427 -0.332452
628.055 31.6943 0.396507
555.985 23.3621 0.139198
28.8961 35.96 -0.408127
102.53 28.7152 -0.224327
356.506 15.4911 -0.315978
664.844 18.5328 -0.1103
522.942 36.8899 0.295514
828.196 7.48118 0.438896
819.453 6.02341 0.203811
425.442 35.973 -0.095199
706.505 25.4079 -0.101803
261.515 16.0679 -0.477877
362.538 3.62393 0.468581
113.489 30.5746 -0.3215
127.726 23.3874 0.267921
600.224 37.478 0.0687566
336.08 18.5606 0.471934
798.654 34.1371 0.0956782
752.618 43.2334 -0.107226
529.439 19.9993 -0.38064
874.262 10.1247 -0.223608
472.289 22.5248 0.221969
304.832 23.6913 -0.309793
754.415 31.3291 0.29656
306.775 28.2369 0.395247
638.266 11.2013 0.175526
365.02 34.7125 0.185975
556.836 11.1402 0.447338
403.816 30.2995 0.0854148
474.784 16.0276 -0.105281
350.754 40.4572 0.433039
210.176 28.413 0.117493
878.452 49.6808 -0.155756
916.855 13.7681 0.220205
6.53821 11.9045 -0.429342
478.944 21.7192 -0.412172
41.9502 21.844 0.096106
414.507 30.6302 -0.490466
435.837 24.126 -0.268065
81.9064 11.6192 -0.470408
56.9573 32.5785 -0.432722
249.398 13.1634 0.413199
688.885 37.9311 0.382914
640.742 20.3871 -0.457501
82.4017 20.5276 -0.461324
784.091 45.513 0.418129
859.617 2.42061 0.445196
739.244 42.6038 0.455921
779.942 2.35985 0.367642
609.975 26.0013 -0.390899
653.513 44.0325 -0.435581
567.101 17.528 -0.398681
914.321 2.9592 -0.385613
246.933 24.1555 -0.113143
141.001 34.0923 -0.194147
272.982 6.554 0.366619
104.238 4.00657 0.242824
70.6412 9.83877 -0.194085
304.506 35.1643 -0.300066
18.6053 23.9603 -0.360847
616.416 19.1585 0.388
674.313 39.2943 0.185748
511.667 20.8977 -0.34268
905.328 41.9897 -0.354104
449.532 8.33629 0.102068
482.008 35.3749 -0.363388
594.928 3.4321 -0.184091
25.2021 23.2229 -0.376986
641.332 4.23213 -0.381708
605.472 4.31784 -0.285049
227.983 10.9751 -0.481034
470.539 16.0324 0.181342
343.961 6.16737 0.311315
429.014 18.5032 -0.349772
834.416 42.8084 0.10096
212.221 24.4692 -0.418892
885.713 6.74577 -0.384542
832.434 38.855 0.3104
423.836 10.0387 -0.16595
806.156 2.36581 0.369877
673.788 24.4825 -0.390263
837.053 19.5594 0.352502
477.171 41.5397 -0.270831
550.636 12.2427 0.371241
515.7 43.4511 -0.219878
493.541 8.55269 0.129971
742.687 39.8609 0.253936
740.217 36.014 -0.292079
212.661 37.3439 0.336798
898.977 11.2923 0.116465
656.032 44.4194 0.241629
12.4842 16.5727 0.165627
451.292 24.4182 0.328726
207.059 22.1286 -0.39861
103.386 36.8511 0.197695
880.299 23.0341 -0.442025
736.241 44.725 -0.229263
352.759 24.8501 0.360078
591.433 9.97319 0.317429
91.5659 42.1936 0.161693
274.24 25.443 0.475987
619.361 23.2226 0.363966
539.53 18.0434 0.406461
290.721 0.893738 -0.341943
615.3 39.0795 -0.350097
592.721 40.1755 -0.44097
535.008 31.9964 0.371337
553.774 0.774752 -0.478168
791.388 17.4927 0.376498
198.709 11.4954 -0.168198
555.904 34.207 -0.408309
628.714 39.7675 0.114864
80.1007 0.91101 -0.281915
278.617 4.57567 0.169594
915.913 15.5986 -0.181669
902.077 12.5161 0.437734
922.318 18.8181 0.509917
335.813 8.43119 -0.228396
843.519 22.3198 0.411605
451.692 40.0712 0.312037
497.88 0.810049 -0.398816
728.023 35.7224 0.40946
30.0993 29.5534 0.303818
365.804 40.1551 -0.453532
279.583 2.76102 0.300702
889.709 42.2953 -0.169273
803.578 46.6033 -0.222922
318.031 10.6944 0.174423
747.223 29.5533 0.0899124
620.511 2.68173 0.26795
603.14 6.35785 0.414708
107.839 16.9204 -0.523946
335.639 1.03522 -0.218945
380.569 2.26031 -0.364709
15.3061 7.70554 0.450043
4.7894 29.8587 0.243695
179.381 18.624 -0.356266
76.0198 40.6667 0.206276
73.9097 28.0681 -0.316628
470.032 14.3196 -0.392935
407.2 33.8423 -0.467724
864.704 35.7508 0.130789
21.7525 3.91563 0.283715
77.742 6.74095 0.154525
698.342 38.0246 0.130874
326.579 0.927136 0.319436
404.508 15.969 -0.093293
261.58 4.55022 -0.358309
733.732 21.1359 0.178603
501.263 8.26928 0.380061
846.372 20.2411 0.354174
705.802 28.8684 -0.288253
751.786 18.6489 -0.0928617
466.511 25.8111 0.481773
113.353 43.3803 -0.302456
603.934 40.7082 0.0665435
833.911 15.2263 0.172023
263.807 29.1598 0.239421
35.695 16.3898 0.156465
372.777 13.526 0.476324
119.778 39.248 -0.467004
296.835 41.1151 -0.187692
472.275 1.04309 0.204855
889.303 30.2257 -0.381666
772.343 0.78011 0.589276
368.391 2.98715 0.454807
332.498 26.0636 -0.14431
514.193 40.4728 -0.199714
90.0706 7.5289 -0.479439
219.826 43.6299 0.377515
873.915 29.8713 0.372875
550.245 37.8041 -0.0666142
222.164 39.6583 0.246299
178.668 40.9238 0.384771
923.944 35.7843 0.378404
919.014 11.8213 0.475755
677.694 3.58724 -0.468587
210.906 23.1864 0.091981
612.118 27.2141 0.10285
614.177 26.8176 0.263729
454.371 5.52936 -0.135731
535.257 0.931035 -0.279826
863.266 38.2004 0.470318
95.0013 29.5078 -0.212798
738.283 17.8382 0.44533
304.362 15.3293 -0.320103
11.135 2.31607 -0.339476
139.445 35.6009 -0.187388
74.2611 22.8329 -0.432193
791.768 35.5148 0.295235
895.214 48.6625 0.163017
206.258 27.1305 0.173509
911.626 12.9408 -0.325622
49.7582 35.6639 -0.246636
101.32 27.1787 0.157781
710.859 12.8093 0.444673
459.46 17.5376 -0.486899
578.205 16.2887 -0.103715
264.491 27.2938 -0.178791
696.275 4.49109 0.392946
923.619 10.5107 -0.39015
33.2656 30.7861 -0.26818
299.677 7.64486 0.197448
246.856 14.8405 -0.27966
1.1061 34.4459 0.147787
250.38 14.2354 -0.356106
235.547 10.9571 -0.132119
238.434 25.4977 0.277754
147.544 27.0926 0.136257
610.323 14.7429 0.322344
185.681 13.6788 0.341254
884.352 43.4132 -0.221141
193.24 3.68561 0.461235
52.6666 36.5664 -0.349578
840.677 49.981 -0.426797
312.145 30.7885 0.376273
761.024 23.5139 0.46463
897.793 32.1241 -0.46389
333.819 9.05463 0.101414
830.587 30.8161 -0.34366
365.011 2.64249 -0.341841
462.519 23.2945 0.370732
757.256 16.0706 0.437555
117.71 11.7632 0.408163
537.01 3.95992 -0.456689
850.636 18.2524 0.160679
97.8872 7.41505 0.192108
312.456 14.4262 0.196847
470.655 11.5256 -0.208042
912.624 2.28851 -0.403401
442.028 1.82546 -0.441824
196.951 37.5731 0.266228
836.349 10.8139 0.347788
142.823 35.215 -0.175899
292.165 31.0387 -0.383767
445.291 21.0211 0.205105
640.987 12.9726 -0.323869
430.31 9.53757 0.422443
507.665 27.2563 -0.402573
874.809 49.49 0.372707
52.7771 10.9079 -0.0963757
332.669 37.1921 -0.254249
421.918 25.5679 -0.355348
455.461 20.5648 0.266752
581.227 43.5301 0.35679
855.335 38.6972 -0.185957
746.742 35.3804 -0.354888
251.015 33.3687 0.382555
15.7058 30.0248 -0.152734
739.046 37.7122 -0.116364
567.804 40.6061 -0.43892
254.922 38.1583 0.0934036
769.441 31.8812 -0.113829
167.928 9.05838 0.205172
407.466 20.6852 0.254809
516.129 41.306 -0.0991141
460.495 18.9215 0.203334
870.784 49.3887 0.296931
473.721 3.26664 0.421055
55.4024 24.4908 -0.283447
523.379 30.9075 0.34038
483.544 41.7351 0.355541
885.909 36.9958 -0.223209
827.465 30.124 0.227856
603.522 18.184 -0.156004
877.721 38.9615 -0.423044
325.616 2.02113 -0.442031
420.863 27.3937 -0.447964
32.3898 37.8973 -0.29482
833.947 31.5094 0.132059
683.189 19.7264 -0.477472
515.331 0.787328 -0.472203
140.441 4.4264 -0.28438
475.082 39.159 -0.101509
13.7018 0.915806 0.300346
911.848 4.61046 -0.407982
412.102 38.1102 0.390684
[...]
POINT_DATA 13483
TENSORS Strain_matrix float
-0.0497028 0.0480794 -1.39429 
0.0679065 0.0210624 1.24237 
0.00100828 -6.36759e-05 0.0549902 

-0.104128 -0.163278 29.4407 
0.100133 0.390997 -36.9765 
-0.00340426 -0.0121317 0.739773 

-0.025417 0.00154377 0.0246897 
-0.00387458 0.0143514 -0.0779655 
-4.60121e-05 0.00132472 -0.0392752 

-0.459916 -0.251983 0.133252 
0.151724 0.250933 -0.0507377 
-0.052307 0.0211236 0.452277 

-0.0353085 0.00446416 -0.00407479 
-0.0288881 0.00546041 0.00409189 
0.0328779 -0.00832751 0.0964524 

-0.0246788 0.00384153 -1.32933 
0.00412641 0.0147312 -1.53701 
0.000442304 0.00034467 -0.0625807 

-0.0187709 0.0211603 -0.54577 
-0.00087159 -0.00266987 -0.0550041 
-0.000637639 -0.000238859 -0.0264114 

-0.0234086 0.128836 0.255787 
-0.0165481 0.0570683 0.192825 
-0.000583137 -0.00223401 -0.0282226 

-0.0301777 -0.0206062 0.0125617 
0.0223043 0.0124998 0.0185148 
0.00240843 0.0168436 0.0787079 

-0.0172004 0.0341019 -0.00307905 
-0.0380788 -0.00319078 -0.0203643 
-0.00170234 -0.000161577 0.026747 

-0.0229218 0.0279802 -0.0101524 
-0.0113812 0.0192624 0.028958 
0.000814456 -0.0016941 -0.0244007 

-0.0217009 0.00141381 0.00565436 
-0.0101631 0.00477693 -0.0238013 
0.000547637 0.000814095 0.0158925 

-0.0442137 0.096166 -0.206448 
-0.0182503 0.0424653 -0.0291748 
-0.00234594 0.0221119 0.0528669 

-0.0113632 -0.0714919 -0.0579069 
0.0536273 0.00140545 -0.258119 
0.00404608 -0.00114371 0.0341223 

-0.00966406 -0.00710568 0.473618 
0.00825191 0.00503334 -0.381201 
0.000497211 0.000108636 0.0115834 

0.0025664 0.0148356 0.432783 
-0.0209768 -0.00377175 0.0105536 
0.000133239 0.000311136 0.0101009 

-0.0229126 -0.0214886 -0.0103705 
-0.0159084 0.0196922 0.0812203 
0.00143389 -0.00273228 0.0188375 

-0.0261348 -0.0199257 0.00623089 
0.0147073 0.0151603 -0.0240868 
-0.00133738 -0.000131959 -0.0864538 

-0.0536512 0.0322328 -0.292208 
0.0295327 0.0350198 0.235883 
0.000714291 0.00040597 -0.00857435 

-0.0179583 0.00878409 0.019594 
0.00431133 0.00311645 -0.0713203 
-0.00262561 0.000148837 0.03736 

-0.0483884 0.138327 -0.168706 
-0.0785047 0.0396589 0.0402708 
0.00124035 -0.000181376 0.0195302 

0.0227852 0.0285434 -0.0790465 
-0.0460033 -0.0182144 0.0325735 
5.04991e-05 9.23301e-05 -0.000263892 

-0.152244 0.0911124 4.145 
0.0297263 0.158869 4.5724 
-0.00129662 -0.00133701 0.298783 

-0.0527238 0.0497041 -0.885599 
-0.00830409 0.0299439 -1.12139 
-0.00164865 0.00142592 -0.0255103 

-0.0212845 -0.0211122 -0.0127533 
0.00802453 0.01723 0.0273075 
0.0107522 0.0121707 0.0935003 

0.00960928 0.0199453 -0.0210342 
-0.0361818 -0.0093613 0.0219204 
0.0284319 0.00276917 0.106 

-0.0209058 0.00569741 -0.445945 
0.00575606 0.0207054 1.49193 
-0.000809477 -0.0018047 -0.0315127 

-0.0209 -0.0480142 0.297787 
-0.0264729 0.0243019 -0.153889 
-0.00530939 0.00127378 0.0440595 

-0.017306 0.00488224 0.586112 
0.00250879 0.0104873 -0.2958 
-0.00039422 0.00025526 -0.0346318 

-0.0613836 -0.0415608 -0.228872 
-0.107933 0.0725012 0.130202 
0.00218488 0.00185843 0.0330308 

-0.0198457 0.00368661 0.0746958 
-0.0130988 0.0116492 -0.0205968 
-0.000643264 0.00124248 0.0128615 

-0.0144069 0.0107409 -0.0163134 
-0.0374706 0.0184622 -0.183838 
-0.0135997 0.00707846 -0.0367009 

0.031896 -0.0658549 0.922155 
0.099077 0.0253025 -0.266682 
-0.0152883 0.0115865 -0.0768765 

-0.0531398 0.0168829 -0.302401 
-0.00196603 0.033083 -0.4137 
-0.00700981 -0.0087249 0.0541337 

-0.00864538 -0.0672427 -0.000809041 
-0.00055804 -0.0688614 -0.45843 
-0.0132927 -0.0178128 0.0666655 

-0.00100518 0.0268771 0.192779 
-0.0195998 0.0179233 -0.273282 
-5.53367e-05 -0.000421355 -0.00213003 

-0.0159898 0.00978044 -0.384677 
-0.00161538 0.00969324 -0.137391 
0.000432837 0.000548053 0.0121512 

-0.0120778 0.0185989 -0.0626918 
-0.0299858 0.00760466 -0.0622605 
-0.00151267 -0.00114023 -0.000258609 

-0.0599982 0.0094685 0.173879 
0.0459863 0.0212546 0.0412485 
-0.00289131 -0.0014884 0.0152748 

-0.033856 0.0171048 -0.057418 
-0.0398366 0.0467466 -0.0828297 
0.000383448 0.000303457 0.0067133 

-0.0190759 -0.00784794 -0.0731849 
-0.00915472 0.0272294 -0.109353 
-0.00334608 7.87013e-05 0.0168204 

-0.0550005 -0.0125356 0.22437 
0.0219343 0.0660985 -0.160483 
-0.000134755 -0.000675047 -0.0184256 

-0.0598652 0.0311337 -0.103074 
-0.0247679 0.0151332 0.0438159 
0.0247738 0.00288455 0.119229 

-0.0268397 0.00817411 -0.0330396 
-0.00978393 0.0134441 -0.104524 
0.00248249 0.0023509 0.0397357 

-0.0169153 0.017812 -0.0303409 
-0.0168861 -0.0082609 0.0180684 
0.0178609 0.00578853 0.0583723 

-0.0200814 -0.00550374 0.0269774 
0.000632343 0.00499517 -0.0354905 
0.000813378 -0.00048089 -0.00145231 

-0.129897 0.0415341 0.149273 
0.0232928 0.161864 0.0557276 
0.0183824 0.0346094 0.266094 

-0.0328556 -0.0122622 0.032559 
0.00102845 0.0185973 0.0231033 
0.00130519 0.000499012 -0.00542576 

-0.00962334 0.0477539 0.0799385 
-0.105127 -0.0225845 0.235636 
0.00332444 0.00694478 0.0154753 

-0.0327543 -0.0696683 -0.752898 
-0.0360169 0.0584201 -0.226963 
0.00229725 -0.000184753 0.00195905 

0.00126414 0.00198865 -0.108991 
-0.0227019 0.0057936 -0.0383333 
0.0013733 0.000376432 -0.000438336 

-0.0648433 0.0140154 -0.350567 
-0.0639998 -0.00771368 0.0762733 
-0.000543035 0.000756902 0.0172578 

-0.0125006 0.00509233 0.121635 
0.0146064 0.0100915 -0.123339 
0.000761584 -0.00023862 -0.00110392 

-0.0265621 0.00351721 0.0406717 
-0.00821506 0.00322797 0.0558478 
0.000180397 0.000428856 0.0281859 

-0.0216059 0.0140357 -0.111035 
0.0110165 0.00646503 -0.0720284 
0.0010631 -0.00102997 0.0457573 

-0.0140223 0.0365306 0.168228 
-0.0328121 0.0347954 0.478948 
0.00074807 0.00386406 0.0342543 

-0.0162672 -0.0145646 0.0435868 
0.0230082 0.0219587 -0.0242255 
1.40075e-05 0.000176159 0.0112791 

-0.0238014 0.0122216 0.116499 
0.00305835 0.0128042 -0.0361284 
0.000263872 -0.000218686 0.00656973 

-0.0135264 -0.000634091 -0.0289108 
-0.00495587 0.00558801 -0.0153278 
-0.000282839 0.00204771 0.0189598 

-0.00469134 -0.0254547 -0.00242986 
0.016424 0.0034742 -0.0188681 
0.000872117 0.000578544 0.0143823 

-0.140578 -0.293521 0.848456 
0.305448 0.449226 -0.937446 
-0.0113315 0.0112812 0.0459814 

-0.0142593 0.0126958 -0.0344235 
-0.000603382 0.0114942 -0.0137429 
0.00098029 0.000405818 -0.0108402 

-0.0207121 -0.0332669 -0.133376 
0.00283209 -0.00628049 -0.0156074 
-0.00128641 0.0313833 0.0535246 

-0.0102316 0.000998439 -0.0237884 
-0.0178715 0.00440016 -0.0579854 
0.00490546 0.00305074 0.030311 

-0.0594334 0.0110528 0.280761 
-0.0316628 0.0565597 0.107437 
0.00394008 0.00691268 0.0269693 

-0.0160719 0.0132645 -0.00785995 
-0.00100167 0.017329 0.00964975 
0.00139328 0.000345869 0.00999117 

-0.0144196 0.0629872 -0.00334635 
-0.03684 -0.0030269 0.0424205 
-0.00413335 0.00130656 0.0309605 

-0.0137067 -0.0141373 -0.0627512 
-0.00416926 -0.00610136 0.816932 
0.00629788 -0.0303032 -0.0346422 

-0.0443438 -0.00408714 0.0593839 
-0.00410071 0.0279045 -0.15636 
0.00100822 0.00137152 0.0567328 

-0.0393782 -0.000415146 -0.0110251 
-0.00828079 0.0028668 0.014237 
-0.00221948 -0.00197417 0.0641452 

-0.0188494 0.0931982 -0.00451646 
-0.179349 0.0587709 -0.0584257 
-0.00056185 0.00150625 -0.00436716 

-0.0109906 0.00572621 0.0235402 
-0.00138928 0.00728619 -0.00552209 
-0.000794651 -0.000270512 0.000214466 

0.00151633 -0.0126122 -0.0885299 
-0.0175593 0.00514761 -0.0142073 
0.00022516 0.000584663 -0.000339192 

-0.0177834 0.0418439 -0.088988 
-0.0572376 0.0149491 0.0515748 
0.000711611 -0.00253545 -0.0229446 

-0.0327448 0.0315575 -0.245331 
-0.0122011 0.0310559 0.241954 
-1.40182e-05 -0.000593236 0.0136535 

-0.0189812 -0.0210537 0.0141774 
0.0193712 0.0156938 -0.010544 
-0.000780685 0.000463803 0.00167199 

-0.172541 0.069311 0.228327 
0.0782672 0.151493 0.00687872 
-0.00232129 0.00130034 0.0299751 

-0.0599177 -0.0367477 -0.238346 
0.0207892 -0.0191325 0.645875 
0.000560515 0.000636915 0.00363559 

0.0887931 -0.115888 0.166366 
-0.093527 -0.0864991 -0.956781 
0.000123831 -0.00231599 0.0501965 

-0.156308 -0.174423 -0.134965 
0.0194997 0.0702562 -0.157178 
0.000302258 0.00939198 0.0633262 

-0.0171731 0.141674 0.360388 
-0.124949 -0.00921924 -0.114818 
-0.00109928 0.000654346 0.0891451 

-0.0175114 0.0107829 0.122515 
-0.0223674 -0.000150092 -0.012537 
-6.36923e-05 -0.000810898 0.00467546 

-0.0076799 -0.0153672 0.0825751 
-0.00683409 0.0203552 0.0958985 
0.00531513 0.00600427 0.0263999 

-0.0420845 -0.0123314 -0.0385309 
0.0147498 0.110543 0.357935 
-0.000336719 -0.000168306 0.0198432 

-0.132361 0.124794 -0.684025 
0.0800411 0.0281429 0.613857 
-0.0430302 -0.0605339 0.110663 

-0.226307 -0.580437 -1.54402 
0.142302 0.28244 -0.525421 
-0.00151774 -0.000153101 0.0664864 

-0.134068 1.88036 -0.649446 
-0.0120734 0.218274 -0.360946 
0.00199279 0.0036423 0.209018 

-0.0580641 -0.0985837 0.225339 
0.00848784 0.0195682 -0.282164 
-0.00175205 -0.00287463 -0.0300152 

-0.0398203 0.00728634 -0.0798951 
-0.00626427 0.0270427 -0.0260958 
-0.0312017 0.0391078 0.235042 

-0.0252121 0.0107138 4.08375e-05 
0.00324631 0.0122394 0.00194808 
0.00121667 0.00350896 0.0276653 

0.00696204 0.0705171 0.0175205 
-0.0184102 -0.00642757 0.0563641 
-0.000950625 -0.0013842 0.0011728 

-0.0120886 0.00690971 -0.0178032 
-0.00495585 0.00243015 0.00729633 
-0.00084035 0.00100077 0.0299539 

-0.109401 -0.0531021 -12.9764 
0.0309991 0.155699 11.6207 
-0.00140658 -7.31905e-05 1.01609 

0.0297088 0.0220825 0.363107 
0.0988211 -0.0104622 -0.240875 
-0.000575287 0.000791707 0.00997118 

-0.0512115 -0.000761281 -0.448917 
0.0158335 0.0299111 0.344757 
0.000297917 0.000398313 -0.0103944 

-0.0401656 0.0141636 -0.0238209 
0.0034644 0.0282561 -5.47886e-05 
-0.00130753 -0.0141296 0.059704 

-0.0189251 0.000412038 -0.0071017 
0.00248144 -0.000265909 -0.00952032 
0.00436469 0.00322035 0.0347851 

0.0183246 0.0715025 0.259899 
0.149522 0.00266877 0.695159 
-0.0165455 -0.00715987 0.0742712 

-0.000885297 0.0305171 -0.0179445 
0.0215954 0.0751033 -0.116892 
0.00564267 -0.000987223 0.136272 

-0.0765046 0.0232771 -0.241422 
-0.0143832 0.0377782 0.0211989 
0.00196359 -3.53696e-05 0.00522696 

-0.0442127 0.00191391 0.28157 
-0.00576544 0.0259675 -0.772643 
5.62864e-05 9.73197e-05 -0.0237665 

0.0371746 -0.0294431 -0.311735 
0.0209822 -0.059777 0.779719 
-0.00129353 7.02104e-05 -0.0104694 

-0.0583539 -0.0147977 -0.660002 
-0.0169715 0.0155234 -1.20779 
-0.000545963 -0.000190626 0.00593911 

-0.0162318 0.0308058 0.0757733 
-0.000348858 -0.0156134 -0.00345122 
0.00134797 2.57776e-05 0.0170576 

-0.0300598 -0.0105918 -0.193769 
-0.0125142 0.0195546 -0.319972 
0.0057532 8.29742e-05 0.0736851 

-0.0157138 0.0049226 0.0354126 
0.00107052 0.0230194 0.0189991 
-0.00215239 0.00029064 0.000792337 

-0.257407 -0.4679 -0.315144 
-0.0086174 0.186117 0.631088 
0.000938014 0.033237 0.0836916 

-0.076441 -0.0020666 0.376703 
-0.0927846 0.026384 0.262361 
0.000245345 0.00126773 0.0387939 

-0.0312324 0.0186229 0.0409863 
0.00293678 5.30531e-05 -0.0276851 
0.00180419 0.00202112 0.0402339 

-0.0247915 0.0228601 0.017114 
-0.00799478 0.00583369 0.00641807 
0.00130347 0.00116577 -0.0200616 

-0.0165516 -0.000170068 0.103769 
0.0109259 0.00833712 0.289229 
-0.000767453 -0.00110882 0.0159064 

-0.0298531 0.00576036 0.972814 
0.00288397 0.0123233 1.73621 
0.00041765 0.000481358 0.105874 

-0.014445 0.00770454 0.0136611 
-0.00895751 0.00479602 0.0182253 
0.00203818 -5.32092e-05 0.0257646 

-0.0407726 -0.0528979 -0.334615 
0.0860608 0.0368236 -0.302778 
-0.00520175 -0.00133614 -0.00261036 

-0.0398807 0.0521642 -0.0459226 
-0.0286451 0.0722464 -0.306755 
-0.00071595 0.000779693 0.00069797 

-0.0191918 0.00390011 -0.236828 
0.0156438 0.00154862 0.0708026 
0.000317645 0.00103472 0.0113898 

0.0673222 -0.0570214 -0.165036 
-0.0734628 0.00955393 0.14017 
-0.00189201 0.000819443 0.0192208 

-0.0111707 0.0155123 -0.157638 
-0.0310222 0.00618655 0.101 
-0.00148183 -0.00202593 -0.00770004 

-0.0627691 0.0238849 0.201915 
-0.00313329 0.0684319 -0.125294 
0.0017867 -0.00169842 -0.0201283 

0.00152775 -0.00478068 -0.0825081 
-0.0175229 0.00320824 0.134409 
0.0005984 0.00016713 -0.00874126 

-0.0997974 0.0596048 0.153311 
-0.0108756 0.00777162 0.165598 
-0.00135175 -0.00242983 0.130833 

-0.0758922 0.145426 -0.0375326 
-0.0221642 0.027092 -0.278483 
-0.010122 -0.00755591 0.250941 

-0.0575288 -0.00353553 0.131268 
-0.0149972 0.0390914 -0.21039 
0.000424526 0.0012493 -0.00106543 

-0.0830483 -0.13229 -0.0038616 
-0.0957387 0.00594909 0.180405 
-0.00190328 -0.00463161 -0.00545828 

-0.0185071 -0.00129639 -0.397053 
0.0167574 0.00774906 -0.448551 
0.000116097 -8.08609e-05 0.0611565 

-0.0297506 0.0192041 -0.16704 
-0.00587941 0.0189777 -0.0336074 
0.000205192 -0.000191054 -0.0289211 

-0.162183 -0.230424 -0.368203 
-0.0960702 0.157159 0.155411 
-0.00111041 -0.00193767 -0.00587188 

-0.0160891 0.000881271 -0.17792 
0.000144196 0.0110272 0.0462452 
-0.000124291 8.23902e-05 0.00251388 

0.0257521 -0.0335003 0.225645 
-0.0441606 -0.030942 0.0805209 
0.000466975 2.36089e-05 0.00754328 

-0.0350253 -0.0156916 -4.7648 
-0.0231207 -0.0112693 -2.29245 
-0.000190088 -0.00224738 -0.219623 

-0.0958141 -0.084668 0.059295 
0.0330768 0.0746245 0.0480193 
-0.0181827 0.00042338 0.137003 

-0.0246907 0.0548357 -0.0424054 
0.00841008 0.0363514 -0.0141664 
0.00261845 0.00200762 -0.00602571 

-0.0179074 -0.0317623 -0.190108 
0.00520131 0.0293499 -0.00307448 
0.00108902 0.00138588 0.0548658 

-0.190847 0.247954 0.135232 
-0.00932155 0.136126 0.390343 
-0.0085368 0.0394463 0.433615 

-0.0207668 0.0316648 0.0478284 
-0.0445648 0.0226151 -0.0272426 
0.00162296 -0.00250037 -0.00105 

-0.0434149 -0.0284631 -0.193119 
0.0854534 0.0512472 -0.207759 
9.30452e-05 -0.00176156 0.00313757 

-0.0781028 0.0036637 -0.150667 
0.0226775 0.0525696 -0.441258 
0.000376695 -0.000709634 -0.000838376 

-0.023712 0.00483267 0.0410751 
0.01579 0.00787882 -0.208154 
0.000693689 -0.00056306 -0.00620544 

0.00310916 -0.02569 0.0753009 
-0.062489 0.00755661 0.13214 
-0.00314774 0.00132354 0.0288928 

-0.0234743 -0.043008 -0.151579 
-0.032851 0.0314678 -0.00223301 
0.00142054 -0.00062164 -0.000932822 

-0.0287956 0.00824852 0.00740487 
0.0111628 0.0165397 0.244748 
-4.98359e-05 0.000618812 -0.0224417 

-0.0186781 -0.0378516 -0.0128983 
0.0393806 0.0113032 -0.0366332 
-0.0019347 5.78152e-05 0.00933526 

-0.014887 0.00778921 0.0140976 
-0.00786791 0.0043979 0.020806 
-0.000623731 -0.000379414 0.00755177 

0.00476568 -0.0414839 0.807485 
0.0282008 -0.0183619 0.679909 
0.00827502 0.00457837 -0.132689 

-0.00856743 0.0626773 -0.23793 
-0.0333628 0.00661199 0.182036 
-0.000302021 -0.000805419 0.00122899 

-0.457747 -0.272543 -0.559068 
-0.374868 0.592452 0.344096 
0.0725506 -0.0308491 0.549771 

-0.18539 0.120693 -0.297422 
-0.22335 0.0946011 0.0266021 
-0.0295679 -0.0120328 0.210683 

-0.0815137 0.0152195 0.220953 
-0.0733006 0.070385 5.61976e-05 
-0.00107807 0.00219784 -0.0168062 

-0.0246043 -0.00513939 -0.0037328 
0.0124105 0.0193001 -0.0650206 
2.05413e-05 0.00128046 0.0113161 

-0.0322242 -0.00873833 -0.0218669 
-0.0362739 0.00483358 -0.00721385 
0.00124317 0.000159842 0.0117931 

-0.035756 0.0327092 1.70229 
-0.0121416 0.00725385 4.36056 
0.0010829 0.000380696 0.0971476 

-0.0354346 -0.0259721 -0.203355 
-0.035514 0.00619651 -0.109138 
-0.0011992 0.000114736 0.0400543 

-0.0358953 -1.13003e-05 0.134105 
0.0265436 0.0136921 -0.0674519 
-0.00135073 0.000249432 -0.019698 

-0.0199012 -0.0140929 0.214828 
0.00379366 0.0165803 -0.238278 
-0.000212624 -0.00018232 -0.0149431 

-0.0234011 0.00485995 0.531876 
-0.0120189 0.0136801 -0.41764 
-0.00183595 1.76817e-05 0.046799 

-0.100877 -0.173793 0.538523 
0.150384 0.191448 -2.12387 
0.00623421 0.0148259 -0.0864109 

-0.126206 0.0556304 1.0819 
0.00878717 0.136718 0.199738 
-0.00294451 -0.008687 -0.00545 

-0.00977279 0.00233863 -1.74352 
0.00474845 0.00465561 0.679157 
0.00322408 0.00133412 0.0168249 

-0.0726245 -0.0963027 -1.14271 
-0.00665952 0.0913738 0.537821 
-0.00508118 0.0118096 -0.799408 

-0.0704293 -0.00428741 -0.152415 
0.012604 -0.00568751 -0.106989 
0.00167542 0.00765091 0.0892827 

-0.0224075 0.0361049 0.567897 
-0.0215435 0.00677397 -0.915058 
-0.000184108 0.000983681 -0.0210195 

-0.0440004 -0.00229628 0.110783 
-0.00772196 0.0187201 0.0442955 
0.0127865 0.0137774 0.105243 

-0.0365181 -0.0610698 -0.00882767 
0.0129095 0.0644662 -0.618044 
0.000455626 0.000471065 0.0206696 

-0.0117167 -0.0159696 0.773018 
-0.0353237 0.279441 -1.73553 
0.0029905 0.00769884 0.0103829 

-0.0684134 0.0218853 -0.134912 
0.00112102 0.0379817 -0.436687 
-0.00740354 0.0136109 0.094016 

-0.254741 -0.052625 0.175226 
0.117155 0.00149311 -0.0130676 
-0.0175635 0.00676889 0.286611 

-0.0141311 0.034497 -0.0215407 
-0.0231682 0.0019092 0.0520793 
-0.000115186 -0.00045687 0.0104731 

-0.00153344 -0.0268641 -0.0432262 
-0.00144855 0.00385367 0.00416376 
-0.000554477 0.000131464 0.000334845 

-0.0167063 -0.00245894 0.0783756 
0.00275778 0.00838346 -0.0522366 
0.00151775 -0.00585624 0.187834 

-0.0323632 0.00535657 -0.00898175 
0.0107759 0.00944106 -0.0909462 
0.0170391 0.0230975 0.0932927 

-0.0139869 -0.00780991 0.0209938 
0.00225583 -0.00324366 0.0163508 
-3.97419e-05 -0.000362054 0.0189233 

-0.00389347 -0.0389003 -0.0243901 
0.0444327 0.00302682 0.0840524 
0.000519246 -0.000124444 -0.0079271 

-0.00451606 -0.0203456 -0.0367364 
-0.0442264 0.016508 0.10211 
-0.0306486 -0.00643869 0.0972731 

-0.0261735 -0.0137207 -0.830428 
0.052438 0.0217803 0.191641 
-0.00189339 -0.000484382 0.0314259 

-0.0693318 0.117992 0.467194 
-0.044123 0.0718863 0.347922 
-0.000328354 -0.00135611 -0.00284792 

-0.0163109 0.00508472 -0.0328295 
-0.00653575 0.00522361 0.034086 
6.44301e-05 0.000116072 0.00681437 

-0.357547 0.146719 0.630892 
-0.257752 0.402751 0.697019 
-0.000472018 0.000776791 -0.000988443 

-0.0187821 -0.003048 0.0262329 
-0.0209829 0.00946982 -0.0134391 
0.0068512 0.00775255 0.0206634 

-0.0724466 0.0554739 0.202424 
-0.00789725 0.077956 -0.317934 
0.000790687 -0.000318999 0.012755 

-0.0360018 0.0137198 -0.0271031 
0.00137232 0.00996837 -0.0029486 
0.00117293 0.00182415 0.0239137 

-0.00903814 -0.00574018 -0.0865164 
0.0132811 -0.0107668 -0.0271013 
-0.000976129 -0.000352991 0.0046391 

-0.0189642 0.0287558 0.188705 
-0.050313 0.00406946 0.00828325 
-0.00117416 0.00267091 0.000607743 

-0.0164049 -0.00609209 0.012998 
-0.0043395 0.00534401 0.000632247 
-0.00158608 -0.000527894 0.0225783 

-0.0140096 -0.00122728 0.314751 
0.00446593 0.00977075 0.183562 
0.00174047 -7.35174e-05 0.012518 

-0.037526 0.0176963 -0.00977245 
0.00218329 0.00385575 -0.0105093 
-0.000914163 0.00042884 0.0100615 

-0.0176001 -0.0060515 -0.00152997 
0.000933929 0.00389526 0.011152 
0.00111999 -0.00159296 0.00820091 

-0.00709201 -0.0383332 0.0182647 
0.0375104 0.0123111 0.36579 
0.000734595 6.93868e-05 0.00776454 

-0.0626635 -0.160962 -0.595772 
0.19845 0.0948989 -0.160961 
0.00142693 0.0412616 0.106389 

0.0458269 0.030359 0.0550703 
0.0349211 -0.014677 -0.0434959 
0.000230939 0.000222304 0.0185074 

-0.0691184 0.0220396 0.28379 
0.00410485 0.0181537 0.0398474 
0.00295257 0.00278502 0.140842 

0.0339644 0.140864 -0.415712 
0.0015881 -0.0377561 -0.187869 
-0.00755415 0.0127658 0.0640969 

-0.0229023 -0.00582081 0.238527 
0.065427 0.0137987 0.124988 
0.0048272 -0.0157847 -0.0264541 

-0.153112 -0.217146 -0.247795 
0.144804 0.140435 0.109818 
0.00357636 -0.0430907 0.105742 

-0.0205778 -0.00472855 -0.0939434 
-0.0344872 0.0583705 0.606763 
-0.000475024 -0.00117165 0.0407399 

-0.0778023 0.224965 -0.0789132 
-0.0576864 0.0932944 0.333642 
-0.0381818 0.00587635 -0.0249609 

-0.029758 0.0402084 0.341567 
0.0357867 0.0269072 -0.160229 
0.0100321 -0.0513312 0.383989 

-0.0403959 0.0308497 0.439808 
-0.0466983 0.0294027 -0.167341 
-0.000580404 0.00104829 -0.0218271 

-0.0122957 -0.0287081 0.490103 
0.0362963 -0.00662234 0.599256 
-0.0109039 0.0155645 -0.0272553 

-0.0334266 -0.00467167 -0.0624818 
-0.00869371 0.017756 0.014208 
0.00908749 0.0115184 -0.0395884 

0.0353367 -0.0120629 -0.489393 
-0.1153 0.00762735 0.753987 