# vtk DataFile Version 3.0
Output file generated by Yade's KinematicLocalisationAnalyser
ASCII
DATASET UNSTRUCTURED_GRID

POINTS 13483 float
492.082 50.192 -0.474266
605.055 83.1515 -0.459937
112.546 6.17663 0.515255
629.794 23.9997 -0.235337
432.396 9.50136 0.366747
287.519 41.9571 -0.458233
144.344 7.32624 -0.477969
486.307 10.9946 -0.116031
428.403 29.925 0.152512
574.797 24.1705 0.519257
194.227 8.91615 0.138598
236.844 6.66176 0.269251
527.634 56.3041 0.134444
517.192 35.3241 0.0969729
126.997 19.7021 -0.472514
203.709 38.6702 0.402603
201.101 13.1811 -0.292597
264.732 11.8619 0.425882
308.464 40.3145 0.43494
449.926 9.86389 0.421541
364.565 47.6847 0.0985785
473.496 67.7425 0.288522
630.187 60.2139 -0.428499
553.471 73.9059 0.436888
401.795 25.8944 0.323236
221.296 46.6122 -0.13684
422.725 35.8627 -0.476024
490.653 27.128 0.257347
42.995 18.027 -0.613352
571.616 58.6724 0.341438
418.276 5.85885 0.458322
15.2442 24.8124 0.297436
612.962 80.2989 -0.240028
429.989 2.42381 0.496504
74.6984 48.5811 0.103261
442.283 39.11 0.365774
454.351 20.3805 -0.535022
311.453 27.1348 -0.200001
455.483 31.9962 0.317638
314.697 45.2766 -0.389768
222.925 15.0572 -0.309447
380.647 46.0018 -0.0741888
545.486 9.80327 0.205675
177.078 6.22054 0.354983
50.9803 7.35984 -0.0975624
62.7601 8.88341 -0.229725
556.667 10.2291 -0.588765
22.3246 12.2466 -0.288536
489.526 72.8493 0.359783
544.88 39.2926 0.340784
161.237 37.4184 0.279583
599 56.348 0.123188
32.2853 30.1003 -0.119116
457.264 4.69136 0.49887
132.265 8.5904 0.561501
481.225 56.8324 0.362871
432.423 34.0184 0.173797
162.111 1.01856 -0.329747
30.5536 2.41774 -0.315957
315.44 22.3293 0.277735
496.801 70.5261 -0.141271
400.677 47.32 0.176253
354.132 1.02921 0.205148
563.932 9.12824 -0.464251
24.469 46.3797 0.237608
236.052 35.4348 0.29251
576.998 18.0958 -0.248221
539.334 78.8989 0.331054
371.78 9.01852 -0.680901
487.378 4.12948 -0.675028
592.133 45.9556 -0.40158
123.01 8.03031 -0.366332
428.565 35.1063 -0.14773
414.784 18.4706 -0.141315
270.283 20.7128 -0.430895
19.4733 13.8767 -0.242705
614.208 60.6526 0.324926
303.021 48.2266 -0.277623
546.138 33.5914 0.371539
557.235 21.7158 -0.216433
628.735 15.1839 0.250033
402.821 47.2636 0.167604
88.8374 42.1505 -0.260553
550.487 61.6652 -0.226357
523.869 68.232 0.0955261
633.794 67.5706 -0.097929
626.917 0.724949 0.651774
267.458 30.4257 -0.523252
520.96 16.0048 0.167471
23.0809 5.84479 0.525022
123.898 43.6602 -0.138003
442.878 17.6889 0.241806
612.675 45.3176 0.492755
182.275 30.6291 -0.236919
41.4121 38.7882 -0.267276
429.085 0.97295 0.388337
219.196 9.03182 -0.452026
588.3 73.5964 0.255764
606.78 40.5273 -0.255334
325.184 29.9748 0.242134
153.51 30.864 -0.438505
450.79 60.2134 0.425397
340.045 19.9928 -0.552785
365.641 35.3538 -0.0960428
338.339 8.1728 0.485368
470.233 12.4638 0.155792
635.041 30.1959 -0.174823
76.9697 43.8236 0.390516
305.769 6.12032 -0.252851
480.878 9.11872 -0.45033
327.831 55.9906 -0.457652
23.2768 26.0867 0.527002
29.0662 6.00932 0.305727
472.029 41.6628 0.44902
433.152 29.9644 0.167991
23.464 39.5513 -0.411556
87.9435 34.2669 0.217917
296.322 20.1725 -0.310353
498.196 29.8116 0.130914
412.987 54.642 0.308545
583.389 7.54335 0.573337
578.325 10.4468 0.273622
350.295 46.1665 -0.0917196
517.54 51.7617 -0.0975278
221.989 19.0048 -0.522801
302.519 3.83463 0.571949
96.4843 34.1022 -0.301946
108.172 25.3569 0.280228
452.643 55.4982 -0.0699924
281.734 21.5914 0.539408
568.226 64.0899 -0.10217
544.294 76.9182 0.104277
417.067 25.1785 -0.452541
616.149 16.2577 -0.296163
377.499 30.98 0.223949
256.978 30.6913 -0.306054
541.672 54.4243 0.353423
258.556 35.3736 0.395069
494.103 13.6661 0.318629
303.666 46.1957 0.187395
437.544 15.511 0.491708
333.21 42.8036 0.0863612
379.731 23.2135 -0.0966049
291.708 51.5103 -0.434465
178.588 32.8192 -0.123309
608.504 86.4471 -0.142157
631.584 34.2538 0.270967
6.71449 12.8945 -0.416616
383.78 29.2667 -0.431187
36.2443 24.6004 0.073877
340.59 40.2579 -0.474928
356.122 27.7049 -0.277628
69.5587 12.288 -0.455981
49.627 36.5626 -0.437771
211.165 14.0562 0.453044
503.495 66.6583 0.390465
488.798 30.277 -0.613803
71.025 21.7097 -0.490429
557.788 72.1805 -0.0435004
605.112 2.39 0.557616
530.696 78.2115 0.470236
561.383 1.87482 0.614963
466.255 37.4104 -0.426429
472.787 69.4579 0.441432
443.467 22.7094 -0.447601
637.434 12.5354 -0.225863
208.216 28.5678 -0.11551
119.051 39.7436 -0.194597
231.393 7.37488 0.479326
89.092 4.49208 0.293032
59.5459 10.9777 0.22682
257.357 42.2931 -0.301675
16.1627 26.3236 -0.36054
475.294 25.9162 0.460705
483.977 69.5341 0.182125
406.663 33.7802 -0.403561
623.376 72.6696 -0.362693
365.354 8.81743 -0.128524
385.517 50.5363 -0.370205
463.969 3.31023 -0.256962
21.7625 23.1215 -0.452024
497.801 5.43802 0.556781
471.263 4.118 0.429775
192.351 11.3824 -0.573494
379.841 17.0645 0.20413
287.318 7.29328 0.405471
349.042 23.8689 -0.418466
584.072 77.9338 0.103496
181.312 27.6101 -0.475016
620.756 8.38864 -0.461928
583.439 69.5964 0.32353
345.551 11.9665 0.215379
573.865 8.29816 0.696621
497.236 45.9217 -0.418677
590.803 25.9736 0.409175
377.272 56.7691 -0.280545
431.68 17.2767 0.469048
404.337 58.2597 0.222625
397.13 15.7886 0.134932
535.853 73.8804 0.255586
535.423 68.2771 0.318602
178.261 43.9063 0.330331
627.95 17.0912 0.123411
471.703 70.97 -0.252959
10.4018 18.8645 0.193396
364.716 28.4598 0.350547
176.033 26.1667 -0.405828
90.4084 43.3575 0.197272
612.763 41.0785 -0.46158
527.863 80.9474 -0.219325
294.692 31.5711 0.358385
460.779 10.6749 0.496188
79.929 49.177 0.168022
231.5 28.3839 0.470362
474.645 30.449 0.429528
424.152 26.9239 0.411673
245.423 0.888155 -0.429738
458.105 59.1891 -0.353058
446.473 61.898 -0.430133
416.844 57.0424 0.380758
437.302 3.3191 -0.693106
566.136 33.8018 0.44134
166.736 15.2956 -0.175335
434.44 45.2792 -0.454039
461.207 62.5078 -0.10814
68.5652 0.89664 -0.300852
235.716 4.9673 -0.188834
631.595 36.2766 -0.174682
628.351 20.9829 -0.359558
636.718 39.5633 0.619362
279.729 8.85937 -0.349139
593.264 32.4991 0.470411
368.334 61.5329 0.314817
398.196 0.852056 0.526911
529.095 65.2252 0.443521
25.2237 33.2824 0.31255
305.222 57.2562 -0.588154
236.812 3.39479 0.435572
614.061 72.7629 -0.181517
565.319 83.8656 -0.224777
266.949 13.1504 0.172566
539.779 57.6931 -0.079875
482.854 2.5168 0.281517
469.448 7.25321 0.613403
91.4651 19.2134 -0.500316
280.765 0.999577 -0.282845
314.169 3.07482 0.457299
13.2447 7.28181 0.637832
4.62986 33.9837 0.242307
151.531 20.4269 -0.349504
65.3635 46.7226 -0.21034
62.9718 30.9391 -0.304709
380.619 15.6564 -0.522031
336.504 46.4769 -0.459583
596.859 57.0222 -0.129812
18.85 4.19977 -0.335216
66.0289 7.23353 0.133682
507.616 66.5664 -0.135979
272.37 0.87365 0.419648
330.758 20.7607 -0.107317
221.421 4.82554 -0.371592
535.241 42.3985 0.178013
402.517 11.8709 0.434251
593.488 28.0451 0.446513
514.193 54.3125 -0.294876
547.722 30.4557 0.0971769
374.505 33.0586 0.478328
98.6217 49.708 -0.311848
446.407 66.7557 0.0668136
588.65 20.3504 0.200939
222.074 33.5726 0.244627
30.2746 18.7026 0.178116
309.694 16.4631 0.484832
104.498 45.053 -0.179549
252.354 50.0297 -0.205612
385.288 1.06269 -0.222136
611.931 56.8051 -0.385157
554.726 2.12648 0.735256
306.554 4.49078 0.477966
278.539 31.6189 0.149839
405.507 55.9096 -0.201194
76.9572 8.11102 0.480178
185.925 50.3647 0.377515
609.373 49.3658 0.362652
430.079 53.336 0.0649937
187.293 46.3193 0.263348
151.12 46.6349 -0.41002
638.418 59.9232 0.392137
633.559 29.2943 0.503672
521.231 6.35691 -0.564234
179.541 27.7265 0.0988866
467.848 39.6299 -0.111244
469.183 38.069 0.285854
369.742 5.85143 -0.146897
425.145 0.944883 -0.34345
596.197 60.5989 0.499302
79.7402 33.9397 -0.21181
540.019 34.2216 0.43795
253.935 17.2402 -0.370072
9.08308 2.31655 -0.405368
120.468 41.8166 -0.187118
64.0714 25.4891 -0.484047
564.358 60.1725 0.335121
618.059 86.8205 -0.16057
174.697 31.3404 0.167748
626.985 30.1369 0.370522
42.8487 40.6239 -0.240957
86.6024 32.7021 0.162104
523.695 35.1984 0.428487
374.204 18.2086 -0.542864
450.588 21.0781 -0.118918
222.147 31.6173 -0.190301
520.264 20.7229 0.519369
636.682 29.0068 -0.385935
28.5405 34.8365 -0.267638
251.86 8.23466 0.21843
208.883 16.0169 -0.254128
1.10359 38.6088 0.145146
212.209 14.8773 -0.420141
198.672 11.3822 -0.127515
201.01 28.1745 0.268077
124.474 31.5597 0.129883
473.534 16.0321 0.460683
156.538 15.603 0.391006
609.768 79.5308 0.213974
163.118 4.23449 0.496306
45.4979 41.3842 -0.354957
590.192 87.2427 -0.433129
263.771 37.5375 0.367905
547.988 39.2097 0.500211
619.046 56.7748 -0.462412
277.92 9.58726 0.172549
584.472 53.1769 0.36866
304.578 2.53842 -0.373125
370.202 28.8552 0.389221
547.616 21.3468 0.543689
101.142 11.8768 0.510098
426.579 4.03995 -0.578243
596.659 25.8621 0.223187
83.7466 7.72754 -0.264448
261.796 16.7941 0.226761
381.758 13.7017 -0.311988
638.571 11.1605 -0.622043
358.986 1.96196 -0.559535
165.946 44.9111 0.265321
589.844 10.5323 0.27357
122.252 40.6284 -0.17602
244.987 37.5779 -0.369514
362.053 21.9686 0.209827
494.748 16.3569 -0.38035
348.234 9.99965 0.426228
403.094 40.3752 -0.447646
604.969 84.4609 0.359678
44.3669 12.0207 -0.119009
276.813 42.8847 -0.288396
344.451 32.233 -0.438506
369.773 21.6336 0.239593
440.93 60.062 -0.399497
592.732 62.4153 -0.203968
538.715 68.1506 -0.366613
211.896 37.2967 0.393113
11.5277 33.9753 0.153837
533.825 71.1737 0.120443
432.699 65.7707 -0.440978
214.526 42.4139 -0.0910902
552.657 52.8675 -0.110963
141.584 9.95305 0.171767
332.128 29.0016 0.256989
406.456 57.7895 -0.0879758
373.941 21.3048 0.196754
602.509 80.5373 0.293574
386.145 3.58481 0.523158
47.3853 28.6524 -0.288417
415.175 46.9736 0.356834
380.981 57.8576 0.360769
609.634 67.9018 -0.227666
580.301 57.5507 -0.2443
469.741 20.3291 -0.191704
604.331 67.2711 -0.434622
272.207 2.08831 -0.488218
345.121 35.0382 -0.503347
26.6583 41.6566 -0.295211
585.566 50.4437 -0.146062
503.726 37.3699 -0.496576
408.285 0.752878 -0.562302
120.456 4.86195 -0.311471
379.528 51.8203 -0.105868
11.4037 0.90551 0.331799
637.306 9.68206 -0.180958
342.748 51.9801 0.391278
[...]
POINT_DATA 13483
TENSORS Strain_matrix float
0.00400995 0.0657045 -0.025016 
0.0779749 -0.0818078 -0.143135 
-0.0170684 0.00464019 0.00606291 

0.0125657 -0.0158887 -0.461009 
-0.0235089 -0.045812 -0.4903 
0.0034034 -0.0294298 1.2079 

-0.0819552 -0.0225893 -1.36648 
0.0460027 0.0338779 0.391756 
-0.00366609 0.0163377 0.237016 

0.00663802 -0.0192689 0.0809097 
-0.0180486 -0.0369109 -0.0370196 
0.00121281 0.00509777 0.024116 

-0.370639 -0.288263 0.00789609 
0.48872 0.341437 0.124045 
-0.0666559 0.0599914 0.141046 

-0.000274833 -0.0692958 1.08011 
0.129104 -0.0215128 0.117264 
-0.017794 -0.00855371 0.0771607 

-0.0473338 0.0785818 -2.52667 
-0.030488 0.0476762 1.56857 
-0.00211832 0.0133203 0.478081 

-0.020317 -0.085935 0.0672022 
0.101926 -0.0259334 0.0652065 
-0.00865711 -0.00981978 0.0716209 

-0.172029 0.0634441 -1.03947 
0.0741889 0.128885 -0.267068 
0.00168776 -0.000505985 0.0892873 

-0.0628934 -0.146502 0.13431 
-0.124027 0.00835482 -0.0265768 
-0.00601101 0.00354721 -0.0214602 

-0.0128892 -0.0252224 -0.0268032 
0.0185357 -0.00669001 -0.0316233 
0.000351066 -0.000841582 0.0315815 

-0.127193 -0.131655 0.177399 
0.153717 0.106774 0.329667 
0.0143106 0.0110343 0.150174 

-0.0390296 0.0298838 -0.147618 
-0.17182 0.058071 0.0798078 
0.0148547 -0.0156497 0.0165899 

0.0377661 -0.0576984 -0.0339746 
-0.038007 -0.035836 0.0158906 
0.0177234 0.0030646 0.00598843 

-0.0457027 0.0257025 -2.57775 
0.05835 0.040956 1.43462 
-0.00354812 -0.00423801 0.420221 

-0.153665 0.0159927 1.09869 
-0.0797419 0.15729 2.22142 
0.00498238 -0.00963609 0.0394979 

-0.00747236 -0.0364576 0.0104217 
0.0214486 0.00563274 -0.045712 
0.000780302 0.000338186 0.0152653 

-0.00179857 -0.0766741 -0.147011 
0.0142851 0.0387629 0.225779 
0.00282478 -0.00263224 0.0487628 

0.0931676 -0.147817 -0.456857 
0.0176671 -0.0257447 2.02459 
-0.000836218 0.00384603 0.00230996 

-0.12136 -0.0133816 -0.182543 
0.157365 0.0911811 0.145343 
0.0341057 0.0369344 -0.0413669 

-0.498325 0.171532 0.458874 
-0.0960433 0.258339 0.106416 
-0.0127771 0.0215421 0.10263 

-0.016339 -0.0930583 -0.368338 
0.014495 0.0561643 -0.276415 
-0.0139943 0.00585999 0.0615501 

-6.33502e-05 0.00498294 -0.0945569 
-0.0202399 0.0316768 0.662099 
-0.0166645 0.0183664 0.0318315 

-0.0512584 0.0202886 -2.3701 
0.0180552 0.0268398 2.41251 
0.0055798 0.00720114 0.654345 

0.0104004 0.0104154 0.0305433 
0.00278551 -0.0202602 -0.0243141 
0.00207428 0.000969642 0.0170465 

0.009718 -0.0651064 0.127319 
0.138991 0.00541439 -0.178036 
-0.00968097 -0.043308 -0.00706937 

-0.12596 0.000256584 1.09085 
0.0259625 0.128081 -1.26884 
1.88957e-06 0.00103821 0.244132 

-0.114417 -0.158846 0.0733705 
0.14553 0.140521 0.784504 
-0.00884963 -0.0274967 0.20971 

-0.0382459 0.000608468 2.72198 
0.0020225 0.014596 2.14504 
0.000673941 0.00130748 0.0796043 

-0.109592 -0.0325956 0.10038 
-0.0843827 0.0704562 -0.0348771 
-0.00417277 -0.00396813 0.0467688 

0.0314517 -0.0426986 -0.0295935 
0.0524061 0.0103169 0.0883762 
-0.00288188 0.00914978 -0.027066 

-0.00142392 -0.0119237 0.0124011 
0.0144134 0.00578893 0.00137621 
-0.000658623 -0.0004803 -0.00610487 

-0.156827 0.0694474 0.00724152 
-0.00824884 0.0472709 -0.409921 
-0.000721499 0.00542381 -0.0350197 

-0.0899937 -0.0920188 0.31674 
-0.0956522 0.0745382 0.247154 
-0.00644685 -0.00159262 0.151837 

0.00882274 -0.142188 -0.0834067 
0.138293 0.0319523 0.165355 
0.00556816 0.014859 0.0264193 

-0.0692233 -0.125635 0.00624609 
0.177287 0.12848 0.189509 
0.00107075 -0.000686505 -0.0292527 

-0.149337 -0.0763653 -0.806977 
-0.0768219 0.107203 -0.259863 
-0.00292581 0.00374338 -0.0866363 

0.0276644 -0.0887321 0.127823 
0.0255505 -0.00940391 -0.0772967 
0.000291848 0.00071849 0.0208942 

-0.271595 -0.185994 -0.312905 
-0.102567 0.165168 0.456493 
-0.00374101 0.00247709 -0.0741267 

-0.041762 -0.0165651 0.776276 
0.154123 0.088227 1.71037 
0.00110071 -0.000323355 -0.0904856 

0.067576 -0.243023 -0.580049 
0.0167496 0.013671 -0.282434 
0.03374 -0.00324495 -0.104641 

-0.166863 -0.196819 0.625054 
0.0689922 0.0956377 -0.269823 
2.69014e-05 -3.08818e-05 0.0110122 

0.00256487 0.0492737 0.017821 
-0.109677 -0.0585379 0.0419626 
0.00341412 0.0116622 0.0274186 

-0.00181142 0.0120401 0.000801196 
0.0014002 0.00106506 0.00710712 
0.00120129 0.000129886 -0.00200264 

-0.0362122 -0.0377252 0.0865202 
0.065719 -0.0180266 0.00323129 
0.00194331 -0.00135568 0.0424283 

-0.00719783 -0.00886422 -0.014884 
0.00130855 0.000667657 -0.000385255 
-9.25606e-05 -0.000492482 0.022555 

-0.0393843 -0.0287502 0.0234747 
0.0294788 0.0373961 0.348593 
-0.0026789 0.00263786 0.0212379 

0.012072 0.0281515 0.0417936 
0.0173583 -0.00373935 -0.00717662 
2.20162e-05 0.00277455 0.000465257 

-0.0412066 0.0387005 0.704051 
-0.0626091 -0.0435972 1.49378 
-0.0993599 0.022274 0.0707361 

-0.106939 0.0760629 -0.321238 
-0.200114 0.127962 -0.774194 
0.00593768 -0.00145742 -0.0131331 

-0.107043 -0.136345 0.949488 
-0.142475 0.17877 -0.289605 
0.00164855 0.0015122 -0.00321379 

-0.0352526 -0.0772198 0.388726 
-0.075201 -0.0943454 1.10457 
-0.00216404 -0.000149939 0.0534975 

-0.00501921 -0.0716578 0.0715117 
0.0401642 0.00433599 0.123059 
0.00012334 -0.000493548 -0.0141082 

-0.0360116 -0.0310716 0.462624 
-0.0760492 0.0749861 -0.32539 
-0.00984047 -0.0139585 0.0423091 

-0.132306 0.0304225 -1.08547 
0.0197176 0.115488 0.340782 
-0.0494296 -0.104439 -0.573318 

-0.0371087 0.0631763 -0.292058 
-0.113319 0.0295178 0.328742 
0.00162918 0.000287055 -0.0325582 

-0.0333348 0.000291361 -0.0365779 
0.0681614 -0.00417046 0.0477961 
0.00795554 -0.0086878 0.0843315 

-0.176259 0.0189257 1.15932 
0.171496 0.320133 0.296835 
0.0115891 0.114794 0.382912 

-0.0271462 0.0153892 -0.0809105 
-0.023809 0.00631857 -0.360055 
0.00248114 0.000804929 0.110439 

0.00674794 -0.174482 1.04584 
0.160172 0.0326782 -0.21047 
-0.00589641 0.00932266 -0.0778772 

-0.00315183 0.0426255 -0.0295689 
-0.0142055 -0.0141033 0.0366213 
-0.00130117 0.00153023 0.00376133 

-0.203506 -0.0710362 -0.543675 
-0.0937568 0.105529 -0.516423 
0.00230817 -0.0020265 0.0525615 

0.0239322 0.0834861 -0.0614848 
0.00114088 -0.0100512 0.0156326 
-0.000309812 -0.000869431 -0.0265894 

-0.0901374 -0.0260684 -0.100668 
0.101674 0.195658 0.642259 
0.00882013 0.00780908 -0.0429823 

-0.0210266 -0.0464959 0.0386219 
-0.0219877 0.0189956 0.0430296 
-0.00203026 0.000571883 0.0082698 

-0.117226 -0.119985 -0.0212678 
0.109678 0.162509 0.304848 
-0.0128157 -0.0177278 -0.0664549 

0.043809 0.162552 -0.0268334 
-0.28998 0.0554488 -0.0386827 
-0.000701678 0.0108348 -0.083929 

0.021884 0.0971423 -0.157855 
-0.128006 -0.0203486 0.04189 
-0.00220779 -0.0220359 -0.0396974 

-0.0570042 0.000321622 2.13847 
-0.0112422 0.07072 -11.6184 
-0.000245362 -0.00241308 -0.0757136 

-0.0585514 -0.00765823 2.69053 
0.00143655 -0.0480693 2.0305 
0.00132763 -0.00165674 -0.0840289 

-0.0490481 0.0202152 0.0669948 
-0.148508 0.0653559 0.216481 
-0.00296243 0.00963289 -0.0520947 

-0.218773 -0.150151 -0.00858849 
0.0255086 0.110137 0.374553 
0.00374282 0.0040313 0.217259 

-0.0925839 -0.100243 0.362627 
0.0458335 0.160607 0.0190268 
-0.0344014 -0.00932071 0.0315387 

-0.188453 -0.200407 -0.129487 
0.0979982 0.159615 -0.460388 
0.00403333 0.00688259 0.240555 

-0.135283 -0.0452591 -0.625691 
0.0373821 0.0899166 0.765213 
-0.0142895 0.0313589 -0.386082 

-0.00581972 0.0060548 0.0532402 
0.00783991 0.00791582 0.00987665 
-0.000335744 -0.000769827 0.00280398 

0.0780121 -0.136258 -0.222154 
0.172075 -0.0148385 -0.226911 
-0.000137555 -0.00118923 -0.0517611 

-0.261636 0.032464 -0.238739 
-0.233992 0.0572626 0.30182 
0.0257878 0.0398293 0.249727 

-0.0900736 -0.421675 0.858378 
0.044687 0.0771122 0.102088 
-0.0195638 0.000407138 -0.00214722 

-0.0175773 -0.000841399 0.00832823 
0.0269306 0.01356 0.0606909 
-0.000132137 0.00265346 0.0273749 

-0.136553 -0.044988 -0.33616 
0.00770786 0.0905871 -0.102295 
-0.000945189 -0.00884849 -0.0603852 

-0.134843 -0.0101229 0.0891375 
-0.10799 0.133697 0.669385 
-0.0257622 -0.010372 0.180688 

-0.152707 0.134779 -0.696596 
0.0728536 0.0714168 -0.25293 
-0.000612987 -0.000472202 -0.0108156 

0.0813845 0.254961 -0.258966 
-0.0603754 0.0257856 -0.803784 
0.039072 0.020722 -0.180913 

-0.0338671 -0.0945435 -0.124102 
-0.0243853 -0.0178396 0.0636177 
0.0203416 -0.0371304 0.0702978 

0.10817 -0.0938416 0.217016 
-0.0612252 -0.078569 -0.305993 
-0.0273021 0.0384606 -0.0459106 

-0.0217495 0.0180768 2.13023 
-0.0179899 0.0323169 1.20616 
0.00623408 -0.0413736 0.109814 

-0.0915611 -0.000152286 0.0746857 
-0.00076386 0.0660794 -5.87712 
-0.000332209 -0.00130482 0.266042 

-0.034464 0.0175258 0.19001 
-0.0345843 -0.0263333 0.166966 
-0.00569155 -0.00221056 0.0579537 

-0.0152799 0.0285709 -0.385058 
0.0287712 0.0397271 -1.75047 
0.00402437 -0.000350177 0.112036 

0.0314406 0.0840511 -0.133997 
-0.183518 0.00322328 0.0474883 
-0.000899352 -0.000814183 0.00569116 

-0.217169 -0.19052 -0.244394 
0.0756227 0.167715 0.0286768 
0.00859086 -0.00367613 0.00646354 

0.0171206 -0.0218691 0.337779 
0.0156945 0.0118655 0.525422 
-0.00595197 0.00970329 -0.0300773 

0.00223601 -0.0322622 0.11359 
0.0203496 0.0274195 0.0300683 
-0.000843824 0.00292933 -0.0197244 

0.0070776 0.00620221 0.504933 
-0.038769 -0.0137712 -0.253483 
0.00111179 0.000424701 0.0151347 

-0.0156829 1.66442 -0.945785 
-0.0828854 -0.15698 0.109538 
-0.00949412 -0.721404 0.454399 

-0.0090997 0.00491181 0.0152993 
-0.0198021 0.00185845 -0.0701141 
0.00179995 0.00529764 0.0775068 

-0.0152309 -0.106242 -0.508544 
-0.0336362 -0.0574863 -0.322269 
0.00314528 -0.000609952 0.00851958 

-0.0162337 0.019358 0.00792117 
-0.0166215 0.00379324 0.0234763 
-0.0662581 -0.00219605 -0.0741922 

0.181608 -0.662812 0.0428367 
0.350653 0.0731386 1.04516 
0.00503977 0.000662947 0.063601 

-0.0734743 0.15024 -0.0370712 
-0.114972 0.0544529 -0.332818 
0.0218892 0.00517286 0.0768352 

-0.10801 -0.237074 7.531 
0.0853693 0.14075 -5.28818 
-0.000638316 -0.00197675 0.0163603 

-0.106336 0.0153459 9.56215 
-0.165205 0.0703327 1.71734 
0.000151976 0.00444708 0.210632 

-0.0123022 -0.0540358 -0.0510344 
0.199874 0.0121737 0.612371 
-0.0155342 -0.0123773 0.016238 

-0.0878687 0.452973 3.38342 
-0.41403 0.571772 -0.740431 
-0.0119906 -0.0279979 0.79499 

0.0139577 -0.111858 -0.299208 
-0.174381 0.028989 -0.0838982 
-0.00981258 -0.0171558 0.140599 

0.0315443 -0.0291503 -0.0147774 
-0.0305587 -0.0385379 -0.0645452 
-0.00576666 -0.00187526 -5.0009e-05 

-0.0913336 0.0560622 -0.112967 
0.115451 0.0716512 0.752212 
0.0197112 0.0067966 -0.191191 

-0.00795931 -0.0251405 0.0219672 
0.0175789 -0.00865989 -0.0231221 
-0.0006518 0.000279641 0.0148103 

-0.0454242 -0.0817923 0.173608 
-0.000750633 0.0204291 0.0724664 
-0.0225225 -0.00694613 0.129217 

0.0253276 0.0164028 -6.03086 
0.044893 0.00710295 -0.909835 
-0.0116074 -0.0191408 2.85871 

-0.0141507 -0.0117075 -0.225599 
0.0115143 0.0100158 1.86176 
0.000420742 0.000162248 0.1051 

-0.104658 0.141928 0.284342 
-0.144391 0.100915 0.125935 
-0.00930716 0.0098866 0.0761275 

-0.551693 -0.544187 -0.908697 
0.199594 0.444549 -0.528891 
0.000659081 -0.0011336 0.0741197 

-0.115858 -0.167697 0.146627 
0.186861 0.190216 -0.160143 
-0.0030443 -0.00264969 0.0678329 

0.0057708 0.0128781 -0.290746 
-0.0267627 0.0201826 -0.646845 
-0.000323576 -0.00193154 0.0208233 

0.043378 -0.176479 0.302956 
-0.132349 0.0535395 0.163162 
0.00404393 0.00200603 -0.0215913 

-0.0213723 -0.0356027 0.101187 
-0.0422269 0.102621 0.321726 
0.000142727 -0.00659767 -0.00479661 

-0.0359326 -0.254818 0.180729 
0.188518 0.101286 -0.237385 
0.00573397 0.00443273 -0.0577775 

-0.244405 -0.269098 -2.22506 
0.159997 0.219859 0.389523 
0.00611936 0.00992627 -0.0147547 

-0.0347326 -0.00629691 0.00867228 
-0.150953 -0.107845 -0.0078276 
0.0194219 -0.00190073 0.0456548 

-0.00571279 0.129842 0.00407939 
-0.127473 0.0294278 -0.0296138 
-0.000647691 -0.000464278 -0.00784904 

-0.537817 0.174729 -1.2163 
-0.0155499 0.335243 -0.581294 
-0.0614084 0.0564581 0.263689 

-0.0607562 -0.167182 -0.0379315 
0.233183 0.0325259 -0.389417 
0.00302679 0.000669446 0.0473456 

-0.0523754 -0.078071 2.1919 
0.059145 0.0874666 -3.29961 
-0.0019656 0.00205691 0.31613 

-0.0069533 -0.00791097 0.00989549 
-0.00942495 -0.0124291 -0.0193268 
0.00119047 -0.000599968 0.00570511 

-0.00942884 -0.0203739 -0.11151 
0.0656178 0.0247335 -0.0594408 
0.0661345 -0.0214975 -0.130321 

-0.106452 -0.154254 0.103883 
0.182761 0.163221 0.467629 
0.00173738 -0.000546679 0.0210113 

-0.231143 0.245523 0.805999 
0.015038 0.16441 1.43194 
-0.0256633 -0.00484969 0.154818 

-0.0298543 -0.016156 -3.72451 
-0.0262537 0.050894 4.07679 
0.000195746 -0.00056552 0.124557 

0.035232 0.0344805 -0.430426 
0.076781 -0.0581095 -0.00905422 
-0.000881843 0.00245853 0.00287435 

-0.0272119 0.106058 -0.103916 
-0.107567 0.041637 -0.010518 
0.00483556 -0.0161114 0.00282142 

-0.0954917 -0.0208865 -1.51987 
0.0734036 0.0830091 -0.0136692 
0.0014906 0.00551393 0.21748 

-0.0645889 -0.0543566 -0.0413672 
-0.018926 0.0369662 -0.0276761 
-0.00188316 -0.0002525 0.0246125 

0.0160997 0.0795928 -0.369635 
-0.0756859 -0.0177284 0.251145 
0.00345916 0.00554879 -0.0395591 

0.044154 0.102951 -0.0895357 
-0.202362 0.0657235 0.0988213 
-0.00213211 0.000560789 -0.0706046 

-0.193545 -0.139729 0.854767 
0.0752171 0.137602 -0.0661657 
0.0450817 0.0122545 -0.150817 

-0.0691537 -0.148374 0.631213 
0.075676 0.0602003 -0.942162 
0.01289 -0.0142612 0.0359474 

-0.0442969 -0.151168 -0.275522 
0.270317 -0.107123 0.161246 
0.00527155 0.00155395 0.120492 

0.0756868 -0.0280335 -0.0201157 
-0.0779898 -0.0125289 -0.110359 
-0.0175288 0.0374444 -0.00950596 

0.00328515 -0.00146641 -0.185996 
-0.0214601 -0.0316436 0.00566255 
0.00413575 -0.00108031 0.100854 

0.0657059 0.0161751 -0.142701 
-0.115321 -0.0802964 -0.0690585 
0.0129175 0.011742 0.018584 

-0.0570714 0.120258 0.298368 
0.000992593 0.0887008 -0.138712 
-0.0140801 -0.0111459 -0.0663679 

-0.0669802 0.0273092 -0.812435 
-0.0496034 0.0740734 0.788411 
0.0107995 -0.00713232 0.10165 

-0.0637999 0.0708042 0.0738457 
0.00238561 0.0213204 -0.163668 
0.00345088 -0.000557165 -0.00847276 

0.0332362 -0.0781532 0.0485215 
0.0971926 -0.0456538 -0.0385848 
0.0238241 -0.0504093 0.057373 

-0.108189 0.161177 0.103801 
-0.0981454 0.156546 -0.135767 
0.0253111 0.0144587 -0.00313223 

-0.00950051 -0.00406965 0.0283325 
0.0104706 0.00196966 -0.0292068 
0.000482744 8.0592e-06 0.0077744 

-0.100642 0.0711154 0.0765952 
-0.129017 0.0654161 -0.169113 
-0.0221804 -0.000613819 0.134182 

0.00720283 0.00515551 -0.0463911 
0.0192405 0.00380339 -0.0919181 
0.000939267 0.00107428 -0.00799018 

-0.17403 -0.108056 4.29005 
-0.130134 0.107682 -0.154124 
-0.0076433 0.0096872 0.118059 

-0.0636861 0.200882 -0.324185 
-0.312948 0.168683 0.531442 
-0.0283887 0.016948 -0.0396052 

-0.00111021 -0.010358 -0.063915 
-0.00205441 -0.0109125 -0.0372019 
-0.0015363 0.000496721 0.0322556 

0.0176733 -0.00258881 0.166838 
-0.0245362 0.00670271 0.541802 
-0.000403323 -0.000119639 -0.0171638 

-0.00413752 -0.041019 0.031334 
0.00168393 -0.0338616 -0.0486333 
0.000761188 -0.000839406 0.0209894 

-0.0178404 -0.328195 0.0804041 
-0.0498533 0.00477303 -1.09503 
8.12457e-05 -0.000797529 0.0266594 

-0.138072 -0.176504 -1.4866 
0.103739 0.0983965 5.93446 
0.00343399 -0.00564068 0.393816 

-0.0028945 -0.000484571 -0.15546 
-0.0184508 0.00523333 0.272697 
0.000488067 0.000712523 -0.0209698 

0.0929188 -0.0805788 0.19736 
0.0111195 -0.0459391 -0.242085 
-0.0102672 -0.0389382 0.230659 

-0.0213075 -0.0343169 -0.057936 
-0.00856148 0.04115 -0.0441047 
0.0418811 0.0340195 -0.00632173 

-0.0372115 -0.0225618 8.87944 
0.0207388 -0.0363715 -13.9152 
-0.00187314 0.00654862 0.0970668 

-0.0531214 0.00416775 -0.128233 
-0.000351149 0.0117802 -0.091356 
-0.00746562 -0.0190233 0.0384826 

-0.24641 -0.184231 0.791933 
-0.192303 0.158348 -0.221903 
-0.00840713 0.0318888 -0.186667 

-0.0987965 -0.190414 -3.24151 
0.0567102 0.0528198 0.896605 
-9.43258e-05 0.00103191 0.0745434 

-0.145002 -0.111716 -0.797138 
0.0665236 0.116797 1.41684 
0.00520387 0.00188903 0.0862522 

-0.1582 -0.10792 0.327196 
-0.110272 0.0268481 0.156412 
-0.0327941 -0.0371318 0.0802586 

-0.0240018 -0.147251 0.51869 
0.0778461 0.0330369 0.177033 
-0.00275522 -0.00329163 -0.0088347 

-0.181921 0.0596232 0.402561 
0.0577841 0.130345 0.737726 
0.00370797 -0.000698102 0.0244766 

-0.107577 0.0702332 -0.562538 
0.00138783 0.0737563 0.780501 
0.0215433 0.0842374 -0.503055 

-0.0053956 -0.000791264 0.000209016 
0.00346619 0.00761113 0.022117 
-0.000517932 -0.00029229 -0.000659888 

-0.0126645 -0.00679362 0.0342982 
-0.00517129 0.00597397 -0.00671611 
-0.000979261 0.000724745 0.00602033 

-0.0340929 -0.0101321 -0.0367497 
0.0793808 0.0246249 -0.126565 
-0.000347882 0.000581205 0.0107989 

0.00303607 -0.00647529 -0.0059514 
0.0119485 0.00409866 -0.0120598 
-0.000241368 0.000446689 -0.0066045 

-0.12118 -0.257138 -1.82736 
0.140689 0.0604696 -1.0235 
-0.0211202 0.0206992 0.0795527 

-0.394284 -0.240893 -1.47228 
-0.18808 0.340478 0.0756894 
-0.049392 -0.0138103 0.236624 

-0.110864 -0.319956 0.109425 
0.0149268 0.0473855 0.844308 
-0.00285373 -0.00329069 0.177533 

0.0826195 0.0226989 -0.210529 
0.014422 -0.0895138 -0.0440476 
-0.00143573 0.0013604 -0.0308429 

-0.0130743 0.0171474 0.0149971 
0.00942241 0.0187921 0.00177428 
0.00124671 -0.000303226 -0.00127705 

-0.147002 -0.0845034 0.941293 
0.0316515 0.171941 -1.02206 
-0.00843279 -0.00574627 -0.0670929 

-0.0852019 -0.0562019 0.0181589 
0.0362356 0.0100806 0.0235098 
-0.0147525 -0.00772668 0.10152 

-0.00818433 0.00057001 0.0286134 
0.00817782 0.00399174 0.0110294 
-0.000391843 0.0010096 0.00901639 

-0.396038 -0.199722 -0.149952 
0.170261 0.219315 0.359696 
-0.004764 -0.015943 0.0975088 

-0.0711457 -0.0631927 -0.112965 
0.0347833 -0.0264996 -0.0959588 
-0.012047 0.00384423 0.105966 

-0.0134759 -0.0257062 -1.16044 
0.0101605 0.0114399 0.259378 
0.00264574 0.00333855 0.216484 

-0.190781 -0.0280836 0.299342 
0.214221 0.24902 0.0413739 
-0.007855 -0.0104177 0.0256414 

-0.0586437 -0.000240482 -0.0698744 
-0.0625178 -0.00718615 0.0483158 
-0.0379143 0.00579619 0.251855 

-0.144409 -0.174344 0.684345 
-0.080311 0.0473874 0.178029 
-0.00331307 -0.00189526 0.078654 

0.0111588 -0.114782 -0.00675568 
0.0731752 -0.000675542 -0.0293665 
-0.0245824 -0.0275715 0.02733 

-0.0121652 0.000494421 -1.57353 
0.0235378 0.0214247 -0.0680876 
-0.00127556 -0.000564982 0.0941171 

-0.0286322 0.118725 0.0281408 
-0.122413 0.00877505 -0.195138 
0.0215311 -0.0378286 0.224455 

-0.0690072 -0.0782219 0.0371412 
0.168236 -0.00126921 -0.0850256 
-0.0149315 -0.0191612 -0.0416481 

-0.36254 0.416596 -0.0350085 
-0.342602 0.286607 -0.0369242 
0.0256929 -0.0406959 0.0811447 

-0.0415053 0.0149001 -0.67038 
-0.0295603 0.018116 -2.6982 
0.00949182 0.00637635 0.578458 

0.0719443 -0.0407727 -0.526696 
0.0549134 -0.0497025 -0.34841 
-0.00144391 0.000626904 0.119462 

-0.0902479 -0.0141893 -0.102935 
-0.130931 0.0648944 0.223249 
0.0170821 -0.00153561 0.0889939 

-0.0771737 -0.130747 -2.74117 
0.464914 0.302854 0.388238 
-0.0476782 -0.0188822 0.246925 

0.0743973 -0.21304 0.901578 
0.0534819 -0.161194 0.283884 
-0.00819702 0.00568847 -0.0639219 

0.12033 -0.319794 0.51784 
0.19546 -0.0197762 0.0425295 
-0.0291077 0.0552459 0.374991 

0.00996088 -0.0263642 0.0152518 
-0.0143589 -0.0288192 0.0256529 
-0.00658783 -0.00612769 -0.00289236 

-0.0172491 -0.420603 0.180816 
0.119084 0.1176 -0.0954138 
-0.00803048 0.0134786 -0.0365891 

-0.155569 0.0533756 -0.129033 
0.0908516 0.147373 -0.877455 
0.0205652 0.032127 0.0743095 

-0.00484869 0.022429 0.054252 
0.10391 0.0344055 0.396149 
0.00761784 0.0372736 -0.165051 

-0.0892518 -0.0520383 -0.176352 
0.0582456 0.0536871 -0.0424316 
-0.00268483 -0.00283993 -0.0333679 

-0.269643 -0.177359 0.32929 
-0.0251909 0.0492131 -0.156422 
0.0100751 -0.00877056 0.0467579 

-0.0085064 -0.0141635 -0.00968911 
0.00499554 0.00445304 0.00841867 
1.55212e-05 -0.000313305 0.0128368 

-0.235737 -0.00228042 1.02078 