# vtk DataFile Version 3.0
Output file generated by Yade's KinematicLocalisationAnalyser
ASCII
DATASET UNSTRUCTURED_GRID

POINTS 13483 float
626.894 27.8959 0.511585
803.06 61.6965 0.446225
122.06 6.06627 -0.465139
833.562 5.50529 0.374313
510.621 7.78015 -0.262209
320.397 34.9799 -0.465759
159.091 6.88452 0.436066
585.992 10.1021 0.147283
507.086 23.4709 -0.203847
756.473 11.7064 -0.416814
214.021 8.83303 -0.0837978
261.525 6.29828 -0.259693
678.271 28.356 -0.177322
656.061 14.1927 0.0783534
139.461 17.2189 0.418963
225.143 34.6629 0.408872
221.423 12.9234 -0.294757
294.026 9.67447 0.394942
347.26 32.7113 -0.507617
536.924 8.58336 0.348888
418.823 36.5804 0.098485
609.967 44.3256 0.255728
833.395 33.824 -0.551197
730.157 41.6643 -0.477085
468.345 16.1785 0.290398
245.058 44.2988 0.1367
502.041 27.5402 -0.492749
603.674 19.9233 0.234546
45.919 15.5692 -0.40013
751.498 31.3732 0.0217402
492.934 4.94237 0.31426
16.8824 23.5871 -0.302975
818.097 61.6435 -0.258687
506.327 2.52023 0.466166
79.3925 44.5061 -0.105767
533.978 29.9957 0.359074
543.604 16.5458 -0.40365
350.424 22.622 -0.214423
546.992 25.2277 -0.344034
357.114 33.4327 0.468723
245.269 14.674 -0.303111
443.009 35.5946 0.0758957
705.112 7.01067 0.172689
195.899 6.26504 0.346294
56.4653 6.97668 -0.128145
69.8688 8.90899 -0.309117
722.601 8.97847 -0.455907
23.7448 11.6289 -0.278517
631.4 44.2282 0.354988
706.957 23.9823 0.413046
175.673 32.3833 0.29089
802.318 46.0806 0.162433
35.559 28.1737 0.11444
547.596 2.96404 0.32661
144.544 7.45081 -0.502241
612.487 33.7959 0.438219
515.737 26.6614 -0.159207
178.187 0.941723 -0.267132
33.1972 2.38889 -0.310842
355.574 17.8406 0.271429
642.482 45.5713 -0.139577
472.095 33.5052 -0.18915
407.399 1.02727 0.198353
733.671 7.67248 0.356934
26.9797 43.2857 -0.235859
260.978 30.4927 0.28564
756.721 7.33329 0.220628
698.855 44.8121 0.354655
426.198 8.63931 -0.50193
586.893 3.53514 -0.345271
784.946 34.1904 -0.394115
133.024 7.7044 0.283452
509.739 25.7927 0.150788
488.55 14.8977 -0.150646
300.305 16.7354 -0.342912
20.9124 13.5764 0.282966
827.295 54.5961 0.338004
339.445 38.8464 -0.296884
704.767 20.556 -0.374098
722.125 12.8466 -0.273649
820.178 13.5056 0.273629
475.597 34.3745 -0.166623
94.0261 38.6527 -0.273682
716.699 34.9136 -0.229166
674.408 39.5145 0.10817
839.114 40.5662 0.144455
813.373 0.779163 -0.474756
296.995 28.7536 0.459075
644.522 6.35636 -0.119705
24.6516 5.26266 -0.534126
135.484 38.2146 -0.172158
525.649 14.5746 0.227339
820.364 43.4835 -0.520212
199.512 28.8181 -0.229877
45.1806 34.2784 0.303433
505.251 1.16468 0.134606
240.577 8.95582 -0.372602
783.241 46.2301 0.264085
808.122 39.8627 0.28543
369.267 21.0649 -0.262502
167.267 26.8325 -0.461085
566.137 38.1494 0.42748
388.551 15.6159 -0.448988
423.082 29.5406 -0.0928395
386.59 4.53005 0.412101
564.364 10.8378 -0.0963602
837.87 11.4704 0.17163
81.7243 39.4382 -0.395759
342.975 4.98967 -0.200351
579.308 9.47313 -0.353912
368.528 43.8087 0.449694
26.5094 25.139 -0.491972
30.853 5.76277 -0.33079
587.687 31.9766 -0.421251
518.727 24.3054 0.149015
26.9885 37.2191 -0.427523
95.0484 30.7434 0.223674
332.656 16.0044 -0.278383
622.499 18.9362 -0.147829
487.976 37.7291 0.31563
776.226 7.94841 -0.377032
767.087 6.02697 -0.207249
396.553 37.0534 0.0921638
662.494 25.4421 0.118866
243.758 17.1102 0.492447
338.267 3.87726 0.459136
105.941 31.5844 0.358876
119.121 24.3903 0.284404
561.317 38.3653 -0.0880078
313.684 18.9111 0.459427
747.084 35.2021 -0.104218
702.962 44.0782 0.119644
494.319 20.4586 -0.423012
817.12 25.8483 0.266342
440.263 23.3153 -0.237194
283.535 24.3392 0.297177
705.909 31.6111 -0.301619
285.861 28.3718 -0.431691
597.867 12.1201 -0.187015
340.597 35.5761 0.209146
520.051 11.2574 0.468763
376.442 31.5427 0.0919522
442.424 16.7412 -0.108886
326.579 41.9091 0.357676
195.672 29.8931 0.134286
807.673 60.1945 -0.159351
833.971 12.5797 -0.352897
6.15296 12.4854 -0.482149
446.56 22.4037 -0.420169
39.1456 22.516 -0.088841
386.726 31.2407 -0.295958
406.085 24.8807 0.250577
76.9204 11.9893 0.501435
53.1352 33.1704 0.422119
231.875 13.5174 0.417679
644.463 37.7816 0.524445
599.985 21.0112 -0.488997
76.8998 21.0276 0.405344
732.718 45.0897 -0.461139
802.393 13.649 -0.604812
690.81 40.6885 -0.496977
728.897 2.39184 -0.371544
570.554 26.4538 0.418383
611.522 44.9527 -0.436815
529.565 18.0521 -0.411809
831.444 3.03578 -0.202515
229.672 24.8662 0.145823
131.11 35.561 0.228505
254.3 6.46404 0.380188
96.994 4.41796 0.280998
66.1901 10.065 0.198663
283.848 35.8914 0.325694
17.0284 25.336 0.402257
576.898 19.3633 -0.401489
631.003 39.1339 0.2386
477.698 21.0443 -0.382328
838.78 62.787 0.365486
419.21 8.60211 -0.104938
449.607 35.9399 -0.386185
556.322 3.44251 -0.185507
23.6402 24.1416 -0.39392
600.385 4.46246 0.473601
566.529 4.33366 -0.289402
212.21 11.2949 0.488306
438.511 16.537 -0.194941
320.83 6.34132 0.342279
400.084 19.0591 -0.320504
774.233 42.7985 0.144864
197.95 25.8269 -0.445823
807.674 6.57693 -0.370578
772.838 37.8538 -0.470815
395.282 10.1966 -0.161055
753.825 2.33769 0.454238
630.819 25.1127 -0.301019
782.533 19.9512 0.489343
444.859 42.6689 -0.310822
514.326 12.6439 0.383674
480.997 43.9729 -0.224622
460.273 8.60936 0.122298
694.343 39.9028 -0.319422
691.87 36.054 0.289832
198.054 39.1674 -0.360589
818.132 14.0275 -0.106099
613.336 45.013 -0.161768
11.831 16.7736 0.224096
420.395 25.1858 0.384122
192.976 23.2718 0.396963
95.7532 39.5237 -0.213037
819.074 40.365 -0.466411
688.792 45.7943 -0.246364
329.367 25.5598 0.338728
553.051 10.1681 0.320551
84.5331 44.6703 -0.167695
255.225 25.8869 -0.49812
579.524 23.6395 0.387833
504.152 18.6637 0.376047
271.035 0.887786 -0.344099
575.604 39.5421 -0.370039
554.606 40.4719 -0.468613
498.865 33.1027 -0.339513
517.391 0.819053 -0.534273
740.399 18.7024 0.392048
185.069 12.3186 -0.194557
518.74 36.4103 0.448484
588.489 39.6554 0.138066
75.3338 0.946869 0.272554
259.716 4.726 0.179677
833.319 14.387 0.256226
820.877 15.1587 -0.534841
840.903 16.6242 -0.678471
313.244 8.58888 -0.229154
786.364 26.0316 -0.367988
420.668 41.3039 -0.30996
464.58 0.812233 -0.402718
679.809 35.9287 0.444067
28.0593 30.7888 0.297528
341.504 41.5037 0.577048
260.573 2.85841 0.332912
821.812 59.4321 -0.195691
750.3 47.3702 0.31146
296.636 11.0151 0.235179
699.073 29.8236 -0.101447
581.12 2.6551 0.300618
564.247 6.41344 0.419536
99.6985 18.4272 -0.511652
313.131 1.03308 -0.225523
354.444 2.25219 -0.368521
14.2738 7.60545 -0.448904
4.54237 30.942 -0.267542
166.954 18.9086 0.368283
70.3013 41.7973 0.218089
68.7071 28.9439 0.371054
438.172 14.6619 -0.434252
379.411 35.0023 0.476163
800.485 47.2352 -0.140414
19.9804 4.02807 0.266749
72.9483 6.915 0.126037
654.185 37.2393 -0.199242
304.322 0.918089 0.361637
377.263 16.2165 -0.0925717
243.233 4.71313 -0.3926
685.166 21.2588 -0.210502
467.81 8.31079 0.420281
789.988 25.658 0.453486
661.685 28.8294 0.344947
703.475 18.9092 -0.111728
434.872 26.5113 0.533106
105.339 44.7763 0.319277
564.989 41.9314 0.0741819
780.33 14.7135 0.23281
245.615 30.4775 -0.26474
33.035 17.1303 -0.201236
347.879 13.8502 0.508586
111.054 40.4989 -0.460881
276.611 42.2017 -0.209857
440.495 1.59766 -0.29472
825.697 49.9107 0.367927
721.664 0.794251 0.541768
343.494 3.43026 0.554989
310.212 26.4665 -0.154398
479.814 40.8334 0.224484
84.346 8.1809 0.357472
204.253 45.1709 0.377615
810.21 42.6986 0.455804
513.863 38.9394 -0.0822144
206.754 41.3397 -0.262398
166.298 42.5338 0.329983
841.565 35.6546 -0.515162
836.256 12.1457 -0.602531
634.714 3.47238 -0.455668
196.619 24.7034 0.109996
572.403 27.4141 0.104767
574.454 27.1978 -0.268485
423.848 5.67971 -0.139441
500.106 0.923862 -0.298598
797.667 50.0784 -0.539566
87.7309 31.1688 0.221244
690.907 19.0536 -0.422357
283.675 15.5575 -0.347592
9.75202 2.3438 0.34762
129.768 37.1935 -0.193789
69.2087 23.2906 0.517375
740.691 35.877 -0.357489
826.702 65.7307 0.170675
191.849 28.562 -0.194147
829.32 11.8529 0.406474
46.6689 36.4544 -0.265291
93.8973 29.0936 0.182401
665.655 12.6633 0.548157
428.355 18.3683 -0.463499
540.253 16.5634 0.127297
246.144 28.4774 -0.182276
651.95 4.46073 -0.374765
840.688 10.7043 0.330386
30.7491 31.8362 0.288146
279.433 7.72696 0.194064
229.514 15.1723 0.253868
1.07696 35.5353 -0.148341
232.858 14.5678 -0.365398
218.931 11.0564 -0.10343
221.506 26.4226 -0.272236
137.483 27.9454 0.147513
571.105 14.9516 -0.353265
172.777 14.1521 -0.361475
815.818 59.3274 0.246659
180.207 3.82326 0.507597
49.062 37.4467 -0.416783
774.117 53.5033 -0.432291
290.893 31.2867 -0.37741
712.941 23.221 -0.558126
836.288 52.3367 0.452545
311.28 9.20319 -0.106785
774.556 29.8175 -0.395254
340.376 2.5383 -0.404904
431.253 24.0254 0.346195
709.265 15.8931 0.468821
109.063 11.9514 -0.466885
501.841 3.79458 -0.523071
792.746 25.1247 0.264773
91.4042 7.68653 -0.227848
291.512 14.7802 0.201532
438.964 11.8469 -0.206679
829.905 3.64575 0.602029
412.378 1.93581 -0.535855
183.035 38.9031 -0.288259
783.163 12.7298 -0.356008
132.942 36.5397 -0.209477
272.206 31.3429 -0.385499
415.052 21.6485 0.217546
600.34 14.0394 -0.318707
401.207 9.76851 -0.488868
473.922 27.5445 -0.336028
804.205 60.6486 0.396788
49.1484 11.0304 -0.111833
309.933 38.478 -0.255416
393.476 26.9978 0.345821
424.689 21.0207 0.249476
542.616 43.8888 0.356374
791.658 46.7079 -0.186532
697.979 35.5881 -0.376873
233.769 34.2696 -0.378631
14.3758 31.5022 0.167537
690.211 37.0755 -0.135957
529.616 40.9575 0.44473
237.489 39.3954 0.111597
719.207 30.7464 0.108841
156.318 9.26194 0.219568
379.864 21.3825 0.329548
481.62 41.8944 0.103245
429.306 19.782 0.214156
799.223 61.9251 -0.290827
442.027 3.85308 0.499605
51.3844 25.1293 -0.284772
488.311 31.474 0.35764
451.371 41.9114 0.353269
820.104 53.8466 -0.228203
772.076 28.5465 -0.301637
564.616 18.2893 -0.193878
810.98 52.8983 0.438333
303.857 2.20638 -0.462153
392.206 29.4347 0.492107
30.1632 38.9471 -0.321252
776.706 31.1603 -0.224691
639.184 19.5403 0.5121
480.993 0.778247 -0.474198
130.455 4.5809 0.267364
442.651 40.0709 0.111598
12.2133 0.912228 -0.315368
829.015 5.85107 0.276728
[...]
POINT_DATA 13483
TENSORS Strain_matrix float
-0.161048 -0.111977 1.09 
0.0788716 0.027412 -1.45028 
2.30077e-18 -9.54821e-18 1 

-0.188212 -0.314972 1.66834 
0.32071 0.0954837 -3.97914 
-8.79127e-19 3.08927e-18 1 

-0.113043 0.00698727 -0.841454 
0.0123307 -0.0244889 -0.554301 
1.84263e-18 7.27092e-19 1 

-0.662085 -0.041221 0.446369 
-0.34741 0.138436 0.19324 
-2.63728e-18 -6.96406e-18 1 

-0.252204 -0.0196727 -0.0365127 
-0.012257 0.0319864 -0.413761 
1.19831e-18 -7.23022e-18 1 

-0.088241 -0.0262026 -0.491843 
0.0170294 -0.0194397 -0.0546102 
-3.90927e-18 -1.44546e-18 1 

-0.0879889 -0.0190409 0.0591657 
-0.0092367 -0.0922436 0.0612665 
1.75777e-18 9.5422e-18 1 

-0.0855256 0.00730187 -0.0829885 
0.0372413 -0.0585137 -0.0245666 
-1.20327e-17 1.48095e-18 1 

-0.150021 -0.0308049 0.0610583 
0.0374787 0.012754 0.354229 
7.81338e-19 1.21107e-17 1 

-0.149054 -0.0627995 0.123621 
0.0289236 -0.0964349 -0.33327 
7.60589e-19 -1.30821e-17 1 

-0.0832312 0.0344278 -0.0958991 
0.001973 -0.0714298 0.0311977 
-1.25235e-17 -1.6674e-18 1 

-0.0998561 -0.0514064 0.19993 
-0.0656847 -0.0938337 0.0595687 
8.11121e-19 5.64405e-18 1 

-0.25957 0.152282 0.519526 
-0.0120856 0.106143 -0.324993 
2.12408e-18 -6.01823e-18 1 

-0.148094 -0.0153446 -0.244949 
0.0474476 -0.0265261 0.12836 
-5.16343e-19 1.13104e-18 1 

-0.142866 -0.0210183 -0.46542 
-0.00491586 -0.0369426 -0.285791 
-3.11775e-18 1.2256e-17 1 

-0.0782946 -0.00105622 0.31213 
-0.0617959 -0.0208481 -0.128921 
-6.26384e-18 -9.76971e-18 1 

-0.0752924 -0.0379355 0.0727855 
0.0143276 -0.108758 -0.0599417 
-2.78769e-18 -1.04538e-18 1 

-0.149704 -0.0153143 -0.0390546 
0.00955463 -0.0728974 -0.00627934 
-3.79341e-18 -5.55133e-19 1 

-0.15485 0.0190039 -2.55425 
0.0109952 -0.0232951 -0.0554376 
2.6097e-19 -1.6749e-18 1 

-0.100672 0.025185 0.135962 
-0.0792643 -0.0701688 0.405001 
1.81563e-18 6.1663e-18 1 

-0.0663968 -0.0523453 0.0979163 
0.126227 -0.0340576 0.0116999 
6.12312e-18 9.81921e-18 1 

-0.183605 -0.0852874 -0.0680256 
0.0189592 -0.00343131 0.19181 
3.48453e-18 -2.19367e-17 1 

-1.11832 0.187668 -0.247564 
-0.03515 0.341144 0.225022 
3.24929e-18 6.49858e-18 1 

-0.181379 0.0521751 0.015646 
-0.0791111 0.0291712 -1.48088 
6.71296e-18 9.38964e-18 1 

-0.0677111 -0.0415252 -0.178808 
0.0795559 -0.0402007 -0.0605009 
-7.10513e-19 -1.37428e-18 1 

-0.167976 0.0860848 -0.055404 
-0.0622307 0.0592214 -0.0749365 
4.2488e-19 -8.07273e-18 1 

-0.128969 -0.00971491 -2.06784 
0.028932 -0.0320007 0.522034 
-3.24692e-18 -1.31456e-18 1 

-0.130794 -0.0531661 -0.520109 
-0.0536736 -0.0308096 -0.34953 
-8.07964e-18 1.4672e-17 1 

-0.0985165 0.0290351 0.0663016 
0.0549363 -0.0687628 -0.576772 
-5.33902e-18 3.33028e-18 1 

-0.187301 -0.0544121 0.17712 
0.0972016 0.0796984 0.0787727 
-1.25834e-17 1.26825e-17 1 

-0.0871353 -0.00598418 -0.306271 
0.00907918 -0.140018 0.383623 
2.32384e-18 3.28369e-19 1 

-0.135219 0.00803473 -0.0661193 
0.0102006 -0.0539919 -0.027644 
-1.60672e-18 8.42273e-18 1 

-0.109342 -0.35685 1.14929 
0.348708 0.111841 0.307725 
3.70893e-18 -1.0597e-18 1 

-0.148196 0.0676542 -0.544251 
-0.0211889 0.0529536 -0.235425 
-1.94306e-17 -1.3588e-18 1 

-0.0673532 -0.0397571 0.0775364 
-0.0288979 -0.119397 0.350005 
1.54317e-18 -8.92836e-18 1 

-0.12084 -0.0191442 -0.257521 
-0.00547289 -0.00374364 0.307434 
-5.88236e-18 4.20589e-18 1 

-0.086299 0.000685819 0.165362 
0.0111014 -0.0447272 -0.525762 
-1.4029e-17 3.44407e-18 1 

-0.0858463 -0.00883615 -0.208688 
-0.0422905 -0.142853 -0.0529716 
-5.73338e-19 -6.64713e-18 1 

-0.0892043 -0.0261905 0.0662778 
0.0963465 -0.0500612 0.0679181 
-3.16823e-18 -1.99648e-17 1 

-0.0954114 -0.00743108 1.50229 
0.00162206 -0.0193059 0.921504 
1.19235e-17 9.50689e-18 1 

-0.0977252 0.00453124 0.0344115 
-0.0738989 -0.0547229 -0.0394777 
-6.55934e-18 -4.9195e-18 1 

-0.0700541 -0.0267465 -0.128628 
-0.0174595 -0.0477976 0.48299 
9.24365e-18 7.55143e-18 1 

-0.319769 -0.0367195 0.0316465 
-0.0280676 0.00240652 0.0585141 
-9.65986e-19 -2.01477e-17 1 

-0.100753 0.0145503 0.252183 
0.000140457 -0.0586674 -0.42064 
-2.20157e-18 2.35033e-18 1 

-0.0873661 0.0389232 -0.00525366 
-0.0485885 -0.0917675 0.143965 
-3.37824e-18 -1.15376e-17 1 

-0.0898543 0.00108837 -0.0414766 
-0.000461106 -0.0553714 -0.216272 
-9.32922e-18 -6.19399e-18 1 

-0.2182 0.0230131 0.678404 
-0.0619288 -0.0493499 0.107695 
-1.42981e-17 1.13226e-18 1 

-0.0603031 0.00140614 -0.0161186 
-0.0315271 -0.125853 -0.0092772 
-1.18842e-17 4.45659e-18 1 

-0.131702 0.0488895 -0.241253 
0.00548686 0.0254351 -0.139145 
-1.55392e-18 -3.57402e-18 1 

-0.135627 0.172449 0.265896 
-0.102002 -0.011965 -0.218008 
-9.98826e-19 2.09403e-18 1 

-0.0754459 -0.0589801 -0.0858013 
0.00531351 -0.033713 -0.214556 
4.84565e-18 4.26083e-18 1 

-0.181775 -0.246331 -1.32586 
0.381044 0.138857 1.23906 
4.24594e-18 6.47685e-19 1 

-0.115331 0.0179222 0.0276713 
-0.0115722 -0.00348308 0.00255733 
-7.46993e-18 4.46962e-18 1 

-0.112268 0.0463187 0.0944786 
-0.020909 -0.0520512 0.00400398 
8.44644e-18 2.46153e-17 1 

-0.122116 0.00455448 0.15592 
-0.0182119 -0.0584965 -1.19843 
4.05731e-18 -5.26228e-18 1 

-0.124538 -0.0286851 -0.964739 
-0.00562515 -0.0135793 0.122598 
-5.78361e-20 -8.63686e-19 1 

-0.148318 -0.0350095 0.043743 
0.019116 -0.0116329 -0.103877 
-2.23462e-18 -1.42203e-18 1 

-0.103737 -0.169325 1.03993 
-0.00160514 -0.0363065 -0.0138424 
1.27058e-18 3.10403e-18 1 

-0.050148 -0.00419539 -0.0441761 
-0.0117334 -0.127941 -0.0372879 
-1.91919e-17 -2.56985e-18 1 

-0.081564 -0.0524395 -0.269555 
-0.0558775 -0.0491379 0.0444311 
-3.05181e-18 -1.46778e-17 1 

-0.196537 0.173652 -0.131473 
0.147603 0.665731 0.587087 
-1.00803e-18 1.25603e-17 1 

-0.104387 -0.0771789 -0.475136 
0.0474001 -0.00546028 0.0456635 
8.76508e-18 1.13159e-18 1 

-0.101785 -0.0868169 -0.261931 
-0.0106454 -0.053573 -0.128766 
4.29769e-18 -1.88931e-17 1 

-0.136333 0.0116894 0.259716 
-0.0138352 -0.0303993 -0.556381 
-1.33537e-18 -9.68145e-19 1 

-0.102814 0.0356496 0.0296194 
-0.010225 0.038897 -0.0314792 
-5.18164e-18 -2.21849e-18 1 

-0.142957 0.0105547 -0.0718308 
-0.0219564 0.022279 0.208564 
5.07359e-18 -1.85381e-18 1 

-0.150237 0.017871 -0.0644161 
0.0190553 -0.141757 -0.0153092 
-3.10468e-17 1.22592e-17 1 

-0.161989 0.0360536 0.0418971 
0.0995095 0.0810233 0.45861 
-9.06491e-18 1.71498e-17 1 

-0.11399 -0.00998131 -0.753463 
-0.0326609 -0.0705034 -1.96187 
7.56789e-18 -2.8041e-18 1 

-0.138785 -0.0190942 0.0722531 
-0.0221882 -0.0821731 0.0661073 
4.62979e-18 9.88283e-18 1 

-0.720206 -0.444691 -0.140982 
0.601766 0.506252 0.430652 
5.60438e-18 -1.27738e-17 1 

-0.0648852 0.00446185 0.0356962 
-0.0114872 -0.0735806 0.101162 
1.4743e-17 -3.205e-19 1 

-0.114998 -0.0196401 0.128532 
0.00514218 -0.0538957 0.196425 
3.15695e-18 1.36801e-17 1 

-0.0886747 -0.0330841 0.163423 
-0.0374702 -0.0497792 -0.34783 
-1.7876e-17 7.03743e-18 1 

-0.0986412 0.00508578 -0.588349 
-0.0257827 -0.0436298 -0.171558 
2.27172e-18 -9.42404e-18 1 

-0.0718454 0.0531916 0.00736016 
-0.0606277 -0.0951223 0.00920685 
3.63311e-18 -6.14113e-18 1 

-0.0188669 -0.479383 -0.306721 
0.392836 0.0598206 0.253294 
6.52105e-19 8.98682e-18 1 

-0.128795 0.0614298 -0.670175 
-0.0434004 -0.03396 0.166341 
-7.92536e-18 2.11482e-18 1 

-0.429016 -0.0750183 -0.119948 
0.0574568 0.0967463 0.403281 
5.61176e-18 1.40608e-17 1 

-0.133671 0.0245185 0.388132 
0.0132652 -0.0412929 -0.040351 
9.74945e-18 1.06358e-17 1 

-0.623096 0.0544612 1.31339 
-0.267897 0.364116 -0.198858 
-9.17076e-18 2.91797e-18 1 

-0.048621 -0.0408519 0.0344941 
0.0437688 -0.00951814 -0.00690836 
1.53039e-17 -7.27299e-18 1 

-0.0420344 0.0331669 -0.111035 
-0.0189941 -0.0205685 0.105103 
2.06317e-18 -1.20351e-18 1 

-0.140482 -0.00847146 -0.0774199 
0.0167782 -0.00412582 0.29628 
1.4123e-17 1.91732e-17 1 

-0.156867 -0.108476 -0.142942 
0.155837 -0.0140183 -0.293251 
5.2566e-18 6.00754e-18 1 

-0.342229 0.156189 -0.0356553 
-0.0518235 0.150184 0.44695 
1.31192e-18 -2.8425e-18 1 

-0.60483 -5.59987 -0.615225 
0.0479772 0.217232 0.605913 
-3.98609e-18 -1.89728e-17 1 

-0.114584 0.0220908 0.0758588 
0.0174933 -0.0761836 -0.179857 
3.26042e-18 1.50855e-18 1 

-0.134495 0.0359952 -0.0922026 
0.0082397 -0.0415894 -0.0482257 
2.33669e-18 -2.2942e-18 1 

-0.119271 0.0304706 1.89662 
0.00151582 -0.0823474 0.487542 
-3.60144e-18 -2.29648e-18 1 

-0.136402 -0.038786 0.137723 
-0.0722739 -0.0342893 -0.0863849 
1.04134e-17 1.02859e-17 1 

-0.11574 -0.051795 -0.0528598 
0.0510797 -0.0440236 0.210341 
2.20611e-18 1.12144e-17 1 

-0.204069 -0.337676 -1.03194 
0.356514 0.0704071 -0.371737 
-1.67435e-18 -5.45386e-18 1 

-0.118087 -0.0427063 0.024213 
-0.00340254 -0.0587815 -0.0225629 
3.98955e-18 8.45156e-18 1 

-0.110425 0.0549809 0.536869 
0.00935877 0.00606078 0.212409 
-1.5319e-18 -7.48035e-18 1 

-0.131539 0.0430424 -0.0578919 
0.00368451 -0.030587 -0.00052738 
1.36558e-17 6.82723e-17 1 

-0.112413 0.0287097 0.0421434 
-0.0321085 -0.0433702 -0.172392 
5.99632e-20 -1.31888e-18 1 

-0.150243 -0.084554 -0.201011 
0.190538 0.0716266 0.0161291 
-1.15197e-18 5.67344e-18 1 

-0.0880941 -0.31268 0.276234 
0.273195 0.0270393 -0.535703 
4.7747e-18 2.03778e-18 1 

-0.0816863 0.010285 0.100874 
-0.0455781 -0.0446567 -0.149877 
-5.18433e-18 -2.40333e-18 1 

-0.102754 -0.0198863 -0.355788 
0.016371 -0.0325337 -0.822658 
3.10263e-18 -2.91271e-19 1 

-0.155833 -0.0118747 -0.2015 
-0.0172561 -0.0195876 -0.0466382 
8.4366e-18 2.37279e-18 1 

-0.0960711 0.0040347 -1.55953 
-0.00287223 -0.0413626 0.611282 
-4.48439e-18 -6.87727e-18 1 

-0.09272 0.00632585 0.11553 
0.0122401 -0.00636219 0.214034 
-2.86225e-17 3.67971e-18 1 

-0.104442 -0.0132681 0.0622828 
0.0159591 -0.0751701 0.312186 
1.01537e-17 6.41873e-18 1 

-0.104356 0.00213516 0.183051 
0.0347034 -0.0516822 0.0375376 
-3.10379e-18 3.72455e-18 1 

-0.366716 0.108461 0.398086 
-0.168767 0.00392714 0.0911813 
4.62795e-18 1.4069e-17 1 

-0.103981 0.00255905 0.345649 
-0.0353999 -0.017653 0.580209 
9.52063e-18 -7.03135e-18 1 

-0.125746 0.0580852 0.0933872 
0.05913 -0.113539 -0.102293 
8.35285e-19 1.89986e-18 1 

-0.13414 0.00945719 -0.360572 
0.0180636 -0.0666779 -0.068924 
-6.19573e-19 5.17526e-18 1 

-0.12557 0.0459304 1.16631 
0.0308273 -0.0430479 1.17907 
3.99572e-19 -3.58016e-18 1 

-0.126592 0.029994 0.599402 
-0.000144848 -0.0288135 -1.07433 
-2.72742e-18 1.16203e-17 1 

-0.066763 0.0364386 0.00162412 
-0.0194663 -0.115215 -0.0199733 
1.41033e-18 -7.21245e-18 1 

-0.170242 0.0353823 0.216784 
0.0567306 0.0191034 -0.286455 
1.098e-17 1.4914e-17 1 

-0.129483 0.0339583 0.00941114 
-0.022614 -0.032028 0.104267 
1.24134e-17 -5.34015e-18 1 

-0.0996445 -0.0134818 0.291701 
0.00553651 0.00409514 -0.736367 
4.01919e-18 2.27315e-18 1 

-0.10232 0.0255867 0.00896664 
-0.0564721 0.00317253 -0.0377317 
-1.20265e-17 5.69113e-18 1 

-0.110945 0.0399649 -0.107316 
0.0315752 -0.0458421 -0.053168 
-7.06211e-18 2.89728e-18 1 

-0.125987 0.0751139 0.0974878 
-0.0210286 -0.0217964 -0.0662457 
9.58064e-18 -2.35831e-18 1 

-0.129151 0.038822 -0.0492755 
0.0103023 0.00735878 0.191661 
-2.04509e-18 1.75806e-18 1 

-0.211318 -0.120955 0.113833 
0.15429 -0.00794846 0.0892901 
5.13174e-18 7.10549e-18 1 

-0.158383 0.0309295 0.0702897 
-0.02292 -0.0419664 0.17997 
4.81208e-18 8.67752e-18 1 

-0.0776501 0.0100429 0.040016 
-0.0527767 -0.00205858 -0.204162 
1.57771e-17 -5.03128e-18 1 

-0.120761 0.0352524 -0.0805975 
0.0257193 -0.0334663 0.104202 
8.93344e-18 -2.719e-18 1 

-0.0915677 -0.00601221 0.978363 
-0.0184441 -0.06026 -0.0497281 
-5.30999e-18 -3.95868e-18 1 

-0.100741 -0.022319 -0.0592884 
-0.0293551 -0.115227 -0.069431 
3.98749e-19 -1.17853e-17 1 

-0.102695 -0.0191242 0.0600993 
0.0307204 -0.0333102 -0.0556666 
-8.43724e-18 9.48158e-18 1 

-0.122008 0.0269895 -0.200211 
-0.0156632 -0.00420165 0.0343723 
3.46536e-18 2.26765e-18 1 

-0.0779547 -0.0629267 0.149394 
0.0224406 -0.00339072 -0.196123 
6.62178e-19 -3.69425e-18 1 

-0.107464 0.0256634 0.00758372 
0.0182404 -0.0299313 -0.32965 
2.0569e-18 -9.34954e-18 1 

-0.349997 -0.0665194 -0.162659 
0.121084 0.242799 0.728053 
5.09607e-18 4.1364e-18 1 

-0.225174 0.0558638 0.286761 
-0.0222392 0.0701188 -0.0227122 
-4.4744e-18 4.09244e-18 1 

-0.10856 -0.0097388 -0.483242 
-0.00227816 -0.0310291 -0.453409 
2.6953e-18 5.38974e-18 1 

-3.30877 3.65628 -5.63985 
-1.18914 1.72924 -2.2588 
8.54235e-18 -1.03932e-17 1 

-0.118601 0.0164989 -0.281264 
-0.0382072 0.00182255 -0.201197 
1.53139e-18 4.32579e-18 1 

-0.0740267 0.0187037 0.0270333 
-0.0161828 -0.0105881 0.0778843 
4.61426e-18 -5.24348e-19 1 

-0.174261 -0.0966572 0.220579 
0.0789028 0.0144773 -0.345661 
-6.56622e-18 -7.64825e-18 1 

-0.100165 -0.0128901 0.0694979 
-0.000147718 -0.0469428 0.311008 
2.25276e-18 6.70333e-18 1 

-0.0789345 -0.0345454 -0.00295816 
0.0824142 -0.0691073 0.128502 
-3.60315e-19 5.88514e-18 1 

-0.0626 -0.0952232 0.0298111 
0.0452261 -0.0798579 -0.069076 
3.19511e-18 -1.19817e-18 1 

-0.13717 -0.028377 -0.0787544 
0.0289279 -0.054924 -0.0472777 
5.24419e-18 -3.95788e-18 1 

-0.0760455 -0.0425681 0.110365 
0.0572824 -0.0151054 0.055951 
3.79293e-18 -8.12167e-18 1 

-0.0951367 -0.0329942 0.0974315 
-0.0165556 -0.0401668 -0.125416 
9.04402e-18 7.76132e-18 1 

-0.0634599 -0.0453124 -0.163627 
0.0435794 -0.0228372 0.0895819 
5.6632e-18 -1.55064e-18 1 

-0.0737556 0.0254732 -0.197508 
-0.0409839 -0.0155991 -0.13816 
-3.21357e-18 4.0066e-18 1 

-0.183086 -0.428902 0.784655 
0.0778575 0.180459 -0.645557 
-8.67111e-18 3.35094e-18 1 

-0.237442 0.0395105 0.32684 
-0.0202644 -0.12985 -0.022926 
2.73113e-18 -5.46226e-18 1 

-0.106075 0.00734803 1.04973 
-0.0682472 -0.112923 0.0577341 
-3.41159e-18 2.19807e-18 1 

-0.105869 0.0352075 -0.0939353 
-0.048545 -0.0458365 -0.378734 
-7.64443e-18 7.7323e-18 1 

-0.109637 0.0259198 0.187078 
-0.0651136 -0.0226995 0.054463 
-1.14283e-17 -2.73703e-18 1 

-0.081544 -0.0411002 -0.0156032 
0.00285694 -0.00476945 0.109521 
-9.46574e-18 -2.31295e-18 1 

-0.182117 0.0391342 0.0936696 
0.0150212 -0.0315526 0.146747 
2.59007e-18 -3.45343e-18 1 

-0.113017 -0.0728435 -0.277064 
0.0348808 -0.0482556 1.47039 
-2.65242e-18 -8.89961e-18 1 

-0.103262 0.000673105 0.36733 
-0.00271647 -0.0177379 0.129776 
-3.45721e-18 4.03914e-18 1 

-0.0909908 -0.0225581 0.136276 
0.00106878 -0.0527881 0.0287199 
1.09177e-17 2.14533e-18 1 

-0.212412 -0.019572 -0.816118 
0.0180784 0.0646506 12.9529 
-3.29503e-18 7.33987e-19 1 

-0.150303 -0.021921 -1.64463 
0.0942975 0.00157578 -2.27199 
4.55392e-18 -1.68098e-19 1 

-0.117291 -0.0367391 0.120392 
0.012205 -0.0210867 -0.129525 
4.52101e-18 1.71111e-18 1 

-0.289 -0.127263 -1.49451 
0.0210316 0.474556 -2.44375 
-5.48965e-19 7.50876e-18 1 

-2.37311 2.20097 13.1482 
-0.557681 0.793936 19.707 
6.20989e-18 4.97862e-18 1 

-0.198236 -0.00070584 -1.35789 
-0.0501449 0.0372695 1.87143 
-1.4658e-18 -5.76105e-18 1 

-0.13111 -0.0243418 0.0845949 
-0.00760075 -0.0814681 0.0264556 
1.62288e-17 1.17527e-17 1 

-0.0993837 -0.0934964 0.530897 
0.0718546 -0.0133885 0.0764577 
4.03073e-18 -2.14132e-17 1 

-0.184041 0.119118 -0.885475 
-0.0188778 0.181725 -1.58924 
5.03813e-18 -1.85571e-17 1 

-0.12876 -0.0420053 0.0449798 
0.0431007 -0.0552761 0.387209 
-6.80657e-18 4.38295e-18 1 

-0.749262 0.0527767 -0.389493 
-0.0733275 0.156053 0.65412 
-2.16704e-17 7.37717e-18 1 

-0.109178 0.0164991 -0.0593594 
0.0230524 -0.0443513 0.0434136 
1.29664e-17 4.14704e-18 1 

-0.121241 -0.00126739 0.0501842 
-0.0158386 0.0111045 0.148991 
-2.38493e-18 5.46265e-18 1 

-0.0561787 -0.0490538 0.13563 
0.00685271 -0.0913905 0.374798 
2.05548e-17 1.89051e-17 1 

-0.166273 -0.0185015 -0.0159766 
0.00889295 -0.0144933 -0.304277 
-3.46069e-18 6.76625e-18 1 

-0.0744277 -0.00140286 0.00175735 
-0.0289661 -0.0622817 0.0378079 
2.67019e-18 1.08021e-17 1 

-0.0668265 0.00256485 -0.148645 
0.0224945 -0.0206269 -0.0220596 
6.16214e-18 2.53614e-18 1 

-0.113111 0.0311567 0.367012 
-0.0160157 -0.041711 0.182353 
1.15387e-17 -1.17289e-18 1 

-0.147242 -0.0323452 -0.0606425 
-0.0202524 0.014077 0.390817 
2.25255e-18 5.63138e-19 1 

-0.074654 0.0443371 -0.090477 
-0.0902168 -0.0444081 -0.106889 
1.76805e-18 -8.64379e-18 1 

-0.121423 -0.0100323 -0.00442766 
-0.0385685 -0.0771239 0.0457676 
4.1635e-18 -1.40343e-19 1 

-0.072857 -0.591317 0.187897 
0.622072 0.235233 0.953625 
1.4081e-17 3.97156e-18 1 

-0.107726 -0.0201051 -0.0152976 
-2.14104e-06 -0.0523332 -0.14317 
2.21273e-19 9.98189e-18 1 

-0.161675 -0.0296085 0.160091 
-0.0199208 0.0324374 -0.00259503 
1.73617e-17 -8.9952e-18 1 

-0.135402 0.0641648 -0.0550035 
-0.0183354 -0.0794306 -0.0392321 
3.88066e-18 4.55977e-18 1 

-0.0835224 0.0102337 -0.0740637 
-0.0300276 -0.0028242 -0.140592 
-2.42355e-18 8.6976e-18 1 

-0.251765 0.0848962 0.947227 
-0.157087 -0.0018717 -0.00532464 
5.12787e-19 2.17892e-17 1 

-0.0644367 -0.00770552 -0.0534077 
-0.0359889 -0.0602699 0.0875348 
-2.14376e-19 -1.37308e-17 1 

-0.0984461 0.0118022 -0.456545 
0.00146031 -0.0765905 3.20618 
-8.49266e-20 3.84596e-18 1 

-0.195184 -0.0546588 0.00315662 
0.128167 0.0355494 -0.240484 
1.26235e-18 -2.99807e-18 1 

-0.12958 -0.0158778 0.110898 
-0.0538533 -0.0479422 0.185002 
-2.97105e-18 -1.48552e-17 1 

-0.151924 -0.00814248 0.314849 
-0.0298466 -0.014928 -0.107755 
7.95505e-19 -1.73924e-18 1 

-0.613524 -0.921923 0.168535 
0.381604 0.718609 -1.10361 
6.52604e-19 2.99448e-17 1 

-0.0996851 0.00928444 0.197006 
-0.00680303 -0.054814 -0.166465 
7.71887e-18 2.90278e-18 1 

-0.2909 0.0367055 0.276377 
0.00429809 -0.0263962 -0.588374 
6.07831e-18 -5.40294e-18 1 

-0.419188 -0.266777 -0.374074 
0.0192016 0.172304 -0.370093 
1.45963e-17 2.51525e-19 1 

-0.118011 -0.0895613 -0.0918981 
0.0714139 -0.0615721 -0.0959953 
-5.54843e-18 7.19449e-18 1 

-0.219444 -0.0386055 -0.295989 
0.0294583 -0.0588845 0.0698287 
-1.06896e-18 1.26025e-17 1 

-0.204943 -0.0219439 0.690883 
-0.0214898 0.0649798 0.169019 
-6.87378e-18 -2.12462e-17 1 

-0.390844 -0.101427 -0.669965 
0.302194 0.0421769 0.890148 
1.12257e-17 -3.92164e-18 1 

-0.134751 0.0273597 0.0898719 
-0.0352443 0.0248681 -0.205113 
-1.237e-18 6.58546e-18 1 

-0.0993568 0.127539 0.0432381 
-0.0812056 -0.066354 -0.141636 
2.5288e-18 -9.23984e-18 1 

-0.0865085 0.0323396 -0.237487 
-0.0377656 0.00305094 -0.214436 
1.46232e-18 1.0675e-17 1 

-0.0994907 -0.0416612 -0.0899304 
-0.0526847 -0.062708 0.314711 
-4.01972e-18 -5.60645e-18 1 

-0.124481 0.0817171 -0.214213 
0.0655118 0.0100135 -0.13444 
4.2912e-18 -2.36091e-19 1 

-0.134109 -0.106859 -0.115506 
0.029118 0.0355671 -0.217864 
4.60841e-18 -9.65571e-18 1 

-0.130703 0.0131019 0.30886 
-0.0207703 -0.00766847 0.046577 
-9.82935e-19 7.09117e-18 1 

-0.747349 -0.0787712 -0.76505 
0.0706568 0.308332 0.622909 
1.36868e-18 7.13669e-18 1 

-0.296532 -0.111422 -0.311263 
-0.048631 0.0407616 0.0024918 
-1.08398e-17 -4.6237e-17 1 

-0.208393 0.119464 0.134091 
0.0940006 0.00402137 -0.11404 
4.3287e-18 7.35683e-18 1 

-0.0936425 -0.0163956 -0.084331 
-0.0324448 -0.0402575 -0.0102733 
1.33458e-17 -7.52099e-19 1 

-0.0973034 -0.0179339 0.119082 
-0.00211844 -0.030485 0.559474 
1.05128e-17 3.74771e-18 1 

-0.0711236 0.0236887 -0.156503 
0.00847384 -0.0286375 0.203726 
9.46508e-18 7.44092e-18 1 

-0.199271 -0.387232 -0.582305 
0.410987 0.0520381 0.654116 
-5.29488e-18 -1.00855e-18 1 

-0.191838 0.195851 0.0874938 
-0.218841 0.115198 -0.636342 
1.45227e-17 1.75729e-17 1 

-0.0772448 0.0388598 0.19582 
-0.0482976 -0.0405735 0.113121 
-1.71517e-18 -3.15748e-18 1 

-0.125738 -0.0226797 0.0864611 
0.0316864 -0.0411814 -0.584394 
-2.4345e-18 -3.73512e-18 1 

-0.0913332 -0.000305411 0.306696 
0.0779322 -0.0551793 0.425217 
7.81358e-18 -9.69098e-18 1 

-0.0915698 -0.00482551 0.923056 
-0.0110876 -0.0332191 -0.747249 
1.45399e-18 1.68861e-19 1 

-0.165054 0.0152702 0.418781 
0.0128221 0.00490922 -0.0695179 
8.26568e-19 1.53816e-18 1 

-0.0423181 -0.0489214 -0.398679 
0.0228531 -0.0288413 -0.00561398 
2.13814e-17 -9.37579e-18 1 

-0.118475 -0.0209877 0.0766179 
-0.00261639 -0.133635 0.0320004 
-2.53035e-18 1.25161e-17 1 

-0.0869142 -0.117525 0.121072 
0.0601548 -0.0209777 0.326327 