# vtk DataFile Version 3.0
Output file generated by Yade's KinematicLocalisationAnalyser
ASCII
DATASET UNSTRUCTURED_GRID

POINTS 13483 float
600.751 30.8008 0.523071
723.878 76.137 0.442925
118.721 6.1525 -0.532079
755.439 5.65118 0.339867
495.416 7.76273 0.322254
312.14 35.3359 -0.471756
154.247 6.96765 0.454693
566.481 10.7035 0.161518
492.438 24.7673 -0.209066
700.035 11.9714 -0.585879
207.887 8.79143 0.12647
254.509 6.31213 -0.254374
643.829 35.2376 -0.237008
625.298 18.4336 -0.186301
135.708 17.8349 0.523748
218.632 34.8015 0.401479
215.201 12.9598 -0.292146
286.352 9.73018 0.3957
338.609 32.6932 -0.496687
519.265 8.70462 0.339907
408.351 36.9376 0.095987
584.569 47.1494 0.322428
750.184 40.4757 -0.503418
682.665 53.1303 -0.509509
456.186 16.796 -0.404943
238.274 44.5385 0.141317
487.29 28.9538 -0.464312
582.755 20.6704 0.236407
44.6987 15.8985 -0.39552
693.328 31.5623 0.345393
478.951 5.05085 0.369617
16.2216 23.9376 -0.324323
737.941 80.466 -0.251402
491.259 2.5751 0.469251
77.2162 44.9886 -0.110375
517.698 31.2947 0.329301
526.026 16.7158 0.436518
341.376 22.5879 -0.23109
529.483 25.7123 0.320022
347.759 33.4503 0.498036
238.557 14.7535 -0.310887
431.896 35.8436 0.0896762
661.693 7.36866 0.299841
190.116 6.26509 0.374203
55.0203 7.0204 -0.119807
68.0926 8.98724 -0.303482
672.755 14.5956 -0.54349
23.0064 11.877 -0.272868
604.25 51.742 0.395529
661.825 37.6678 0.331763
170.306 32.552 0.328429
727.588 60.9866 0.165155
34.5547 28.5619 0.119331
529.586 3.02186 0.323202
140.308 7.4668 -0.573214
589.21 37.2979 0.410704
499.628 28.4401 -0.169416
173.032 0.947132 -0.276419
32.2213 2.38807 -0.316285
346.492 17.8876 0.275786
611.872 53.6859 0.131753
458.93 34.8143 -0.17473
396.738 1.02894 0.201706
681.071 7.29617 0.591909
26.2341 43.7746 -0.235773
253.86 30.7462 0.286014
701.284 6.30938 -0.290681
653.336 59.2873 -0.154824
415.055 8.64029 -0.51762
567.089 4.04076 -0.500346
714.288 45.0728 0.406996
129.173 7.79533 0.269543
494.409 26.6892 -0.164058
475.449 15.7164 -0.120023
292.502 16.7914 -0.349066
20.2894 13.862 0.308008
748.595 76.4873 0.339207
331.008 39.2026 -0.291503
663.912 26.3847 -0.409006
671.811 19.5984 -0.224519
742.864 15.0879 0.297533
462.292 35.7836 0.203819
91.5352 39.1857 -0.278731
670.836 48.1853 0.274174
639.767 46.6177 0.160459
758.115 47.8628 -0.120476
738.638 0.735846 -0.533814
289.205 28.7918 0.473725
617.096 8.49668 0.162169
24.1577 5.51035 -0.609182
132.025 39.1481 -0.167881
509.371 15.5351 0.209425
746.188 63.794 -0.509001
193.817 29.142 -0.232805
43.9843 34.6738 0.312827
490.138 1.29103 0.136602
233.983 8.96399 -0.383637
708.606 57.5241 0.264967
735.028 56.7418 0.264991
359.972 21.4526 -0.258637
161.987 27.0832 -0.430397
547.243 39.1153 0.446201
378.349 15.8258 -0.446369
412.129 29.9212 0.120217
376.383 4.58467 0.421967
545.625 10.8708 -0.103258
757.866 16.3272 0.236876
79.4678 39.8439 -0.392127
334.164 4.99092 -0.215627
560.064 9.6377 -0.375903
358.718 44.3411 0.451501
25.6666 25.5333 -0.508662
30.0339 5.90568 -0.295562
567.539 32.6749 0.4036
502.378 25.7931 -0.164732
26.1598 37.5919 -0.433549
92.6947 31.2084 0.234478
324.091 16.0339 -0.286886
596.998 19.4299 0.169866
473.669 39.5375 0.298656
717.841 11.1812 -0.45688
710.317 7.84876 -0.210626
386.404 37.5249 -0.107517
630.075 31.023 0.148627
236.969 17.2242 0.494585
329.597 3.8769 0.458707
102.989 32.0544 0.387235
116.071 25.0539 0.323904
542.612 39.9075 -0.0980717
305.637 19.014 0.461646
690.67 37.0269 0.120146
657.775 57.3223 0.110783
480.345 21.5023 -0.424321
746.91 46.3035 -0.24378
428.685 23.3326 -0.255558
276.021 24.5036 0.303042
660.752 44.4208 -0.304205
278.32 28.5538 -0.449359
577.052 12.7953 -0.210769
332.015 35.9066 0.207336
503.852 12.0992 0.51932
366.683 32.1925 0.0847082
430.726 16.7439 -0.111729
318.209 42.367 0.429099
190.013 30.1889 0.139904
728.604 75.8573 -0.157721
754.514 17.0015 -0.326698
6.0622 12.5184 -0.490076
434.765 22.3818 -0.435068
38.0774 22.8948 -0.0948964
376.839 31.7145 -0.342492
395.637 25.1637 0.262113
75.1214 12.1097 0.502186
51.7538 33.5004 0.423762
225.412 13.5828 0.422036
613.664 42.1945 0.493474
580.153 22.3733 -0.434417
75.0638 21.2004 0.449041
685.734 54.9438 -0.579683
735.536 28.7898 -0.675019
647.376 54.3205 -0.522394
677.153 3.49027 -0.669376
551.198 26.9048 0.426476
585.636 48.2272 -0.48733
512.614 18.9947 -0.407076
752.641 3.98693 0.354816
223.237 24.9578 0.160298
127.935 36.1958 0.231793
247.423 6.55006 0.396415
94.5136 4.46673 0.282339
64.4366 10.2286 0.223606
276.417 36.123 0.335713
16.3258 25.6832 0.413876
557.412 19.8702 -0.507955
603.362 46.4102 0.188969
464.502 21.9407 -0.403172
756.769 87.6059 0.357473
408.176 8.68021 -0.110374
437.401 37.2971 -0.430349
538.083 3.3582 -0.209218
22.8524 24.4767 -0.400701
578.66 4.94903 0.534879
547.859 4.2968 -0.324995
206.132 11.2886 0.490808
426.906 16.5643 -0.21335
312.528 6.30649 0.372993
389.744 19.2985 -0.320975
702.017 53.2309 0.107916
192.322 26.0909 -0.448901
733.009 6.35395 -0.440907
702.797 47.8969 -0.327488
384.917 10.4381 0.196612
698.697 2.26391 0.449311
604.428 28.5506 -0.434486
717.975 30.2175 0.465393
432.328 44.3995 0.278189
498.467 12.7192 0.399222
466.712 45.755 -0.228056
448.29 8.89127 -0.166677
650.656 52.3353 0.267302
649.594 46.8496 -0.346006
192.328 39.5163 -0.365981
741.007 15.9884 -0.135924
587.141 48.6823 0.262878
11.5776 16.8489 0.217086
409.661 25.4479 0.453184
187.397 23.5394 0.399256
93.2505 40.0695 -0.219511
746.174 60.3701 -0.406519
646.114 60.0989 -0.226211
320.811 25.8032 -0.386891
535.16 10.2476 0.325403
82.272 45.1841 -0.168887
248.252 26.0483 -0.503576
559.848 24.1102 0.402712
489.874 19.4011 -0.422873
263.947 0.880097 -0.339983
556.439 40.189 -0.380306
537.003 41.1536 -0.443533
483.834 34.9953 -0.308117
502.058 1.70692 -0.672564
685.167 19.0811 0.470851
179.724 12.6163 -0.207902
503.229 38.0799 0.453853
567.578 40.831 0.115432
73.3985 0.973522 0.276708
252.732 4.73906 0.186225
753.569 18.8636 0.148506
743.349 16.7688 -0.539698
759.206 23.6067 -0.694236
305.133 8.62201 -0.232496
719.293 35.995 -0.417034
409.824 41.9653 0.213337
452.419 0.798567 -0.421994
645.531 40.8135 0.445124
27.1427 31.1866 0.296528
333.105 41.8349 0.57155
253.58 2.87573 0.348159
742.154 79.5692 -0.173823
687.899 68.2631 0.102757
288.854 11.0794 0.247526
655.059 39.629 -0.0968065
562.012 2.61641 0.280291
545.646 6.46096 0.449395
97.2995 18.7338 -0.496358
304.994 1.0402 -0.228905
345.403 2.24015 -0.374361
14.0032 7.60691 -0.462619
4.46083 31.2675 -0.282819
161.849 19.193 0.405358
68.6067 42.0131 0.226605
66.9215 29.144 0.379841
426.541 14.6637 -0.432679
369.597 35.6437 0.478197
725.511 61.6454 -0.1494
19.6903 4.03161 0.266368
71.1323 7.00602 0.132267
622.298 43.5335 -0.132607
296.333 0.925031 0.377398
367.647 16.526 -0.0935976
236.508 4.73638 -0.384804
648.825 25.7004 -0.190409
455.45 8.35809 0.452019
721.821 37.5023 0.462
628.956 34.2207 0.321371
662.762 24.7737 -0.0720735
423.592 26.6147 0.557575
102.591 45.4438 0.322109
546.621 43.0229 0.0760473
717.377 21.2504 0.27434
238.814 30.7142 -0.271486
32.0949 17.5336 -0.21942
338.939 13.829 0.517487
108.201 41.1649 -0.463631
269.312 42.4226 -0.217173
429.087 1.60593 -0.336442
748.811 71.5249 0.359113
672.703 2.28298 0.57771
334.662 3.45099 0.573007
302.23 26.5852 -0.158283
465.643 42.6669 0.24404
82.2147 8.33923 0.471062
198.229 45.6515 0.379258
736.32 60.0953 0.393309
498.445 40.847 -0.0843452
200.733 41.7015 -0.303659
160.994 42.81 0.385225
759.392 41.7759 -0.587826
756.196 16.0518 -0.585222
610.16 3.29954 -0.642386
191.011 24.9724 0.115084
552.827 28.0157 0.114228
554.807 27.6724 -0.280497
412.738 5.69619 -0.142586
485.204 0.968604 0.409092
721.935 63.5441 -0.532514
85.5029 31.6117 0.214439
652.113 21.7758 -0.451137
276.153 15.6559 -0.367654
9.5462 2.34816 0.344977
126.599 38.0496 -0.205194
67.4642 23.4384 0.540182
687.158 39.398 -0.459657
744.356 87.4734 0.163735
186.234 28.8432 -0.19605
751.866 14.6671 -0.395207
45.4973 36.8542 -0.266909
91.5665 29.5288 0.194539
633.795 15.7691 0.37242
417.007 18.6532 -0.537432
522.753 16.7881 0.123488
239.313 28.6937 -0.184792
623.061 4.34124 0.62113
760.156 17.6859 0.474117
29.8027 32.2282 0.300835
272.008 7.79963 0.200498
223.084 15.2412 0.258072
1.05727 35.8191 -0.158978
226.393 14.6269 -0.377799
212.737 11.0695 -0.101739
215.24 26.5144 -0.282563
133.698 28.6093 0.225672
552.161 15.0122 -0.377648
167.63 14.2562 -0.362445
736.481 77.4444 0.229301
174.993 3.84158 0.512221
47.811 37.8497 -0.434469
698.403 63.0414 -0.514274
283.256 31.4446 -0.379518
665.105 34.419 -0.495241
757.659 76.6384 0.467981
303.184 9.24193 -0.105534
707.577 36.8205 -0.457133
331.623 2.50011 -0.435407
419.968 24.1962 0.344539
663.911 18.6987 0.559248
106.478 12.1125 -0.482032
487.164 3.92271 -0.535477
724.452 37.7905 0.188398
89.0217 7.75818 -0.242523
283.86 14.8485 0.199269
427.321 11.8984 -0.208546
752.974 5.8196 0.579857
401.676 1.99583 -0.535464
177.505 39.1879 -0.296948
720.691 21.4282 -0.529738
129.739 37.2132 -0.225048
264.942 31.5332 -0.388353
404.462 21.8796 0.21851
579.657 14.6195 0.38664
390.719 9.91003 -0.507508
460.903 29.0477 -0.427552
725.207 75.3385 0.436328
47.7625 11.3795 -0.126714
301.855 38.716 -0.257087
383.297 27.4216 0.339217
413.786 20.8337 0.286099
527.718 45.1308 0.0625991
716.878 58.6682 0.190583
653.64 47.8296 0.356152
227.206 34.5332 -0.387364
13.7886 32.0968 0.156049
648.154 48.4356 -0.136189
513.783 42.6899 0.466529
230.813 39.676 0.120595
672.006 42.67 -0.125588
151.494 9.33317 0.249003
370.098 21.6837 0.36704
467.443 43.7003 0.103652
417.914 19.9663 0.240792
719.991 75.4105 -0.290796
430.513 3.88217 0.532321
50.0876 25.4291 -0.282691
474.481 32.9317 0.336417
438.682 43.6073 -0.38752
742.152 73.4278 -0.236107
706.4 33.7333 0.2879
545.857 18.3508 -0.209921
734.026 69.9274 0.433007
295.916 2.20989 -0.467172
382.019 29.8821 0.506978
29.2672 39.3551 -0.333051
708.642 38.9929 -0.151264
611.439 21.3181 0.555239
467.243 0.804695 0.467393
126.52 4.68977 -0.359209
430.882 39.9408 0.109131
11.9908 0.902825 -0.316086
752.405 8.05107 0.242114
[...]
POINT_DATA 13483
TENSORS Strain_matrix float
-0.555981 0.0575514 0.0679734 
-0.03004 0.26298 -1.89912 
-1.45489e-17 -1.0777e-17 1 

-1.04321 0.82126 67.5946 
0.370151 0.599115 4.03953 
1.78775e-18 1.66586e-18 1 

-0.177819 -0.00105184 0.171942 
0.0351176 0.0111152 -0.0522499 
-9.18201e-18 6.17975e-18 1 

-1.1675 1.16224 1.24903 
-0.23811 0.411266 0.114858 
3.74052e-18 -9.04833e-19 1 

-0.290351 -0.0750187 -0.120985 
-0.042232 0.000927099 -0.109644 
2.65304e-18 -2.78569e-18 1 

-0.10893 -0.0320494 -1.06011 
0.0248491 -0.0135731 0.264116 
4.38603e-18 -1.42713e-18 1 

-0.125509 -0.00718474 -0.115377 
-0.0181579 -0.0852092 -0.277495 
1.1081e-17 1.00075e-18 1 

-0.136374 -0.051881 -0.0847971 
0.147038 -0.0400288 0.0255028 
-1.38407e-19 1.18108e-17 1 

-0.331215 -0.0375756 -1.13344 
-0.075291 0.0893243 -0.353011 
9.43116e-18 1.27382e-17 1 

-0.266429 -0.147113 -0.796759 
0.101141 -0.0532534 0.120762 
-8.7578e-18 4.97065e-18 1 

-0.0900391 0.0326482 -0.0602415 
0.0140667 -0.0776914 0.0936161 
3.07855e-18 8.8325e-18 1 

-0.115712 -0.0658813 0.213237 
-0.0497336 -0.0910653 0.06545 
-7.5988e-18 -1.44767e-17 1 

-0.456705 0.229073 0.399887 
-0.142703 0.21619 -0.337729 
-1.04923e-18 -6.52291e-18 1 

-0.309069 -0.14597 -0.0254426 
0.19448 0.00264994 0.168697 
-1.30741e-17 1.54173e-17 1 

-0.295876 -0.0655354 -1.76175 
0.0126973 0.00413363 -1.79232 
2.03508e-17 4.79649e-18 1 

-0.114914 -0.0375999 0.422002 
-0.0403601 -0.00212448 0.301841 
-3.2211e-18 8.659e-19 1 

-0.0993992 -0.0385385 0.0581329 
0.0119403 -0.108691 -0.0248433 
4.98319e-18 5.24546e-18 1 

-0.180895 -0.00977538 -0.0329046 
0.00846697 -0.0653076 -0.0309782 
-3.4092e-18 1.47425e-17 1 

-0.210253 0.0143937 -5.8749 
0.0241099 0.00916306 -2.61574 
9.50216e-19 -1.95456e-19 1 

-0.118204 0.0309618 0.202152 
-0.12555 -0.0423638 0.539932 
-1.86858e-17 -9.37315e-18 1 

-0.156638 -0.112871 0.331931 
0.224576 0.0112131 0.0234417 
4.72384e-19 -4.48765e-18 1 

-0.365734 -0.0470711 -0.518814 
0.0874479 0.111275 -0.161783 
-3.74957e-18 1.16778e-17 1 

-4.02771 1.45083 -33.0362 
-1.84127 1.06203 -16.4821 
1.20229e-17 2.36866e-18 1 

-0.238412 0.341236 1.387 
-0.509262 0.121719 5.56261 
3.86979e-18 -1.50976e-18 1 

-0.185684 -0.0572939 0.934871 
-0.0161055 -0.0250061 -0.307337 
1.31539e-18 -7.58881e-19 1 

-0.188562 0.0749068 -0.0118064 
-0.0521111 0.0609366 -0.124648 
1.52874e-17 9.63197e-18 1 

-0.242501 -0.124114 0.196373 
0.249983 0.0168149 -0.237472 
1.57223e-17 -8.40961e-18 1 

-0.580247 -0.0250153 -0.861523 
0.465249 0.208184 0.0905028 
4.55237e-18 -2.35467e-19 1 

-0.115933 0.0717158 1.06736 
0.0623901 -0.0823966 -1.02805 
5.01216e-18 2.9994e-18 1 

-0.297841 -0.270621 -0.0103951 
0.0619656 0.0594195 0.342158 
1.20622e-17 -1.68652e-17 1 

-0.128906 -0.00264112 -0.206722 
-0.146879 -0.170149 0.304414 
-1.96724e-17 3.02128e-18 1 

-0.169088 -0.0315772 -0.0664598 
0.0338833 -0.0566356 0.0609931 
-8.19986e-18 -8.48711e-18 1 

0.085951 -0.765779 1.21079 
0.570321 0.257639 -0.230583 
1.61496e-18 0 1 

-0.192542 0.0154339 0.0564824 
-0.0513238 0.0216252 -0.170012 
-7.4943e-18 4.40841e-18 1 

-0.0638688 -0.0839373 0.202031 
-0.00832978 -0.138388 0.429039 
-2.94318e-18 -4.7963e-18 1 

-0.340067 0.0940313 -0.452088 
-0.176398 0.142417 -0.124636 
7.28137e-18 2.09701e-17 1 

-0.143451 0.0247816 0.395661 
0.00670173 -0.00247218 -1.56144 
-2.9203e-18 3.8085e-18 1 

-0.118591 -0.0154945 -0.272282 
-0.032568 -0.139625 -0.132034 
9.00953e-18 -1.74233e-18 1 

-0.188558 -0.125089 -0.13632 
0.130752 0.025145 0.177836 
-2.22885e-19 -1.04477e-17 1 

-0.15573 -0.0133797 3.91864 
0.0311792 0.00274696 1.76728 
-4.0393e-19 9.60565e-19 1 

-0.123534 -0.00960813 -0.00140936 
-0.0813646 -0.0483373 -0.0349878 
5.04086e-18 -5.62974e-18 1 

-0.0992419 -0.189021 -0.209863 
0.274623 0.0290639 0.219694 
3.73741e-18 9.1463e-18 1 

-0.449015 -0.385648 -0.20696 
0.0302161 0.0367807 0.212707 
7.069e-18 3.00432e-18 1 

-0.136085 0.0547496 0.180597 
-0.0149579 -0.0266836 -0.431082 
2.37405e-18 -5.09722e-18 1 

-0.0841574 0.0433176 -0.0293142 
-0.0604994 -0.0836054 0.151153 
5.39824e-18 7.10477e-18 1 

-0.104073 0.000723164 -0.0481267 
-0.0119836 -0.046275 -0.244544 
-9.18155e-18 2.02759e-18 1 

-0.839232 0.213314 1.23295 
-0.605383 0.130941 0.628802 
2.3386e-17 3.74455e-17 1 

-0.0707174 -0.0116628 -0.0178175 
-0.0204116 -0.121255 -0.00505479 
-6.6691e-18 7.43129e-18 1 

-0.150864 0.0469233 -0.398169 
0.10008 0.0051621 -0.230217 
8.35041e-18 -3.75768e-18 1 

-0.282621 0.180131 2.60705 
-0.0767253 0.220406 -3.79788 
9.5409e-18 -4.79184e-18 1 

-0.0879947 -0.0905332 -0.23508 
0.0437661 -0.01491 -0.101768 
5.42968e-18 5.86405e-18 1 

-0.0509866 -0.428957 -0.496363 
0.54337 0.148943 0.73139 
-6.05181e-18 1.13118e-19 1 

-0.131364 0.0221588 0.00695428 
-0.0148514 -0.00488335 -0.000172995 
1.71319e-18 -4.58127e-18 1 

-0.150938 0.0565476 0.11019 
-0.0221198 -0.03986 -0.0850492 
3.31112e-18 -6.602e-18 1 

-0.17539 0.00456954 0.478307 
-0.0211162 -0.039793 -0.735059 
1.24208e-17 -4.77969e-18 1 

-0.208183 -0.440586 -1.50557 
0.315576 0.180168 0.776945 
1.28975e-17 -5.24382e-18 1 

-0.27745 -0.0182994 -0.470403 
0.0884855 0.0240163 0.426462 
-1.00059e-17 -1.31656e-18 1 

-0.113298 0.45433 0.151715 
0.00159841 -0.0645087 -0.256185 
1.81505e-18 -2.54151e-17 1 

-0.0668526 -0.0651395 -0.288558 
-0.0304481 -0.105563 -0.0952149 
-1.27258e-17 -7.28653e-18 1 

-0.0948288 -0.0666199 -0.260688 
-0.0355856 -0.051731 0.0348629 
-7.74249e-18 1.61889e-18 1 

-0.938094 -0.684001 0.0600669 
0.459626 0.74295 -0.812629 
-2.79313e-18 -2.24401e-17 1 

-0.0657421 -0.232505 -0.0145294 
0.0933024 -0.0464315 0.0618092 
3.0549e-18 3.45126e-18 1 

-0.119789 -0.0862468 -0.265377 
-0.0144954 -0.052678 -0.138379 
-3.64093e-18 6.53836e-18 1 

-0.341952 0.0175188 -0.014523 
-0.0841921 -0.0470218 -0.482627 
2.90787e-18 -4.3618e-18 1 

-0.150268 0.0271802 0.0692735 
-0.0159051 0.059187 -0.105642 
9.14204e-19 -9.61793e-18 1 

-0.172434 0.0171017 -0.0560157 
-0.0448348 0.0473479 0.294269 
-1.55167e-17 1.37323e-17 1 

-0.3522 -0.356408 0.81944 
0.151778 0.0665044 0.641016 
1.98347e-17 -9.91734e-18 1 

-0.623345 -0.392988 1.20692 
0.13372 0.431716 -0.599944 
2.82613e-19 2.71308e-18 1 

-0.132124 -0.00978275 -0.57059 
-0.0403698 -0.0697025 1.03843 
3.03577e-19 -8.90589e-18 1 

-0.325528 0.188267 -0.712506 
-0.207406 -0.0491646 -1.22861 
4.57809e-18 1.9721e-18 1 

-0.987094 -0.807515 1.30769 
0.640769 0.624788 -0.467142 
1.18678e-17 -4.79068e-18 1 

-0.102764 0.0295043 0.0517245 
-0.0552203 -0.0430359 0.118982 
1.74336e-17 -4.63363e-18 1 

-0.195669 0.116881 -0.519788 
-0.257766 0.0897821 0.00318147 
-3.19317e-18 9.8698e-18 1 

-0.205575 -0.0176742 0.117821 
-0.0330054 0.0988311 -0.609568 
-7.20601e-18 5.16431e-18 1 

-0.112827 0.0114331 -0.530728 
-0.0290475 -0.0385794 -0.210226 
1.86269e-17 -6.769e-18 1 

-0.145519 0.0246717 0.117463 
-0.0294884 -0.0741313 -0.105776 
5.23153e-18 1.02449e-17 1 

0.175046 -0.79637 -0.486595 
0.686736 0.252171 0.139255 
-9.04595e-18 1.37881e-19 1 

-0.123796 0.0830815 -0.65219 
-0.0528153 -0.0304788 0.149894 
1.4226e-17 -5.47155e-19 1 

-2.56344 -1.06638 -3.06659 
0.497438 0.64943 1.30075 
3.21892e-18 1.43041e-17 1 

-0.284841 -0.196002 0.230328 
-0.104892 0.0491726 -0.0457807 
-1.44012e-17 8.77094e-19 1 

-0.869616 -0.274974 1.29835 
-0.198719 0.36326 -0.174788 
-6.02251e-18 1.82728e-17 1 

-0.0475049 -0.17211 -0.930201 
0.110801 0.0708066 -0.690501 
-1.35376e-17 4.48001e-18 1 

-0.0569948 0.0253255 -0.113501 
-0.00556026 -0.015896 0.175117 
-9.30447e-18 9.51594e-19 1 

-0.516415 0.00337738 -0.0882591 
-0.0517669 0.219374 -0.631099 
1.32493e-18 1.10726e-17 1 

-0.37138 -0.130817 0.0442824 
0.121452 0.0823729 0.121239 
-1.27194e-17 -9.52796e-18 1 

-1.26135 0.498864 0.155881 
-0.247261 0.410311 0.662858 
1.84706e-17 1.3387e-17 1 

-1.00839 -6.59567 5.18909 
-0.0349766 0.795397 1.09662 
-6.31099e-18 5.38659e-17 1 

-0.137732 0.0334248 0.108697 
-0.00372244 -0.0824897 -0.150758 
2.48701e-19 -8.10766e-18 1 

-0.573053 0.258448 0.251407 
-0.14875 0.0946337 0.132108 
0 -2.17046e-17 1 

-0.132266 0.000910824 3.84969 
0.00231576 -0.0358023 -2.63509 
1.23732e-18 4.59375e-18 1 

-0.170961 -0.137723 -0.0428303 
-0.0415098 -0.0259668 -0.237146 
-5.1854e-18 -1.50544e-17 1 

-0.302599 0.149087 -0.357783 
-0.0272363 0.051261 0.0678549 
-5.52681e-18 1.6212e-18 1 

0.156799 -0.768908 -2.29012 
0.672602 0.245582 -0.587602 
-7.94528e-19 -5.99869e-18 1 

-0.128963 -0.0542399 0.0156865 
0.00887787 -0.0544763 -0.0205592 
-1.01405e-17 1.04574e-17 1 

-0.125088 0.0591057 0.635265 
0.00540997 0.0112928 0.222185 
-2.02595e-18 1.13588e-17 1 

-0.171812 0.12055 -0.0510376 
0.00568921 -0.0141422 0.11378 
-3.81902e-18 2.17721e-17 1 

-0.132971 0.0262211 0.0075893 
-0.0302679 -0.0408587 -0.276121 
8.87031e-19 -5.54984e-19 1 

0.0304926 -0.783228 -1.0223 
0.390356 0.133324 -0.198398 
-1.45117e-17 5.00267e-18 1 

0.0800911 -0.599864 0.183503 
0.545775 0.133722 -0.413495 
-1.43941e-18 1.41942e-18 1 

-0.127206 -0.00563661 0.0582366 
-0.0176108 -0.0239469 -0.0524743 
5.12704e-19 1.33624e-17 1 

-0.129683 -0.029268 -0.386335 
0.0132476 -0.0215141 -0.849472 
-3.86662e-19 -3.03643e-18 1 

-0.242015 0.107458 -0.802352 
-0.107807 0.0420862 0.107589 
7.21737e-18 -1.01739e-17 1 

-0.144358 0.00350542 -0.449996 
0.00205131 -0.0108915 -0.0477514 
3.32343e-18 3.77663e-18 1 

-0.159286 0.063008 0.374333 
0.0598686 -0.0331879 0.187164 
-7.94811e-18 -3.57826e-18 1 

-0.150968 0.0267848 0.314787 
-0.0345165 -0.0696533 0.766895 
1.08172e-17 8.186e-18 1 

-0.131612 -0.0321607 0.154584 
0.0429314 -0.0545934 0.0444867 
-9.81102e-19 -8.13282e-19 1 

-0.301155 -0.603742 -1.09191 
0.451247 0.208922 -0.531794 
1.08907e-17 -1.19936e-17 1 

-0.148489 0.0290084 0.146709 
-0.030684 0.0105257 0.535511 
1.05505e-17 1.9215e-18 1 

-0.148297 0.0659135 0.103805 
0.0694475 -0.11152 -0.0717544 
6.91398e-19 3.85275e-18 1 

-0.179275 -0.00489742 0.270339 
0.0818996 -0.0807083 -0.612008 
-7.81115e-18 1.38648e-17 1 

-0.128835 0.0496619 6.34622 
0.038181 -0.0215298 3.51636 
9.02282e-19 7.00751e-18 1 

-0.142684 0.021083 0.0224586 
-0.00237089 -0.019985 -1.66437 
4.62207e-19 -4.17831e-18 1 

-0.0829438 0.0688496 -0.0549698 
-0.0656118 -0.0850991 -0.0902577 
5.46331e-18 -7.82802e-18 1 

-0.326677 0.209519 -0.450596 
0.0691926 0.147711 -0.925137 
6.12347e-18 -1.64459e-17 1 

-0.18707 -0.0157764 -0.2639 
-0.0364777 0.0257869 -0.00785865 
2.03795e-18 -5.89878e-18 1 

-0.12509 -0.00716199 0.157963 
0.00271763 0.0114613 -0.847687 
3.01783e-18 -4.18095e-18 1 

-0.141244 0.0182467 0.168638 
-0.054586 0.0166316 -0.0496558 
1.14978e-17 8.91077e-18 1 

-0.14239 0.0641744 -0.106982 
0.00452414 -0.0453452 -0.057464 
-8.50107e-20 2.55032e-18 1 

-0.568592 -0.597576 -0.607114 
0.120087 0.236014 0.152961 
3.92195e-18 1.91884e-18 1 

-0.156573 -0.0558511 0.361757 
0.124305 0.0626652 0.821366 
-9.10733e-18 -3.03853e-18 1 

-0.590714 -0.0735155 0.0782521 
0.428313 0.0660831 0.776766 
-3.18227e-18 1.72014e-18 1 

-0.359114 -0.114954 -0.267688 
0.126754 0.0930651 0.636175 
-2.74654e-18 2.98196e-18 1 

-0.0890979 0.00703793 0.0315843 
-0.0278602 0.0106374 -0.147767 
-3.79883e-18 -1.50866e-18 1 

-0.17921 -0.068254 0.0714841 
0.0711121 -0.0706389 0.139841 
-6.99484e-18 1.42016e-17 1 

-0.113723 -0.0217193 1.1207 
-0.0110506 -0.0643504 0.0929357 
4.94758e-18 -1.24053e-17 1 

-0.113408 -0.0270025 -0.0736707 
-0.0398876 -0.122358 -0.0254623 
-5.95497e-18 -7.15524e-18 1 

-0.137765 -0.00357644 0.178838 
-0.0239265 -0.0143821 -0.0335739 
-1.77647e-17 -1.94032e-18 1 

-0.153236 0.0333257 -0.574265 
0.0156995 -0.00130212 0.158777 
3.87564e-18 -3.65205e-18 1 

-0.185682 -0.163193 -0.291601 
0.0720361 0.0555626 -0.0664942 
-2.44061e-18 -2.90343e-18 1 

-0.132078 0.0499665 -0.265404 
0.026225 -0.0265741 -0.381572 
4.1997e-18 -1.43172e-18 1 

-1.77462 0.457176 4.45337 
-0.4214 0.476995 0.883151 
-4.20129e-19 -4.25072e-18 1 

-0.246003 -0.0244476 0.298339 
-0.0220363 0.0952775 0.0317784 
-2.3731e-18 -7.25114e-18 1 

-0.149063 -0.0190042 -0.35723 
-0.00749373 -0.020003 -1.17845 
-1.64341e-17 9.54219e-18 1 

0.0181631 -0.448337 -0.0744371 
0.636874 0.0729992 0.234023 
2.19231e-17 -2.06561e-17 1 

-0.146506 0.034304 -0.209795 
-0.0559116 0.00613865 -0.251345 
-1.07335e-17 1.01344e-17 1 

-0.124929 0.0305787 -0.200609 
0.0109499 -0.00822048 0.00217129 
-3.46902e-18 -9.19327e-18 1 

-0.258423 0.0997871 -0.58573 
0.228061 0.0934943 -0.0367486 
-5.8481e-18 3.54591e-18 1 

-0.122957 -0.00477453 0.0347848 
-0.0142384 -0.0477823 0.0656319 
-6.62892e-18 9.34927e-18 1 

-0.143378 0.131107 -0.209823 
-0.00243566 -0.0603722 -0.0121496 
-1.2915e-17 7.48693e-19 1 

-0.0809815 -0.0598025 0.0132677 
0.0432392 -0.0767605 -0.0372244 
7.18991e-18 -7.29751e-18 1 

-0.216029 -0.110238 -0.563089 
0.0482023 0.00680646 -0.0165111 
-2.20557e-17 9.56393e-18 1 

-0.0631087 -0.0821019 0.0367405 
0.0736843 -0.037978 0.11786 
-1.15468e-17 -3.15514e-19 1 

-0.106326 -0.0333986 0.100557 
-0.0247423 -0.0451737 -0.11773 
-1.57808e-17 -4.0989e-18 1 

-0.0717931 -0.0560687 -1.27636 
0.0404198 -0.024191 -0.63214 
9.5139e-18 1.18563e-17 1 

-0.0864851 0.0180799 -0.196384 
-0.0374182 -0.0118115 -0.133961 
-1.23581e-17 1.07175e-18 1 

-0.00498564 -0.728807 0.63443 
0.309905 0.231975 -0.566235 
-6.10834e-18 -1.91017e-18 1 

-0.98813 -0.298839 0.189427 
0.0284894 0.279172 -0.474439 
-1.39261e-17 -2.74193e-18 1 

-0.11897 0.00317447 0.783565 
-0.0753435 -0.0998452 -0.835894 
-3.81844e-18 -3.74051e-18 1 

-0.134955 0.0419752 -0.312205 
-0.0646545 -0.05989 -0.248859 
4.0137e-18 1.3399e-18 1 

-0.138203 0.0237264 0.240331 
-0.0846651 -0.0121233 0.0727051 
-5.78892e-18 -2.57607e-18 1 

-0.111111 -0.0340888 -0.121451 
-0.0150058 -0.000475317 0.136055 
-1.81358e-18 4.2101e-18 1 

-0.19968 0.0469143 0.0725982 
0.01123 -0.0253093 0.203846 
-1.55098e-18 -6.1703e-18 1 

-0.147475 -0.0750509 -0.151975 
0.0301069 -0.0392521 0.923435 
-1.19401e-19 -1.50517e-18 1 

-0.120305 0.000546974 0.46925 
-0.0126323 -0.0133411 0.109131 
-2.58936e-18 -7.70803e-18 1 

-0.114362 -0.0242044 0.165651 
0.00577312 -0.0478097 0.0721268 
1.73252e-18 1.67173e-18 1 

-0.455404 0.0902855 9.34559 
0.0444547 0.274959 8.31372 
-1.85815e-19 4.77809e-19 1 

-0.21489 0.0430777 0.454264 
0.112224 0.141228 -0.389857 
-8.27414e-18 2.07479e-17 1 

-0.129734 -0.0366149 0.0588225 
0.0177307 -0.0239549 0.00119807 
-5.27022e-18 -1.86296e-18 1 

-1.04966 -0.497588 64.4475 
0.0237538 0.705253 -39.3834 
5.32159e-19 -3.0863e-18 1 

-2.87002 0.408003 118.281 
-0.381378 0.705825 80.5023 
-6.46151e-19 5.25732e-18 1 

-0.539259 -0.164197 -4.54333 
-0.102696 0.151836 8.45753 
1.18875e-18 -7.02826e-18 1 

-0.627593 -0.398177 -7.81863 
-0.224994 -0.0464314 0.688187 
-1.70393e-17 -2.46612e-19 1 

-0.303716 -0.318752 0.896248 
0.2018 0.0555556 0.554391 
-7.79432e-18 -1.17574e-17 1 

-0.345595 -0.157032 -2.41217 
0.0926612 0.419098 -1.94845 
-3.40298e-18 2.26691e-17 1 

-0.267945 -0.0739794 0.264047 
-0.0795329 -0.0207472 0.316771 
-1.10993e-18 -1.52528e-17 1 

-1.26137 0.691373 -0.810757 
-0.206321 0.39258 0.274613 
-3.65635e-18 -4.48638e-18 1 

-0.138107 -0.00269995 -0.0456489 
0.0340663 -0.0376629 0.0265253 
8.39828e-18 6.46514e-18 1 

-0.141682 -0.000576886 -0.0211753 
-0.0332274 0.0138491 0.033505 
2.51817e-18 9.58596e-18 1 

-0.0801448 -0.0340578 0.22452 
0.0107618 -0.0829312 0.277471 
4.26162e-18 6.17935e-18 1 

-0.183078 -0.026635 -0.0807982 
0.0114272 -0.00566033 -0.292939 
-1.53385e-17 7.62534e-18 1 

-0.10853 0.00875308 -0.0228744 
-0.0150596 -0.044559 -0.0311091 
1.34167e-18 2.08704e-18 1 

-0.0870567 0.0115164 -0.172164 
0.0214286 -0.018434 -0.0503444 
-7.50542e-18 -3.39451e-18 1 

-0.149766 -0.0163705 0.502104 
-0.00936354 -0.0277042 -0.271107 
8.5462e-19 -1.43913e-17 1 

-0.230361 -0.0986287 -0.263813 
0.0302524 0.0315804 -0.238795 
-7.94944e-18 4.46968e-18 1 

-0.199394 0.381246 0.0279233 
-0.113831 0.0858286 -0.679648 
-4.59236e-18 1.01752e-17 1 

-0.134755 -0.0751661 0.0389265 
0.0161491 -0.0724589 0.489354 
-1.4059e-17 -2.51478e-18 1 

0.0269855 -0.720458 0.223917 
0.717815 0.33712 0.518277 
-9.56647e-18 -8.47662e-18 1 

-0.125636 -0.0255666 -0.00332694 
-0.0191842 -0.0642791 -0.137043 
9.20206e-18 -1.97187e-18 1 

-0.260461 -0.0285961 0.767283 
-0.0894353 0.103743 0.675761 
8.77433e-18 6.43829e-18 1 

-0.158482 0.0769085 -0.00126891 
-0.0377037 -0.105995 -0.0332627 
-2.95246e-18 2.78972e-19 1 

-0.102221 -0.00687739 -0.0740585 
-0.0240194 0.00390402 -0.144817 
9.9766e-18 -2.31683e-17 1 

-0.430786 0.168047 3.1008 
-0.268537 0.144997 0.373567 
-8.56288e-18 -7.22493e-18 1 

-0.097454 -0.0131732 0.0221279 
-0.0275897 -0.052513 -0.000805947 
-1.59209e-19 1.746e-17 1 

-0.114373 0.0217418 -1.50557 
0.01262 -0.0628085 0.54519 
-4.3508e-18 -1.22846e-18 1 

-0.225287 -0.0308105 0.00908438 
0.0970716 0.0493151 -0.173615 
9.96745e-18 -1.31122e-17 1 

-0.163291 -0.0179419 -0.035576 
-0.0564925 -0.0472456 0.236787 
1.09555e-17 -1.01999e-17 1 

-0.170153 -0.00173908 0.314617 
-0.0454847 0.0020028 -0.170406 
-2.05468e-18 1.21154e-17 1 

0.0632199 -1.78905 1.00084 
0.504679 1.02182 -1.17918 
1.32156e-17 1.36537e-17 1 

-0.129187 0.00296994 -0.0237039 
-0.0149706 -0.0450461 -0.28387 
1.09638e-18 1.41867e-17 1 

-0.601753 -0.179397 -1.17815 
-0.160136 0.00626902 -1.83173 
4.35377e-18 -1.30613e-17 1 

-0.65836 -0.397065 -0.273542 
0.160799 0.338253 0.570836 
1.89782e-18 3.05007e-19 1 

-0.173407 -0.0670238 -0.226887 
0.112927 -0.0143982 0.196465 
-1.26408e-17 -1.88434e-18 1 

-0.183358 -0.0502472 0.936203 
-0.217175 -0.182546 -1.11151 
2.09555e-18 9.72481e-18 1 

-0.4422 0.0728826 -0.214274 
-0.232629 0.258643 0.837723 
-1.90213e-19 -1.25541e-18 1 

-0.728632 -0.58656 -0.963408 
0.614038 0.571876 -0.704085 
1.65181e-17 -1.21417e-17 1 

-0.49302 -0.00105191 0.267509 
0.162363 0.266826 -0.51826 
-1.47428e-17 -3.45492e-18 1 

-0.150679 0.0286452 -0.0473373 
-0.000900022 -0.0250407 -0.054049 
1.50086e-18 3.75215e-19 1 

-0.191486 -0.0833894 -0.131819 
0.0289884 0.0274584 -0.303042 
-4.49667e-18 -1.43497e-17 1 

-0.174758 0.021756 0.0343695 
-0.0874216 -0.0457253 0.174506 
-2.17492e-18 -1.04642e-17 1 

-0.3191 0.101814 0.430247 
-0.176237 0.176165 -0.0380006 
9.82528e-18 -4.06409e-18 1 

-0.573331 -0.451785 -0.294545 
0.0399731 0.198658 0.373445 
2.67269e-18 -1.23189e-17 1 

-0.152065 0.0162935 0.437115 
-0.0216463 -0.00350221 0.0840244 
5.68896e-18 1.04526e-17 1 

-0.838153 -0.296728 -0.435297 
0.00161378 0.354141 0.584796 
1.03252e-17 -2.98046e-18 1 

-0.364734 -0.243487 0.79571 
0.203966 0.258227 1.91031 
2.09274e-18 3.62151e-19 1 

-0.237191 0.07001 0.109179 
0.138201 0.0240152 -0.168198 
2.22896e-18 5.54677e-18 1 

-0.165398 -0.0313929 -0.29757 
0.00290397 -0.0349493 0.0622765 
8.16576e-18 -5.72222e-18 1 

-0.1095 -0.0222326 0.0878877 
-0.00289031 -0.0301833 0.700492 
-7.28379e-18 -8.90927e-18 1 

-0.0949438 0.0155795 -0.184761 
0.0277776 -0.0193358 0.281084 
4.06556e-18 2.01714e-18 1 

0.122026 -0.744454 -0.0114443 
0.66453 0.237477 0.149254 
9.28064e-18 -6.14842e-18 1 

-0.170713 0.485067 0.694668 
-0.589376 0.334074 0.124454 
-8.41542e-18 4.46162e-18 1 

-0.122839 0.0443568 -0.0502079 
-0.0226504 -0.0185115 0.213334 
-8.79954e-19 6.6507e-18 1 

-0.163248 0.0243686 -0.203105 
-0.0243832 -0.0298641 -1.32941 
-3.25515e-19 8.59708e-18 1 

-0.11085 0.00228092 0.368816 
0.0677471 -0.0630686 0.595023 
-1.148e-18 -3.63534e-17 1 

-0.111031 -0.00599005 -0.923314 
-0.00736918 -0.0376086 -2.12803 
-1.10208e-17 6.23084e-19 1 

-0.224267 -0.000399097 0.720551 
0.0180267 0.02881 -0.586651 
-2.97415e-18 4.55585e-18 1 

-0.27935 0.0514087 -0.255605 
0.0162104 0.118083 -0.799622 
6.28669e-18 2.76834e-18 1 

-0.145698 -0.0861724 0.0589549 
0.00408784 -0.0963134 -0.25386 
-1.38256e-19 4.75469e-17 1 

-0.139037 -0.105088 0.959385 
0.118126 0.0341676 0.494055 
-6.29941e-18 -1.31071e-17 1 

-0.167703 -0.133324 0.759014 
0.0885146 0.058234 0.0769727 
-1.49798e-17 -2.36373e-18 1 

-0.173468 -0.104346 -0.31405 
0.0679064 0.0315877 0.244504 
1.61946e-18 -7.87645e-18 1 

-0.201117 2.66878 111.73 
-0.00446014 -0.0523846 -10.0208 