# vtk DataFile Version 3.0
Output file generated by Yade's KinematicLocalisationAnalyser
ASCII
DATASET UNSTRUCTURED_GRID

POINTS 13483 float
553.757 34.9827 -0.597171
642.859 81.2819 0.462351
113.085 6.09161 -0.559388
673.719 5.58824 0.381517
474.492 8.19521 0.365502
302.007 35.8595 -0.479905
147.948 7.05325 0.456337
526.637 22.785 0.135197
472.857 25.8399 -0.179123
627.92 14.7152 -0.547082
200.388 8.72593 0.141327
245.889 6.29949 -0.25172
586.839 53.8241 -0.201516
568.207 35.5188 -0.1089
129.708 17.8988 0.537518
210.71 34.9801 0.400634
207.696 13.0034 -0.299181
277.257 9.94274 0.414314
328.306 33.7576 -0.503258
496.613 7.97084 0.476054
395.42 37.5198 0.110775
542.916 58.874 -0.343481
668.095 45.5717 0.458295
612.166 60.7433 -0.541989
440.582 19.4522 -0.495828
230.187 44.9619 0.140418
467.971 31.2631 0.458887
539.495 27.3873 -0.307007
41.8229 16.8278 -0.386676
619.754 33.861 0.360831
458.828 4.94712 0.387244
15.8405 24.3464 -0.401523
655.998 87.9091 -0.250032
470.754 2.18702 0.652656
73.5189 46.0604 -0.101532
496.175 33.5306 -0.38499
502.136 15.8627 0.618912
330.388 22.4963 -0.243207
502.901 28.7998 0.467919
336.904 33.7296 0.536383
229.996 14.7427 -0.326827
418.139 36.5062 0.0898389
593.493 7.03976 0.11144
183.045 6.26059 0.406216
51.4335 7.18331 -0.0915651
64.3719 9.15245 -0.300879
603.402 14.2537 -0.619908
22.0739 11.9615 -0.278793
545.335 74.2103 -0.352852
599.434 53.5579 0.398634
163.635 32.7437 0.305869
648.894 66.8539 0.168684
32.2593 30.1015 0.132844
506.766 2.84483 0.408162
134.552 7.4796 -0.554988
545.711 46.4512 -0.354186
479.149 29.5332 -0.193131
166.265 0.959331 -0.282499
30.7725 2.33111 -0.357689
335.69 17.836 0.239473
554.242 73.8576 0.063938
443.3 38.0391 -0.186227
384.308 1.03258 0.206138
611.641 7.00988 0.615849
24.4859 46.179 -0.238375
245.567 31.3705 -0.344128
630.185 9.45894 -0.239987
591.634 81.6751 -0.354122
402.247 8.89569 -0.587319
529.16 8.93023 -0.642068
638.392 49.1534 0.431565
123.396 7.79554 0.273956
474.388 28.4047 -0.128073
457.175 17.0816 -0.0977302
283.328 17.0226 -0.352215
19.6518 14.0914 0.332392
667.081 85.4135 0.331465
320.681 39.9941 -0.299388
593.991 26.9196 -0.399457
602.714 20.012 0.34883
661.829 14.9967 0.334202
445.081 39.4277 0.160578
87.4273 39.6715 -0.281647
607.202 62.3827 0.235415
581.707 64.9269 0.103644
676.248 49.4642 -0.13795
657.672 0.747638 -0.564013
279.942 28.8813 0.488638
567.667 9.84352 0.165082
23.1064 5.73765 -0.646425
126.055 40.2717 -0.179208
487.758 15.625 0.232327
666.259 72.3899 -0.524835
186.824 29.3614 -0.230252
41.1302 36.1922 0.304261
469.56 1.1587 0.144121
225.897 8.89288 -0.408227
630.569 62.7639 0.28926
656.818 63.782 0.278003
348.657 21.9403 -0.28135
155.366 27.3035 -0.433498
507.586 52.3765 0.396633
366.485 16.0905 -0.451295
398.91 30.4184 0.12396
364.402 4.62876 0.377697
517.917 15.446 -0.155498
676.235 15.8183 0.273724
75.4537 41.0115 -0.465422
323.416 4.97024 -0.233839
521.385 21.0218 0.330196
347.263 45.0247 0.488593
24.3538 27.1064 -0.605839
28.8301 5.93402 -0.311524
526.981 45.2275 0.518684
481.686 26.3513 -0.149702
23.9502 39.7855 -0.433898
88.5416 31.7386 0.237087
314.224 16.6302 -0.283737
552.058 21.3097 0.142945
455.912 43.7491 -0.223021
642.824 15.8603 -0.581032
636.471 13.1063 0.162142
374.157 38.2069 -0.119103
572.3 49.4424 0.12764
228.943 17.5155 0.527906
318.95 3.93863 0.457018
98.4008 32.0127 0.407859
110.438 25.1006 0.34912
503.939 54.1545 -0.0680642
296.109 19.1398 0.492355
615.638 39.9404 -0.151107
595.95 79.5373 0.104679
461.933 23.5919 -0.48858
670.729 55.2552 -0.227675
415.086 23.9273 -0.277263
266.779 24.5783 0.303419
598.907 64.2241 -0.279546
269.098 28.6415 -0.446852
533.99 18.9175 0.262263
321.711 36.7236 0.204034
482.165 12.6533 0.566537
355.286 32.8672 -0.123574
416.71 17.0807 -0.123452
308.043 43.0123 0.432369
183.097 30.3873 0.148766
647.587 81.854 -0.1612
673.187 16.7341 -0.364604
5.86318 12.8802 -0.477995
420.926 22.7013 -0.428571
35.6134 24.3236 -0.0983045
365.17 32.3638 -0.461821
383.192 25.5874 0.28464
70.6949 12.5375 0.492866
48.8852 34.5968 0.423923
217.799 13.6934 0.421117
555.134 62.3814 0.488335
538.962 32.0349 -0.615968
70.8226 21.8637 0.467913
615.485 59.5655 -0.659866
660.396 36.4069 -0.680588
585.264 76.3302 -0.486813
607.912 3.08361 -0.686995
511.049 40.337 0.418047
543.553 60.1358 0.620276
490.988 19.1873 -0.424874
670.984 3.92414 0.408777
215.528 25.1391 0.168025
121.663 37.6784 -0.196961
238.91 6.68037 0.433625
89.1814 4.43143 0.279655
60.7528 10.3827 0.226855
267.238 36.2795 0.374614
16.2707 25.922 0.420523
517.122 32.249 -0.511606
543.846 68.3154 0.197389
447.937 24.8359 -0.408337
674.182 97.5394 0.356741
395.505 8.77891 -0.114354
422.405 39.148 -0.54295
515.042 3.39447 -0.208549
21.9386 25.6753 0.528876
534.167 7.89821 0.591191
521.549 7.23414 -0.324972
198.854 11.176 0.488655
413.414 17.1623 -0.220109
303.031 6.58288 0.336752
377.563 19.6277 -0.311486
626.649 56.9217 -0.109485
185.563 26.2318 -0.458507
652.271 6.19787 -0.557232
627.039 51.5409 -0.332776
372.898 10.519 0.196136
629.428 2.34835 -0.47828
557.319 32.2427 -0.462305
643.074 35.3729 0.484009
417.223 46.3598 0.319708
477.122 13.4698 0.469604
449.253 50.0065 0.234458
433.715 8.94177 -0.174577
588.762 74.7433 0.25995
588.626 69.7044 -0.312903
185.431 39.721 -0.372974
660.063 15.9179 -0.171564
528.077 61.8519 -0.241066
11.2752 17.2598 0.231309
396.518 25.9111 0.494763
180.588 23.6757 0.398264
89.167 40.5254 -0.220897
666.805 69.0429 -0.427335
583.216 81.862 0.228212
310.769 26.44 -0.387883
510.885 10.2779 0.396154
78.5053 45.7358 -0.206717
240.274 26.2276 -0.490253
519.796 36.3629 0.442138
470.385 21.5843 -0.438034
255.255 0.878376 -0.345299
517.364 53.3874 -0.430361
498.4 55.815 -0.529702
465.926 39.1815 -0.433893
479.631 2.37736 -0.647926
613.953 19.2795 0.57449
172.921 12.7119 -0.210484
483.548 38.2694 0.596394
527.183 53.4024 0.112663
69.5639 0.971023 0.316818
244.198 4.78253 0.180267
672.43 18.6276 0.152146
662.324 16.6557 -0.550164
677.855 23.597 -0.631237
295.664 8.74635 -0.230033
643.861 41.1724 -0.421729
396.878 42.4585 0.317051
437.925 0.852977 0.469874
588.769 59.438 0.416898
25.1159 33.2039 -0.363069
322.675 42.7518 0.576385
245.035 2.91384 0.379856
660.292 87.7186 -0.16974
621.058 81.396 -0.247293
279.691 11.3575 0.265662
593.452 59.0192 -0.0800218
528.721 2.58654 -0.205043
517.664 10.9077 0.671711
92.6883 18.811 -0.493423
295.503 1.12674 -0.232269
334.48 2.2405 -0.377452
13.5396 8.09768 -0.572666
4.29867 31.6866 -0.311854
155.276 19.4092 0.415045
65.3157 43.1007 0.24825
62.7289 30.4404 0.315249
412.208 14.6586 -0.466322
358.029 36.2808 0.476377
646.761 67.1709 -0.153878
18.6287 3.99648 0.288394
67.4118 7.21437 0.148856
563.561 61.9431 0.129071
286.94 0.941754 0.376787
355.961 16.886 -0.106854
228.346 4.71982 -0.378819
589.855 42.9732 0.246809
440.514 7.99165 0.722295
646.349 42.8636 0.490713
570.963 52.5235 0.291814
593.897 24.9634 0.102081
410.106 27.1214 0.577094
98.0951 46.3543 0.312699
508.027 57.0509 0.0783503
643.399 26.7229 0.335345
230.925 31.0767 -0.268491
29.8022 18.9644 -0.210346
328.002 13.7889 0.536803
103.248 41.6347 -0.468284
260.608 42.8019 -0.217599
415.64 2.17715 -0.255804
667.699 80.4681 0.369694
603.511 2.22997 0.672579
323.914 3.45 0.588229
292.765 27.0152 -0.196884
448.503 46.6763 0.209056
77.573 9.17018 0.516562
191.186 45.9002 0.385125
657.505 67.2305 0.439287
479.729 41.9337 0.0717099
193.714 41.8398 -0.31845
154.487 43.0978 0.390764
677.568 43.2953 -0.546773
674.632 15.5321 -0.591771
560.997 3.6162 -0.652222
184.198 25.1374 0.109687
512.818 41.1602 -0.108161
514.816 40.534 -0.283973
400.028 5.90731 -0.147983
464.748 0.967577 0.4899
642.996 68.5447 -0.55313
81.3737 32.1692 0.21011
586.983 30.2863 -0.662395
267.126 15.7112 -0.384283
8.61807 2.66751 -0.396008
121.167 40.2113 -0.230909
63.3431 23.7738 0.608638
612.009 41.8177 -0.368088
661.703 95.8286 0.164251
179.378 29.0013 -0.196246
670.548 14.4685 -0.428843
42.5609 38.1963 -0.277535
87.3878 30.0543 0.199491
576.768 33.4056 0.356153
403.764 19.1866 -0.55343
499.33 16.5805 0.146897
231.347 29.0355 -0.18407
571.963 6.21434 0.562629
678.225 17.0521 0.554311
27.8998 34.3269 0.292886
263.15 7.77195 0.204388
215.453 15.338 0.262649
1.06739 36.3411 -0.160461
218.747 14.7479 -0.385038
205.189 11.0453 0.130022
207.583 26.5459 -0.305027
126.931 29.2689 0.138421
513.984 24.7592 0.226486
160.974 14.4058 -0.368038
654.998 84.698 0.235964
168.193 3.88627 0.509581
44.9532 38.9838 -0.416976
621.344 69.9529 -0.511005
274.044 31.5099 -0.391256
595.103 43.2798 -0.489313
676.057 86.8787 0.463818
293.73 9.35846 -0.0981527
631.949 40.8509 -0.475224
320.924 2.49567 -0.448385
406.546 24.693 0.343404
594.306 19.026 0.747165
101.213 12.5096 -0.55268
466.814 3.8621 -0.528615
648.795 43.4335 0.177406
84.0126 7.98538 -0.301435
274.756 14.9952 0.201289
413.273 12.1066 -0.217984
671.383 5.74602 0.582235
389.14 2.00605 -0.544237
170.785 39.3783 -0.305389
646.637 27.1049 -0.554867
123.746 38.5658 -0.23505
256.103 31.7629 -0.37285
391.435 22.192 0.221996
537.029 19.6947 0.434375
378.497 10.2088 -0.567069
444.479 32.0364 -0.429879
644.33 80.8019 0.419475
44.8068 12.3981 -0.244216
292.004 39.2999 -0.253915
371.3 28.4586 -0.454047
400.551 21.1448 0.340932
489.537 61.4961 0.357819
638.667 62.913 0.205325
592.528 69.2914 0.377032
219.315 34.7616 -0.387728
13.3452 32.5617 -0.176721
587.089 71.0849 -0.118718
474.18 57.039 -0.468964
223.012 39.8211 0.118877
600.943 46.7717 0.102407
145.163 9.40428 0.253831
358.414 22.1312 0.364253
450.086 47.9583 -0.111265
404.542 20.5357 0.266973
639.211 79.8402 -0.292415
416.282 4.19494 0.640514
46.9122 26.6861 0.366859
456.79 36.9525 0.327853
422.75 46.0028 -0.40874
661.047 81.5684 -0.233259
630.973 37.7446 0.318239
508.738 30.5201 -0.211351
653.641 76.8171 0.435501
286.518 2.25503 -0.46301
370.358 31.0282 0.607099
27.0399 41.603 -0.34991
632.949 43.0919 -0.183706
563.8 25.4593 -0.665416
449.195 2.18205 0.562368
120.78 4.68421 -0.370026
416 40.5394 -0.122054
10.9952 0.96646 0.405475
670.791 7.88649 0.295309
361.897 40.6154 -0.493613
[...]
POINT_DATA 13483
TENSORS Strain_matrix float
-1.95748 0.527969 0.768319 
0.149394 0.637147 -5.43405 
2.22858e-17 -9.69187e-18 1 

-3.35236 2.96453 23.6165 
0.555384 0.488099 -0.0613143 
2.67704e-18 -2.14449e-19 1 

-0.193049 0.027306 -1.46469 
0.020528 -0.0173446 0.725248 
-1.29802e-18 -9.57407e-18 1 

-1.23739 1.07547 1.21133 
-0.318898 0.359903 0.170469 
1.11624e-17 -2.54961e-17 1 

-0.414861 -0.0310824 0.00893107 
-0.0389683 0.0594444 -0.172684 
-4.91605e-18 -2.19833e-18 1 

-0.126881 -0.0409727 -1.5214 
0.0218836 -0.00209554 0.522668 
3.09114e-19 6.35089e-18 1 

-0.129413 -0.0260432 -0.363073 
0.00584596 -0.0787785 -0.105237 
7.43189e-19 -1.4156e-18 1 

-0.415899 -0.417796 0.0789623 
0.185638 0.26528 0.0565459 
-6.85521e-18 6.35361e-18 1 

-0.491942 0.165016 -1.52337 
-0.219492 0.205602 -0.367481 
-2.83575e-18 3.33663e-18 1 

-0.326739 -0.128106 -0.291561 
0.257905 -0.0273463 -0.16904 
-2.14112e-17 -6.78657e-18 1 

-0.112769 0.0329135 0.0341757 
0.0308787 -0.0848431 0.0993164 
4.06257e-18 1.20372e-18 1 

-0.124274 -0.0900041 0.234691 
-0.0437376 -0.102415 0.123034 
1.07963e-17 2.97372e-18 1 

-0.384639 0.208082 0.670106 
-0.135366 0.205253 0.179799 
4.00579e-18 1.22353e-17 1 

-0.759775 -0.406318 0.282727 
0.575633 0.335349 0.289898 
3.03917e-18 -6.17799e-18 1 

-0.334377 -0.0941199 -1.89272 
0.0399049 0.0284676 -1.41891 
3.85034e-18 -1.63193e-18 1 

-0.110842 -0.035742 0.931919 
-0.0345532 0.0243323 0.441096 
-1.56976e-17 -3.08507e-18 1 

-0.0979505 -0.03129 0.0728117 
0.0214664 -0.105944 -0.0397305 
-1.77131e-17 1.85854e-18 1 

-0.210586 -0.0280322 0.00920948 
0.051457 -0.0663122 -0.0221156 
3.75684e-18 -3.66521e-19 1 

-0.24497 -0.0341443 2.02856 
-0.0697822 0.0260603 0.934888 
-3.43718e-18 5.61874e-18 1 

-0.166117 0.0422447 0.102524 
-0.210057 -0.132479 0.828788 
2.96032e-18 1.6631e-17 1 

-0.17063 -0.0663223 0.317494 
0.226399 -0.00984894 -0.0174569 
-1.5787e-18 -1.91699e-18 1 

-3.002 -0.950569 3.04392 
1.06621 0.92455 -3.98155 
-5.92761e-19 -9.9253e-19 1 

-15.398 4.94353 -26.2723 
-6.89339 3.08315 -10.9701 
2.23746e-19 -9.87567e-18 1 

-0.479508 0.268013 -1.48106 
-1.20878 0.596886 0.774823 
-7.00534e-18 -1.63913e-18 1 

-0.272533 -0.0972329 0.667083 
0.15328 0.0546678 0.958968 
7.1393e-18 -8.77638e-19 1 

-0.203072 -0.0773235 0.126838 
0.0174782 0.0657454 0.0130128 
2.48295e-17 -5.35538e-18 1 

-0.269373 0.0201606 -0.0676595 
0.117765 0.0944935 0.178612 
-4.36381e-18 -8.08737e-18 1 

-0.568022 0.0687419 -1.46765 
0.0662227 0.30001 -0.253656 
1.61274e-17 3.92117e-18 1 

-0.124138 0.0955709 0.773066 
0.0555279 -0.0994994 -0.415184 
-9.93593e-18 1.38994e-17 1 

-0.967914 -0.335755 -0.853314 
0.221957 0.369388 -0.311168 
4.1359e-18 -1.68974e-17 1 

-0.16083 -0.000753993 -0.232814 
-0.0748983 -0.186903 0.0113536 
-1.29646e-17 3.18621e-18 1 

-0.295407 -0.0530042 0.288826 
-0.0604886 0.0282047 -0.146689 
-1.25638e-18 -7.80749e-18 1 

0.218449 -0.888626 0.333467 
0.676555 0.347885 -0.11262 
5.37028e-18 -3.61176e-18 1 

-0.32068 0.119038 -3.13356 
0.0452887 0.104296 0.833164 
-7.29398e-18 -1.17893e-17 1 

-0.105241 -0.139913 0.226926 
0.0794794 -0.12777 0.370175 
-1.57847e-17 -5.32818e-18 1 

-3.56343 -3.09769 6.08072 
1.16626 1.84533 -1.41199 
1.81598e-17 8.25445e-18 1 

-0.385528 -0.0121679 -1.10712 
-0.0645207 0.0486012 0.612317 
-4.14058e-18 6.39422e-18 1 

-0.255159 -0.111898 -0.686023 
-0.0881311 -0.0853734 -0.975415 
2.23247e-18 1.24181e-17 1 

-2.86776 -1.83825 -0.525605 
1.5304 1.58075 2.12466 
2.86324e-18 4.06564e-18 1 

-0.184223 0.00848079 2.91778 
0.0186227 0.0219316 3.51311 
-1.3961e-18 -7.42745e-18 1 

-0.15769 -0.0183289 -0.0744885 
-0.00120305 -0.00735403 0.360463 
2.32172e-19 -2.93117e-18 1 

-0.0942417 -0.333753 -0.195436 
0.378593 0.081672 0.271958 
-1.62293e-18 2.49494e-17 1 

-0.506536 -0.353561 -0.340696 
0.14253 0.0273297 -0.472712 
2.57817e-18 -9.69115e-18 1 

-0.175018 0.0686363 0.223773 
-0.0403692 -0.0300103 -0.247997 
1.12352e-17 3.56794e-18 1 

-0.129728 0.0569352 0.0738035 
-0.0839016 -0.0367756 0.0670006 
-1.06773e-17 6.76023e-18 1 

-0.120482 -0.00144345 -0.0415769 
0.00444815 -0.0256136 -0.185751 
-7.1493e-18 -5.11666e-18 1 

-0.846966 0.166488 1.38956 
-0.756814 0.131348 0.381039 
-6.75913e-18 -9.73315e-18 1 

-0.0705036 0.0534725 -0.004588 
-0.0207602 -0.117457 -0.0111618 
-2.6571e-18 1.15552e-17 1 

-0.219306 -1.21963 11.6721 
0.0281713 0.446617 2.96283 
-9.59276e-18 -1.5745e-17 1 

-1.92399 0.526391 -0.631717 
-0.154431 0.769429 -4.82705 
1.53978e-17 1.19254e-18 1 

-0.0871255 -0.0942491 0.0843247 
0.0468804 -0.00937646 0.157564 
-2.41865e-17 -1.24185e-18 1 

0.0169393 -0.593169 -0.796269 
0.683747 0.245406 0.840194 
-2.25172e-17 -1.52625e-18 1 

-0.140599 0.0824442 -0.15453 
-0.10634 0.0272172 0.177028 
-6.61395e-18 -6.90574e-18 1 

-0.176308 0.0626312 0.00594786 
-0.0437516 -0.131402 -0.0722236 
-1.24617e-18 -5.0366e-18 1 

-0.263108 -0.0367009 0.595172 
0.0711138 -0.0340973 0.68418 
-6.85497e-18 1.0851e-17 1 

-1.24189 -0.589305 -3.21266 
0.318153 0.501658 0.523451 
7.90341e-18 -1.30079e-18 1 

-0.356118 -0.0851926 -0.486454 
-0.10537 0.16169 0.466292 
-2.96808e-18 9.48014e-18 1 

-0.129794 0.353653 0.0585802 
0.00316188 -0.0410002 -0.257923 
-4.71882e-18 -2.77982e-17 1 

-0.0806056 -0.00467411 -0.142717 
-0.0233412 -0.108168 -0.168679 
-1.61604e-17 -5.73452e-18 1 

-0.109979 -0.0245727 -0.308 
0.0366333 -0.01785 -0.135206 
-6.00943e-18 2.85662e-18 1 

-0.696862 -0.372982 0.639024 
0.312097 0.793275 -0.0723985 
4.0282e-18 -3.01539e-17 1 

-0.237745 -0.335325 -0.908381 
0.0118032 0.159757 0.647377 
8.02473e-19 1.04237e-17 1 

-0.140476 -0.134452 -0.23458 
-0.019221 -0.0560971 -0.12969 
-4.52378e-18 7.9467e-19 1 

-0.461583 -0.135464 -0.0658741 
-0.0363315 -0.0222472 -0.318557 
1.75104e-19 3.17881e-18 1 

-0.2582 0.0944004 -0.357123 
-0.0483638 0.12668 -0.55988 
3.12442e-18 -1.3198e-18 1 

-0.270416 0.0686409 0.175081 
-0.0714036 0.0109006 0.134878 
1.23873e-17 -2.23176e-18 1 

-0.666118 -0.548039 0.392882 
0.314983 0.238196 0.7024 
5.51747e-18 -1.14509e-17 1 

-0.439343 0.0394932 -2.04821 
0.00078934 0.186019 3.12567 
-7.65403e-19 6.49273e-18 1 

-0.18147 -0.00782412 2.22157 
-0.0104341 -0.0453476 -0.715077 
-3.02104e-18 -4.6994e-18 1 

-2.10094 -0.0982679 -1.99169 
-0.147285 0.338767 1.96573 
6.17922e-18 5.03399e-19 1 

-1.0372 -0.928508 1.4392 
0.699852 0.662344 -0.43081 
1.20148e-17 0 1 

-0.124493 0.00889209 -0.128141 
-0.0651084 -0.0457289 -0.000219335 
2.36446e-18 2.54214e-18 1 

-0.176762 0.110997 -0.00236835 
-0.378344 0.249604 0.143464 
4.71801e-18 4.20501e-18 1 

-0.740789 -0.0749999 -0.32585 
0.071804 0.390295 -1.69427 
4.74558e-18 3.63646e-19 1 

-0.12459 0.0038491 -0.223332 
-0.0306739 -0.0311169 -0.236654 
-1.69901e-17 -2.89743e-18 1 

-0.217081 0.106343 0.483756 
-0.0748454 -0.026759 -0.341169 
-8.22827e-18 -2.63509e-18 1 

0.290525 -0.881946 -0.455933 
0.778735 0.348106 0.146931 
-2.04113e-18 -4.44247e-18 1 

-0.136962 0.0567846 -0.636214 
-0.0210915 -0.0244528 0.131138 
2.36264e-18 -6.87463e-18 1 

-4.20964 1.67245 0.91203 
0.238442 0.144108 -0.126152 
-2.06362e-18 -1.40076e-17 1 

-0.776411 0.109931 0.056191 
-0.12364 0.363168 -0.853623 
5.89034e-18 -2.1606e-18 1 

-0.900359 -0.272612 0.709866 
-0.179108 0.374156 -0.0895502 
-1.36614e-17 -1.09779e-18 1 

-0.270041 -0.277396 -1.72348 
0.0236483 0.150559 0.537823 
5.8757e-18 -3.23917e-18 1 

-0.0657817 0.0454069 -0.0902097 
-0.0161628 -0.0224616 0.266085 
-8.45716e-18 -3.43432e-18 1 

-2.4198 -0.304224 7.41599 
-1.28285 0.672806 3.63694 
-1.41738e-17 1.15526e-18 1 

-0.471632 -1.08962 1.0808 
0.344441 0.592894 -0.968619 
-4.61165e-18 5.95052e-18 1 

-1.30416 0.394643 0.0470109 
-0.247909 0.378293 0.608483 
3.05029e-18 -3.38921e-18 1 

-1.01988 3.42317 5.9858 
-0.0223429 1.55832 1.35731 
-4.42421e-18 6.60497e-17 1 

-0.143012 0.0282085 -0.0238372 
0.00189512 -0.0990615 -0.454982 
-4.14477e-18 -7.49434e-18 1 

-1.2443 0.252434 0.429412 
-0.23185 0.284316 -0.364498 
-7.55929e-18 -2.1166e-18 1 

-0.204129 0.0166676 -6.42194 
0.0220826 -0.00807618 -0.261214 
4.32934e-18 8.41491e-18 1 

-0.199172 -0.0448576 0.0161437 
-0.15206 -0.0030432 -0.115529 
4.08979e-18 3.81991e-18 1 

-0.351857 0.289979 -0.394103 
-0.0857244 0.064178 0.0781908 
-1.2902e-17 -1.41391e-18 1 

0.0508342 -1.24113 28.5541 
0.717061 0.155768 19.7516 
5.03698e-18 4.9819e-18 1 

-0.17468 -0.0378149 -0.122001 
0.00249863 -0.0469231 0.0507712 
1.5873e-18 -5.05953e-18 1 

-0.150385 0.0397555 0.728315 
-0.0452847 0.00566478 -0.124014 
-1.27812e-18 6.65455e-18 1 

-0.29408 0.31416 -0.0760295 
0.00824263 -0.0640246 0.0952714 
-1.17556e-18 -3.24259e-17 1 

-0.16539 0.01925 0.173797 
-0.0572614 -0.0532443 -0.514023 
-1.39081e-17 -4.09782e-18 1 

0.0868021 -0.914181 -1.56621 
0.369358 0.233909 -0.428236 
-7.68356e-18 -3.7516e-18 1 

0.171044 -0.747664 0.138504 
0.66154 0.228107 -0.427238 
2.98145e-18 -7.29268e-18 1 

-0.168155 -0.00950539 0.15766 
-0.0167666 -0.0310216 0.371842 
5.12366e-18 7.65088e-18 1 

-0.143251 -0.0278116 -0.58606 
0.0119387 -0.0158938 -0.896937 
-5.78829e-18 -4.42904e-18 1 

-0.267927 0.396359 -0.0648296 
-0.229777 0.185371 0.12488 
-6.39814e-18 -1.52895e-17 1 

-0.190064 -0.017403 -0.330212 
0.00498121 0.000250761 0.272624 
2.24965e-18 6.12114e-18 1 

-0.176342 0.072764 0.414956 
0.0665514 -0.0484012 0.162666 
-1.95646e-18 -2.98249e-18 1 

-0.179437 -0.00260183 0.0680141 
-0.220465 -0.0852486 -0.126493 
4.24057e-18 -1.09634e-17 1 

-0.940208 -0.957378 0.737786 
0.548326 0.666563 -0.283599 
-1.02789e-17 1.24055e-17 1 

-0.386776 -0.588925 -0.489443 
0.460957 0.177518 -0.516681 
1.26805e-17 9.31108e-18 1 

-0.217326 0.06123 -1.12988 
-0.0256812 0.0361792 0.308393 
1.74276e-18 -8.72293e-18 1 

-0.170053 0.0567345 0.109021 
0.0836732 -0.11844 -0.0702051 
-2.91493e-18 6.36325e-19 1 

-0.655505 -1.42902 -1.47982 
0.506425 0.749295 0.351043 
-3.87639e-18 8.35133e-18 1 

-0.189537 0.0459378 5.19847 
-0.00544366 0.0141083 1.85661 
-3.7148e-18 5.48351e-18 1 

-0.271621 0.00912051 0.693732 
0.032037 0.032812 0.287378 
-4.38122e-18 4.14193e-18 1 

-0.159292 0.146797 0.0983166 
-0.165691 -0.0980946 -0.0478018 
-2.50424e-18 8.49907e-18 1 

-0.405012 0.327745 -3.67213 
-0.0553738 0.259414 -2.077 
3.6823e-19 8.46146e-19 1 

-0.208752 0.0529713 -0.409803 
-0.00646879 0.0421743 0.219296 
-5.38409e-18 1.87575e-18 1 

-0.125207 -0.0698479 -1.11884 
0.0399166 0.053223 -0.516487 
-4.55606e-18 1.73564e-19 1 

-0.215582 -0.0806986 0.169071 
-0.039524 0.0191471 -0.107017 
-1.12284e-17 5.84811e-18 1 

-0.155851 0.0764815 -0.0979112 
-0.0499144 -0.0352815 -0.0364705 
-1.52564e-17 9.02743e-18 1 

-0.618365 0.383413 0.540701 
0.183088 0.268266 -1.00533 
-8.62281e-18 -5.92274e-18 1 

-0.108215 -0.120412 0.589565 
0.262182 0.0275541 0.515877 
1.20325e-17 2.67841e-17 1 

-1.17775 0.258367 -0.019883 
0.638781 0.147474 0.868808 
-2.89744e-17 -8.32728e-18 1 

-0.417434 0.133052 -0.796878 
0.711528 0.00579854 0.505298 
-5.64392e-18 8.59352e-18 1 

-0.0952679 -0.0326576 -0.0243723 
-0.00271457 0.00488253 -0.033218 
3.94204e-18 2.35464e-18 1 

-0.123631 -0.142503 0.072273 
0.157532 -0.0670799 0.144259 
4.72617e-18 4.61626e-18 1 

-0.15497 -0.00340917 2.04128 
-0.0212845 -0.0315025 0.853613 
1.54448e-18 1.24068e-19 1 

-0.142289 -0.0575569 0.0305801 
-0.0528946 -0.122906 -0.136723 
-1.37331e-17 -9.122e-18 1 

-0.145567 0.0481939 0.280668 
-0.0745901 -0.0317667 0.126764 
-7.91026e-18 5.10589e-18 1 

-0.340494 0.225503 -1.07093 
-0.0346894 0.0874871 0.315627 
-2.04342e-18 7.94752e-18 1 

-0.195768 0.049362 -0.26577 
-0.0194457 0.0350625 -0.273631 
8.00006e-19 -2.74288e-18 1 

-0.170837 0.0460386 -0.533703 
0.0511448 -0.043732 -0.146752 
1.51731e-18 1.2174e-17 1 

-2.04654 -0.324621 -0.221553 
-0.145 0.472691 0.210043 
-7.20428e-18 1.06863e-17 1 

-0.106752 0.261691 0.216739 
-0.238634 0.026393 0.0628459 
1.82292e-18 -2.38588e-18 1 

-0.302556 0.288121 0.360957 
-0.279496 0.0520998 -0.2467 
-4.70846e-18 8.01539e-18 1 

0.194252 -0.680517 -0.0717127 
0.722439 0.223945 0.140539 
-1.47453e-18 7.98705e-18 1 

-0.177491 0.0289264 -0.174734 
-0.0565176 0.00369411 -0.181845 
1.17023e-18 9.82466e-19 1 

-0.111059 0.0062143 0.117733 
-0.00949662 -0.0087689 0.126896 
-6.69892e-18 -7.14812e-18 1 

-0.14309 0.334208 0.246494 
-0.291679 0.0817827 0.619699 
-3.66038e-18 -2.90585e-18 1 

-0.12784 0.0197572 -0.176503 
-0.0292867 -0.0446489 -0.180509 
3.9311e-18 -5.89665e-18 1 

-0.931281 0.432957 -0.0937661 
-1.1059 0.390499 -0.00893746 
-9.05293e-18 -1.38916e-17 1 

-0.0918818 -0.080461 -0.00325616 
0.0927922 -0.073824 -0.0234604 
3.78219e-18 9.03522e-18 1 

-0.284251 -0.0218074 0.242289 
-0.0524065 -0.0337672 -1.41919 
1.16481e-17 1.82402e-17 1 

-0.0767346 -0.147206 0.0133324 
0.0785934 -0.0510627 0.0964192 
8.69772e-18 4.1749e-18 1 

-0.150008 0.0123195 0.165233 
-0.0603066 -0.0455467 0.0729178 
-1.31202e-17 -3.80838e-18 1 

-0.0885566 -0.0849172 -0.557951 
0.0525531 -0.0220112 -0.285674 
3.81484e-18 2.19454e-17 1 

-0.107441 0.0199516 -0.154418 
-0.0294264 -0.00995527 -0.140554 
3.3673e-18 -9.28597e-18 1 

0.118158 -0.877358 0.619176 
0.436339 0.296644 -0.581377 
1.06566e-17 -9.7203e-18 1 

-1.08544 -0.0765021 0.292861 
-0.0584363 0.268646 -0.411504 
-5.9729e-18 1.0448e-18 1 

-0.145488 0.00476759 0.482802 
-0.0736463 -0.0754935 -0.747862 
7.74647e-18 -3.52485e-18 1 

-0.151339 0.102144 -0.33921 
-0.0900887 -0.0386124 -0.16422 
-5.55995e-18 1.28307e-17 1 

-0.16687 0.065221 0.283985 
-0.173873 0.000970493 0.092266 
2.85703e-18 7.3323e-18 1 

-0.179719 -0.0576894 0.589876 
-0.0380869 0.0257593 -0.220527 
-6.40536e-18 1.30109e-18 1 

-0.220968 0.000762723 0.0522291 
0.016004 -0.00820906 0.174217 
1.8487e-18 -3.92148e-18 1 

-0.191282 -0.100204 -1.10427 
0.113375 -0.00960793 1.43806 
2.65735e-18 2.11225e-18 1 

-0.131439 0.0415346 -0.245505 
0.0020017 0.00190399 0.550161 
1.23461e-17 -5.80418e-18 1 

-0.128427 -0.0401604 0.0986812 
0.031316 -0.0424145 0.112152 
4.93967e-18 5.95847e-18 1 

-0.451611 -0.0677373 -2.569 
-0.125386 0.236545 5.96831 
-1.6304e-17 1.98305e-17 1 

-0.531673 0.132465 51.7819 
-0.218591 0.311147 -19.5869 
2.27328e-18 -3.14573e-18 1 

-0.142132 -0.0554169 0.114334 
0.0420615 -0.020469 -0.2007 
-1.488e-18 8.57493e-19 1 

-1.68112 -0.379845 29.3932 
-0.148127 0.721657 -97.6053 
-5.80811e-19 -2.59441e-18 1 

-2.70833 -0.110299 106.924 
-0.258484 0.660286 51.1265 
-3.40492e-18 1.98572e-19 1 

-0.551311 -0.298484 0.75406 
0.0226452 0.230969 -0.374566 
-6.21132e-20 -2.08424e-18 1 

-0.991362 1.38184 90.5078 
-0.077741 0.0200002 -4.20412 
3.04678e-18 -1.70729e-18 1 

-0.510965 -0.0366971 6.34621 
0.0962037 0.0978165 -3.85862 
-2.82798e-18 -1.40012e-17 1 

-0.686477 -4.07166 -538.273 
0.238228 0.749055 -13.8205 
-2.12228e-18 5.75908e-18 1 

-0.40818 -0.216962 0.0742045 
-0.183971 0.0609416 -0.108602 
1.54722e-17 9.37711e-19 1 

-1.36261 0.726269 -0.682336 
-0.205 0.384167 0.2519 
-3.42748e-19 -2.22786e-18 1 

-0.15925 -0.0121832 -0.0437364 
0.0476417 -0.0285092 0.0294325 
-1.77188e-17 2.77036e-18 1 

-0.340311 0.154004 -0.215454 
0.0577994 0.178422 -0.251968 
6.2343e-18 -5.16278e-18 1 

-0.142475 -0.0444262 0.167118 
0.0213948 -0.0726085 0.0681724 
1.6774e-17 1.3326e-17 1 

-0.199537 0.0401115 0.144779 
0.00905056 -0.00173836 -0.14369 
-7.12814e-18 5.90116e-18 1 

-0.127635 0.0067213 0.0333846 
-0.0144021 -0.0330802 -0.196572 
1.03366e-17 3.11167e-19 1 

-0.10587 0.0472402 -0.105994 
-0.0102592 -0.0344714 0.0700258 
3.87959e-18 -7.50427e-18 1 

-0.248935 -0.00158779 0.416873 
-0.0789781 0.0744494 -0.505181 
-8.44739e-18 6.75791e-18 1 

-0.384911 -0.204874 -1.84708 
0.146795 0.198926 0.782973 
-1.3282e-17 6.19827e-18 1 

-0.154274 0.350865 0.669088 
-0.156669 0.101185 -0.470821 
-8.24165e-18 3.23399e-18 1 

-0.202714 -0.0731497 -0.30373 
0.0561104 -0.0417227 0.599741 
1.18501e-17 -4.99529e-18 1 

0.0791663 -0.754882 0.744801 
0.683679 0.313295 -0.219805 
1.64505e-17 6.4632e-18 1 

-0.136325 -0.0269368 -0.00792652 
-0.00458164 -0.0598415 -0.135933 
2.93937e-17 1.37171e-17 1 

-0.373825 -0.17759 2.86929 
-0.0240568 0.189339 3.42045 
-6.66234e-18 8.8731e-19 1 

-0.256536 -0.139118 0.409569 
0.101453 -0.138044 0.130237 
8.93751e-18 1.44849e-17 1 

-0.370567 0.0990225 -1.10634 
0.202922 0.0692579 0.315857 
4.21155e-18 -5.91215e-18 1 

-1.02709 0.0399033 -0.208259 
-0.227405 0.263205 -0.24804 
-1.16169e-17 1.00794e-17 1 

-0.306765 -0.476202 1.88433 
0.369403 0.253581 -0.707576 
-3.76432e-18 1.22559e-17 1 

-0.129884 0.0309518 0.859467 
0.0230143 -0.0579122 0.106154 
-2.66049e-18 4.74678e-18 1 

-0.332731 0.148178 0.372426 
0.128475 0.0857449 -0.0256624 
9.55667e-18 -6.37111e-18 1 

-0.179711 -0.00323736 -0.247231 
-0.0163195 -0.0311181 0.142705 
-2.38334e-17 7.73946e-18 1 

-0.253876 -0.0184798 0.0149886 
-0.0789693 0.0246143 -0.265633 
9.89543e-19 2.93198e-18 1 

-0.736451 -1.77302 2.07172 
0.895714 1.15356 -0.618521 
-2.55913e-17 7.92596e-18 1 

-0.162487 -0.0129182 0.136542 
-0.00615199 -0.0350298 0.111627 
1.73395e-18 -3.04292e-18 1 

-0.630674 -0.162556 0.774166 
-0.0231065 0.00360241 -0.787239 
2.46041e-17 -2.2365e-17 1 

-0.619757 -0.366812 0.0301736 
0.281188 0.373629 0.440637 
-2.57285e-18 -8.20275e-18 1 

-0.180968 -0.0818519 -0.113061 
0.131571 0.00028839 0.0604089 
1.60803e-17 -1.21107e-18 1 

-0.668127 0.902394 4.38822 
0.157968 0.199868 -1.20643 
0 1.88783e-17 1 

-0.675357 -0.158796 6.86542 
0.227519 0.256837 -6.20076 
1.87183e-17 4.03688e-18 1 

-0.668059 -0.759167 -0.937309 
0.647179 0.603776 -0.676876 
-8.58543e-18 1.38297e-17 1 

-0.442844 -0.351336 -0.418788 
0.0852632 0.312773 -1.52812 
-1.27319e-17 1.01027e-18 1 

-0.216648 0.0529897 0.0336613 
0.00353173 -0.047951 -0.0590198 
-8.28605e-18 1.58659e-17 1 

-0.368654 -0.227933 -0.611998 
0.0036209 0.0242557 -0.698549 
-1.00675e-17 -8.45563e-18 1 

-0.189563 -0.0118893 0.0456881 
-0.0594662 -0.054139 0.203228 
1.11689e-17 1.20044e-17 1 

-0.331128 -0.109191 -0.989455 
-0.0468306 0.12026 0.188947 
-3.59458e-18 6.47025e-18 1 

-0.551553 -0.258361 0.281655 
-0.0769661 0.299814 -0.2908 
-5.54844e-18 -7.6119e-18 1 

-0.168129 0.0235142 0.380184 
-0.0284795 0.00224822 0.304799 
9.02695e-18 -8.07489e-18 1 

-0.907865 -0.270975 -0.393872 
-0.00657058 0.35509 0.55472 
1.74623e-20 -2.22203e-18 1 

-1.04823 -3.98503 1.5841 
0.163507 0.89962 -0.856601 
3.6426e-18 -1.01648e-17 1 

-0.259812 0.089527 0.119285 
0.13469 0.0184567 -0.185092 
-3.00032e-18 -7.11941e-18 1 

-0.218982 -0.0541025 -0.0114113 
0.0363414 -0.00508381 -0.0201567 
1.58732e-18 8.44777e-18 1 

-0.114078 -0.0216447 0.0928669 
-0.00121427 -0.020986 0.657084 
-1.53146e-17 1.47301e-17 1 

-0.0873814 0.043753 -0.186519 
0.00740606 -0.0263299 0.256343 
-9.69367e-18 -9.69367e-18 1 

0.210043 -0.903119 -0.157966 
0.783011 0.391736 0.311734 
-9.35897e-18 -1.20742e-17 1 

-0.180813 -0.143787 -3.56113 
-0.262317 0.0894691 -0.934296 
4.28185e-18 -9.56404e-20 1 

-0.129319 0.0228671 -0.0928759 
-0.0166294 -0.0169074 0.188681 
-4.42713e-18 -5.28149e-18 1 

-0.436894 -0.526792 -1.39265 
0.279018 0.170713 -0.739886 
-1.59433e-17 8.29788e-18 1 

-0.14142 -0.011079 -0.0735955 
-0.0259762 0.108182 -0.355825 
-1.58001e-18 8.30025e-18 1 

-0.177673 0.00631619 -3.2608 
-0.0167541 -0.00516519 -1.62722 
1.26933e-17 1.08641e-18 1 

-0.26446 -0.0151669 2.02599 
-0.0156946 0.0505788 -1.12308 
-5.09922e-19 -3.28124e-18 1 

-0.540154 0.136855 -0.485587 
-0.124779 0.253041 -0.693428 
7.04743e-18 -9.11517e-19 1 

-0.1616 -0.0140163 0.0276295 
0.00874168 -0.0752035 -0.281229 
-2.04697e-17 7.59013e-17 1 

-0.329586 -0.0440158 1.01069 
0.23479 0.0943043 0.46157 
-3.99161e-18 -8.8238e-18 1 

-0.568376 0.0526297 -43.2964 
0.0703493 0.104944 26.9658 
-3.80048e-19 -2.59327e-18 1 

-0.378333 -0.0568572 -0.5341 
-0.219492 0.213166 1.48452 
1.50743e-17 -3.14049e-18 1 

-0.435861 0.0904905 -0.0559975 
0.0108765 0.0540487 0.539707 
-4.9322e-19 2.33503e-17 1 

-0.573709 -0.548166 1.27245 
0.351634 0.0748404 -1.10219 
2.41236e-17 2.02537e-18 1 

-0.125103 -0.0111667 0.236569 
0.0140021 -0.0220881 -0.184925 
4.86443e-18 2.4142e-17 1 

-0.448138 -0.839943 -52.1851 
0.0284344 0.48232 21.0997 