# vtk DataFile Version 3.0
Output file generated by Yade's KinematicLocalisationAnalyser
ASCII
DATASET UNSTRUCTURED_GRID

POINTS 13483 float
446.634 54.7045 -0.481971
521.37 83.0649 0.454758
104.717 5.94886 -0.58427
551.099 5.49861 0.402529
397.453 10.9644 0.615428
273.68 44.5916 -0.470898
138.836 7.08598 0.460059
426.072 40.8669 0.1655
394.413 27.7603 -0.188049
508.966 15.8516 -0.559701
185.241 8.96736 0.127562
227.36 6.65701 0.326378
480.494 70.4127 -0.169168
460.827 54.5897 0.0742602
120.948 17.9658 0.549882
195.256 37.4899 0.41201
192.394 13.0447 -0.322988
254.684 11.5537 0.538116
294.588 41.8931 0.467456
417.637 8.09332 0.488831
340.464 47.0659 -0.155117
435.334 81.0678 -0.277463
546.285 47.5033 0.434309
495.323 65.8511 -0.393897
376.527 24.5305 -0.362839
210.76 51.1373 0.123095
388.761 37.5479 0.486529
434.89 49.9185 -0.255548
39.2949 16.9679 -0.457868
500.179 34.4936 0.370789
385.82 5.96238 -0.49149
15.7753 25.4204 -0.341175
534.165 90.5945 -0.253262
392.892 2.30123 0.568877
68.8009 48.1956 0.1106
416.744 32.9879 -0.458423
423.372 16.1321 0.539164
296.077 27.1591 0.186267
422.777 30.5844 -0.379357
301.518 45.527 0.469989
213.167 15.6972 -0.33011
357.522 46.4649 0.0741036
475.762 6.70747 0.194961
170.02 6.09823 0.452876
49.0038 7.36437 -0.0729689
59.5407 9.1945 0.260972
485.559 13.9489 -0.594815
20.7918 12.2166 -0.26455
438.594 94.7718 -0.353833
490.432 62.6075 -0.302306
151.443 34.2312 -0.218773
527.479 68.8534 0.163429
29.6764 31.1301 0.144677
426.63 2.68041 0.530873
125.903 7.72713 -0.558296
438.037 68.9812 -0.399078
400.267 31.3347 0.128793
157.5 0.993581 0.249183
29.7087 2.30625 -0.361757
300.659 19.8545 0.41886
449.339 94.5597 -0.132094
367.951 54.1364 -0.176913
333.061 1.00486 0.245449
493.683 6.83829 0.618774
22.7812 48.8882 0.247905
227.706 33.2741 -0.291053
511.477 10.6537 -0.249757
489.327 99.6627 -0.342454
346.173 9.03602 -0.63416
434.943 23.0429 -0.456519
517.515 50.7961 0.442171
114.873 7.8062 0.277395
395.557 30.947 0.181563
384.338 21.3757 -0.154096
259.717 17.2829 -0.571624
18.3255 14.5841 0.266627
545.088 88.3372 0.32273
286.773 47.3047 -0.299062
476.121 27.7693 -0.453154
484.647 19.7491 0.379299
539.54 14.8299 0.337044
369.948 54.8955 0.165964
82.5955 42.5756 0.0160102
495.26 73.4696 0.214194
477.01 82.3704 0.112525
553.377 50.4511 -0.146826
536.399 0.765985 -0.592394
256.608 31.6835 0.48367
456.382 24.2203 0.132038
22.1011 5.81226 -0.658979
116.581 41.9554 -0.137174
409.024 15.6169 0.206138
544.526 75.0353 -0.521917
174.439 32.5192 -0.276504
38.5563 37.3759 0.285093
391.988 1.11687 -0.11221
208.89 9.67236 -0.428574
510.41 63.4513 0.332785
535.307 66.0996 0.278614
308.748 29.2216 -0.333895
144.891 28.1345 -0.458593
397.942 75.5138 0.389172
321.323 20.5379 -0.537298
341.835 39.0971 0.157215
319.097 9.82421 0.472837
437.675 19.8612 -0.145499
553.588 16.1098 0.2736
70.7937 43.1832 -0.539289
290.979 7.83943 0.290972
422.009 37.5824 0.437429
304.056 63.733 0.499474
22.9172 28.8393 -0.542535
27.6108 6.10281 -0.333904
418.239 67.3677 0.450588
403.26 27.4537 -0.218259
21.9824 42.2015 -0.424775
83.0258 33.6382 0.271862
282.838 19.8133 0.402336
445.356 41.6103 0.164842
381.49 54.8139 0.379417
523.877 17.4354 -0.546424
517.629 14.6296 0.232249
324.224 51.0995 -0.100236
465.295 68.2609 0.135427
212.08 18.4321 0.551127
288.256 6.40739 0.508246
92.1219 34.2249 -0.299515
102.548 26.12 0.264656
394.92 79.5846 0.0718927
269.333 22.4045 0.639358
495.962 40.3995 -0.183626
493.444 96.8972 -0.102968
385.101 30.2198 0.428422
548.662 57.6188 -0.252522
354.258 30.3986 -0.296716
245.651 27.3958 -0.343545
492.201 80.5867 -0.339927
247.105 33.0573 -0.497742
433.911 40.5522 0.248542
288.239 44.146 0.198354
403.539 13.2593 -0.672911
312.505 44.7995 -0.118116
354.05 20.4336 -0.207852
277.054 54.6944 -0.431829
170.721 33.4988 0.159022
526.008 83.9374 -0.172592
550.605 16.8584 -0.396677
5.80238 13.3211 -0.43548
358.13 27.6521 -0.437223
33.3138 25.477 -0.0992204
321.037 41.2003 0.506683
332.379 30.4242 -0.279812
65.9706 12.733 0.553462
45.6753 35.264 0.374809
201.502 15.3175 0.55065
449.275 83.1799 0.430487
431.88 54.4401 -0.539898
66.6407 23.2137 0.633122
498.379 62.9969 -0.518905
539.633 38.7699 -0.634678
480.94 95.4062 -0.448798
490.107 2.74653 -0.6844
401.863 62.0624 -0.414249
436.187 82.4431 0.488624
412.368 19.2056 -0.42392
548.412 3.89663 0.53144
198.933 26.9885 0.18424
113.321 37.6904 -0.243655
220.561 6.83258 0.474775
82.8595 4.79974 0.283389
56.6314 11.8346 0.299608
245.997 41.5277 -0.298657
15.9697 27.1816 0.357792
414.388 52.5422 0.414307
436.879 90.0947 0.195398
370.02 39.7686 0.38553
551.172 101.502 0.362448
341.626 10.9285 -0.186146
352.493 56.3104 -0.364261
434.059 3.2472 -0.37979
20.5646 26.8168 0.565408
440.817 20.3485 0.522133
439.011 7.97367 -0.532571
184.253 11.7689 0.513811
351.934 19.7924 -0.484907
275.832 6.12631 0.474867
329.352 24.487 -0.516133
505.355 57.839 -0.124072
173.397 29.4725 -0.477225
531.105 6.08271 -0.524219
506.139 52.5959 -0.351485
326.591 11.9671 0.234561
510.331 1.97485 -0.603722
450.098 51.763 -0.43786
522.755 37.39 0.519992
341.284 62.6415 -0.261209
400.538 16.4146 0.542702
377.526 62.9946 0.24336
367.526 11.4727 -0.141484
484.673 94.1582 0.259809
483.32 89.7316 -0.281374
171.59 43.1556 -0.423327
537.88 16.0765 -0.233445
419.98 84.1667 -0.241698
10.9638 18.1546 0.221613
338.494 33.9964 0.425038
168.456 26.8152 0.410826
83.841 44.0166 -0.252393
545.215 71.553 -0.403861
478.267 100.7 0.231527
280.445 31.3441 -0.493473
431.407 10.0997 0.524606
73.6821 47.9975 -0.205692
222.337 28.1461 -0.539182
411.95 58.6543 -0.331216
393.268 26.3644 0.482372
235.214 0.875967 -0.482807
408.389 76.6127 -0.360605
389.078 80.0653 -0.440827
388.992 45.7672 -0.458556
401.534 2.47101 -0.641038
495.899 18.3543 0.679869
161.975 14.5117 -0.275274
404.942 40.1221 0.603146
418.829 75.7777 0.107175
64.8531 0.973645 0.3491
225.417 4.72504 0.237469
549.819 18.725 0.194323
539.913 16.3995 -0.560526
554.978 23.7283 -0.619003
269.185 8.84901 -0.469851
523.222 43.1543 -0.452592
342.274 53.4608 0.396423
369.364 0.787842 0.619251
482.334 77.37 -0.430382
23.4762 35.9189 -0.344962
288.753 50.4502 0.51644
226.354 3.00609 0.430874
538.438 90.4132 0.169785
513.157 91.043 -0.236805
256.61 13.0899 0.396685
485.53 78.4083 -0.0846449
447.634 2.64888 0.270429
435.595 12.7147 0.625152
86.9764 20.2288 -0.445656
268.969 0.909242 0.252405
299.14 2.31996 -0.361848
12.8703 8.06731 -0.609135
4.30326 32.4933 -0.314003
145.018 20.0417 0.349898
60.8485 44.7909 0.242324
58.8188 31.939 -0.298986
351.475 16.0243 -0.605213
316.352 56.803 0.470356
525.323 69.1196 -0.143789
17.9505 4.02786 0.292396
62.7099 7.42757 0.163422
457.759 81.548 0.130604
261.985 2.37313 0.508901
313.532 24.3853 -0.120096
211.076 5.40675 0.412804
483.214 58.6357 0.228108
370.89 8.95654 0.642102
525.631 44.9633 0.511582
464.322 71.4833 0.290704
475.734 25.7604 -0.102797
351.36 33.9352 0.584689
92.2576 49.5428 0.309378
399.363 82.2828 -0.0658544
523.811 28.5006 0.344141
213.647 32.6561 -0.276605
27.9165 19.5329 -0.212954
294.987 16.8696 0.569395
97.3159 44.6423 -0.458589
239.182 47.2911 -0.200895
358.342 4.04736 -0.277277
545.533 83.3674 0.384965
485.557 2.17356 0.67257
290.181 4.92802 -0.511954
265.207 32.6981 -0.147133
375.621 60.3928 -0.219957
72.1839 9.44802 0.599256
177.238 50.1788 0.392023
535.931 69.5674 0.448046
401.958 43.3807 -0.148551
179.629 46.2249 -0.309258
142.407 44.975 0.508032
554.581 44.2022 -0.523281
552.05 15.6898 -0.59139
450.623 17.4115 -0.663754
172.067 28.3409 0.103623
403.653 64.5884 0.103931
405.684 64.0758 -0.288674
344.541 6.46243 0.130539
391.35 3.05707 0.332741
521.696 70.2616 -0.541217
76.9139 34.032 0.238485
469.624 39.292 -0.424149
244.98 16.6061 -0.580177
8.13771 2.7109 -0.432466
113.659 42.1092 -0.206432
59.7053 25.2601 0.634448
492.367 42.0677 -0.396251
538.911 98.8069 0.160799
167.11 31.9273 -0.192314
548.198 14.4673 -0.484348
40.1313 38.9229 -0.296256
82.0378 31.8655 0.238571
469.092 51.1273 0.515555
345.641 24.4799 -0.660609
420.44 16.6588 0.156077
214.111 30.6274 -0.187985
460.093 12.9048 0.682724
555.304 17.2727 0.605711
26.0416 37.1194 0.34618
242.081 7.9081 0.233969
199.066 16.3868 0.286234
1.05266 36.9511 -0.156845
202.297 16.1194 -0.470504
190.046 10.9542 0.226546
192.435 29.1802 -0.3116
118.515 29.3011 0.191906
415.344 42.5542 -0.411498
150.303 15.2865 -0.376332
533.164 87.3564 0.226233
158.1 5.0268 0.612685
42.3194 40.1695 -0.479824
504.804 76.0847 -0.45585
251.717 35.4691 0.436559
477.321 48.7563 -0.588058
553.695 91.155 0.484332
268.129 10.2375 0.257606
511.697 42.113 -0.484513
288.822 2.49259 0.50787
347.589 30.9616 -0.511193
476.901 18.8645 0.736596
93.6307 13.2259 -0.603355
392.571 6.66934 -0.66509
528.048 45.6294 0.181163
78.0446 8.30245 -0.28375
251.989 16.3065 0.210404
352.543 14.4459 -0.329045
549.343 6.09387 0.577642
337.88 2.02748 -0.519257
158.343 42.0465 -0.318796
527.001 29.2685 -0.531486
115.142 38.7357 0.179727
236.182 34.0117 -0.443304
337.584 27.4901 0.243516
436.107 42.6614 0.635845
329.296 10.287 -0.587681
367.569 47.8585 -0.41924
522.865 82.6938 0.416532
42.5654 12.7964 -0.231096
263.463 46.1703 -0.277142
326.245 36.5893 -0.374967
343.569 25.7549 -0.372164
376.199 82.3028 0.354952
517.536 64.4532 0.215202
487.645 87.9567 0.365442
203.558 37.3498 -0.426954
12.4469 33.1072 -0.184571
481.736 91.0375 0.123345
366.422 72.3284 -0.446742
206.928 42.3185 0.133007
482.098 48.0092 -0.121893
136.078 9.5022 0.26143
314.324 32.181 0.411732
377.622 60.7908 0.108564
345.44 26.3304 -0.22085
517.991 81.5928 -0.0677309
356.482 7.84855 0.61883
43.3579 27.545 0.336701
379.886 47.7306 -0.356004
347.012 69.0443 0.291936
539.194 84.2431 -0.238765
510.907 38.9666 0.356367
408.429 50.6642 -0.159389
532.18 79.1147 0.453085
262.127 3.55584 -0.568691
318.881 44.6748 0.524626
25.0562 44.1901 -0.316162
512.491 44.4363 -0.173816
456.418 44.2298 -0.492265
379.212 2.58087 0.719251
112.277 4.71094 -0.380315
356.465 50.8422 0.114601
10.3747 0.960653 0.461816
548.644 8.03979 0.374145
320.211 61.346 -0.399273
[...]
POINT_DATA 13483
TENSORS Strain_matrix float
-2.20406 0.72202 -3.09519 
0.219702 0.577517 -4.70159 
-2.23313e-19 7.11292e-19 1 

-3.88827 4.04543 38.2267 
0.209925 0.989169 2.98405 
-3.57966e-18 5.9271e-18 1 

-0.222545 -0.0575521 -2.32011 
0.0701605 -0.0684626 -1.55915 
-6.89571e-18 -1.25349e-17 1 

-1.53801 1.07007 0.920675 
-0.460263 0.539997 0.0525077 
9.13099e-18 2.62862e-18 1 

-0.796948 0.0531184 -2.95791 
-0.217703 0.161558 0.629157 
-1.53157e-18 4.26404e-18 1 

-0.620473 0.256647 -0.557527 
-0.109866 0.37293 -0.0758241 
3.76602e-18 3.87161e-18 1 

-0.148845 -0.0404186 -0.235547 
-0.0200008 -0.0740742 0.746301 
5.76835e-18 -2.01138e-17 1 

-0.329555 -0.692426 0.0877328 
0.512255 0.443089 -0.0741384 
-2.11255e-17 -1.17252e-18 1 

-1.12252 -0.38281 -1.67401 
-0.920938 0.366185 -1.62648 
3.01131e-18 9.87836e-18 1 

-0.292696 -0.249709 -0.185787 
0.353823 -0.0275586 0.0704534 
-8.65495e-18 1.00054e-17 1 

-0.210904 0.0432446 0.0608482 
-0.0876688 0.0372634 -0.144147 
2.15795e-17 -5.92691e-18 1 

-0.339797 0.018574 -0.594891 
0.0306461 0.0308746 -0.848203 
1.56557e-17 5.43093e-18 1 

-0.388322 0.274616 -0.599828 
-0.141704 0.138734 -0.177702 
1.40351e-18 3.20802e-18 1 

-0.758521 -0.220132 0.159324 
0.684558 0.344374 0.127649 
-8.65428e-18 1.97585e-17 1 

-0.356391 -0.0811567 -0.881062 
0.0430661 0.0303488 -1.38193 
1.01249e-17 -1.63197e-17 1 

-0.163998 -0.0276933 1.0118 
-0.0819292 0.0330042 0.541341 
8.85233e-18 1.63932e-19 1 

-0.196943 -0.0770226 0.0913769 
0.0967293 -0.0904452 -0.0381445 
3.8073e-18 -7.75143e-18 1 

-0.563946 0.00471606 0.227871 
0.0755685 0.0432292 -0.557148 
1.33518e-17 -9.25761e-18 1 

-0.499691 -0.0517679 -11.4728 
0.245867 0.19904 -5.27739 
-1.32707e-17 -3.43187e-18 1 

-0.162367 0.100499 -0.0390888 
-0.208791 -0.149471 0.802786 
-1.28576e-17 2.8529e-18 1 

-0.316889 -0.0332179 0.17538 
0.0760327 0.0553863 -0.267354 
-2.9407e-18 -2.13869e-18 1 

-2.65343 -0.790465 3.05753 
0.942374 0.886555 -4.08205 
9.55429e-18 -1.84959e-17 1 

-17.5432 1.9124 -19.6606 
-7.92172 1.93862 -8.57058 
7.29828e-18 -8.81999e-18 1 

-0.851418 1.44453 -11.0906 
-2.30955 1.29065 -3.46686 
-4.56826e-18 2.51048e-18 1 

-0.755611 0.000373359 4.69944 
0.30601 0.238128 0.293357 
1.13651e-19 1.40514e-18 1 

-0.273304 -0.841427 -4.62101 
0.0365479 0.936739 -0.626872 
8.02489e-19 6.43708e-18 1 

-0.443786 -0.110029 1.67014 
-0.300467 0.101762 4.66769 
7.3339e-18 2.64123e-18 1 

-0.444216 -1.07418 -1.6049 
0.156203 0.281015 1.14998 
4.2328e-19 2.6455e-18 1 

-0.159755 -0.0663578 0.213028 
0.154513 -0.0928864 -0.554074 
-4.77382e-18 -3.71736e-18 1 

-1.00416 -0.397869 -0.937462 
0.245686 0.379091 -0.331435 
1.05675e-17 5.69596e-18 1 

-1.1949 0.288119 -0.114632 
-0.00898082 0.396935 -0.410649 
1.72113e-17 5.77412e-18 1 

-0.478708 0.140514 0.743622 
0.0398042 0.209699 0.288258 
1.02873e-17 -4.06268e-18 1 

0.235019 -0.830009 1.28871 
0.754084 0.39821 0.190505 
8.06331e-19 6.54304e-18 1 

-1.25436 0.644156 1.6674 
-0.299004 0.545371 1.1053 
2.04321e-19 -2.12494e-17 1 

-0.117137 -0.126803 -0.0986693 
0.0801428 -0.125847 -0.394875 
6.35047e-18 -1.01351e-17 1 

-6.70616 -5.28348 0.206924 
2.81807 3.49722 3.39041 
-1.98975e-17 1.75927e-17 1 

-0.517512 -0.134375 -3.58717 
0.0145923 0.236679 2.32581 
-2.27468e-18 6.63188e-18 1 

-1.30615 0.214438 -1.39004 
-0.0653369 0.353497 0.24468 
-1.81766e-17 1.0508e-18 1 

-3.07434 -4.46189 -14.2808 
1.89969 3.2256 10.0269 
1.14568e-17 -1.98572e-18 1 

-0.775627 -0.422154 -24.9178 
0.40672 0.409601 -5.88217 
1.05082e-17 -1.37726e-17 1 

-0.146921 0.0164634 -0.110018 
-0.0282404 -0.0216039 0.294424 
-4.43748e-18 2.01166e-18 1 

-0.375535 -0.478073 -0.713481 
0.616327 0.209124 -0.784124 
3.56423e-19 1.61362e-17 1 

-0.570453 -0.282728 -0.138363 
0.195262 0.137857 -0.523699 
-1.60504e-17 -3.75647e-18 1 

-0.316637 0.0349389 0.374602 
0.00704046 -0.064674 1.07854 
1.67016e-17 5.12182e-18 1 

-0.189794 0.150676 -0.0758232 
-0.0955997 -0.000304353 0.0129523 
-8.86887e-18 8.59676e-18 1 

-0.285981 -0.0171466 0.35091 
-0.113893 0.0692961 -0.367064 
-1.22684e-17 9.47458e-18 1 

-0.849709 0.235207 1.19138 
-0.7623 0.0583079 0.472552 
-9.5277e-18 -6.04413e-17 1 

-0.0780292 0.0637677 -0.131105 
-0.0613934 -0.105271 -0.0468102 
-2.67023e-18 -5.34047e-18 1 

-0.337251 -0.544678 9.58667 
-0.251123 0.0967004 3.23616 
1.19894e-17 3.16636e-17 1 

-4.8095 0.309259 5.45621 
-0.37372 -0.628717 0.435558 
8.0652e-18 -1.54639e-17 1 

-0.279444 -0.316297 0.791652 
0.193197 0.240831 0.0300898 
-2.94645e-18 -1.00513e-17 1 

0.0281427 -0.598505 -0.459995 
0.702888 0.245925 0.663721 
-9.90149e-18 1.17928e-17 1 

-0.234014 -0.0653682 0.562948 
-0.22131 0.159293 -0.104474 
6.11822e-18 -5.05899e-18 1 

-0.393521 0.354165 0.0542422 
-0.0936983 0.0185431 0.373709 
-1.74597e-17 -8.00395e-18 1 

-0.432184 -0.109112 -0.17661 
0.166979 -0.0412256 0.378339 
-1.09793e-17 3.49343e-19 1 

-0.999242 -0.482699 -6.52191 
0.274953 0.476158 1.23344 
-1.60733e-18 1.10171e-17 1 

-0.274473 -0.0316621 -0.140765 
-0.410528 -0.0149375 0.05099 
1.03077e-17 8.7518e-19 1 

-0.765067 0.823825 -0.966096 
0.172038 0.619718 -0.393281 
8.60044e-18 1.80604e-17 1 

-0.128433 -0.0723156 -0.0578852 
-0.0205734 -0.0585945 -0.405338 
-8.42468e-18 9.44586e-18 1 

-0.750384 -0.424236 -0.0884908 
0.240957 0.308524 0.495134 
-8.5882e-18 5.46522e-19 1 

-0.344058 -0.367915 1.17486 
0.190478 0.795988 -1.17343 
2.87598e-18 3.68716e-20 1 

-0.299662 0.0318356 0.0136104 
-0.269351 0.201292 -0.935719 
-5.14417e-18 5.59429e-18 1 

-0.162537 0.16227 -0.033842 
-0.0292644 -0.163512 -0.0915671 
9.06387e-18 -3.98463e-17 1 

-0.373142 -0.138897 0.617105 
0.00469535 -0.0908956 1.91551 
1.12499e-17 2.09596e-18 1 

-0.367527 0.0809146 0.756833 
-0.0464875 0.0552825 0.819128 
4.00229e-18 2.28881e-17 1 

-0.406705 0.211244 0.000566068 
0.0407977 0.160821 -0.129306 
-1.70373e-18 5.67911e-19 1 

-0.589279 -0.53373 0.497565 
0.353526 0.208694 0.839697 
9.84654e-19 2.11947e-17 1 

-1.83767 -0.962877 7.28979 
-0.029259 0.956423 -2.99709 
-3.55143e-18 -2.20444e-18 1 

-0.674129 0.094135 0.686454 
-0.418723 0.211846 2.56788 
2.3032e-17 -1.73299e-18 1 

-4.50293 -6.56185 10.9159 
1.6439 2.5678 -5.16194 
1.25452e-17 1.63974e-17 1 

-0.993415 -0.984221 1.24603 
0.719079 0.655268 -0.290928 
1.2587e-17 -1.011e-17 1 

-0.126166 0.00680597 -0.153777 
-0.0662933 -0.0464011 -0.0268708 
5.73573e-18 -7.8524e-18 1 

-0.567326 0.103449 -0.418125 
-0.638799 0.197232 -1.1096 
1.23753e-17 -2.70221e-18 1 

-2.33954 -0.217051 1.41796 
0.104757 0.47668 -0.393258 
1.14152e-17 -2.58807e-17 1 

-0.291622 -0.0521233 -1.11191 
-0.0159254 0.0537515 -1.28466 
5.87904e-18 4.26639e-18 1 

-0.303915 0.15172 0.103771 
-0.0841729 0.108797 -0.150277 
2.08028e-19 3.27476e-18 1 

0.360356 -0.857602 -0.353635 
0.853231 0.403993 -0.291311 
-6.53661e-18 -3.36635e-18 1 

-0.247823 -0.0793135 -1.30416 
-0.0413892 0.00961469 -0.466418 
-1.86631e-17 2.29116e-18 1 

-4.18926 0.615252 0.871724 
0.07236 0.33675 -0.419849 
-1.35614e-18 6.50949e-18 1 

-0.80583 0.099563 -0.00129384 
-0.102991 0.351399 -0.694498 
8.21397e-18 8.60185e-18 1 

-1.10107 -0.395068 0.776667 
-0.225189 0.364561 0.0224635 
-1.74498e-17 8.19209e-18 1 

-0.334307 0.0400009 -0.266507 
-0.206864 0.204082 -0.620208 
-7.64839e-18 2.50394e-17 1 

-0.262684 -0.110966 -0.389985 
0.191026 0.10665 0.00936837 
-3.96825e-18 -5.0956e-18 1 

-2.7624 1.97484 1.50977 
-2.12062 1.89025 2.46968 
7.63944e-18 -4.80193e-18 1 

-0.143591 -0.907288 1.00339 
0.155543 0.555169 -1.14811 
-5.35286e-18 -7.74577e-18 1 

-1.38393 0.436869 0.651691 
-0.286802 0.397321 0.680216 
-1.59175e-17 1.25941e-17 1 

-1.09726 3.13063 9.79943 
0.00219411 1.49473 1.97507 
7.51308e-18 -5.75978e-17 1 

-0.52391 -0.0192789 -1.56471 
0.18342 -0.0341806 2.19484 
3.1208e-19 7.45391e-18 1 

-3.67268 1.51324 0.556539 
-0.0646253 0.588578 -0.314473 
-8.63648e-18 1.12573e-17 1 

-0.288672 -0.0338419 -5.22705 
0.0258244 0.00951061 -0.128391 
4.76835e-18 -3.56404e-18 1 

-0.68911 0.311096 -0.767593 
-0.0426264 0.34436 -0.536143 
3.38624e-18 2.44851e-17 1 

-0.366324 0.289643 -0.174992 
-0.0234221 0.0398095 0.025563 
-9.03623e-18 -9.78925e-18 1 

0.131664 -0.856021 19.7904 
0.737559 0.446844 19.733 
5.65923e-19 4.18076e-18 1 

-0.183377 -0.128874 -0.30543 
0.0815961 -0.0328064 -0.25898 
1.93147e-17 2.13383e-18 1 

-0.167653 0.201701 0.444828 
-0.167075 0.0282219 0.530968 
1.82394e-18 -5.47181e-19 1 

-1.53993 0.438869 2.85763 
-0.408853 0.725385 0.0670251 
1.4139e-18 -1.11812e-17 1 

-0.230552 0.0118794 -0.354891 
0.00741457 -0.0151215 -0.824024 
-1.95897e-18 -6.82375e-18 1 

-0.0495618 -0.7277 -1.12117 
0.43303 0.0471163 -0.535647 
-5.40634e-18 -5.18834e-18 1 

0.17903 -0.765852 0.135869 
0.697116 0.231667 -0.344552 
7.92031e-18 -7.02213e-18 1 

-0.301991 -0.312603 1.25393 
0.343575 0.149415 0.488619 
6.89078e-18 -1.12711e-17 1 

-0.209033 -0.120943 -2.82214 
0.0313248 0.0447556 0.455332 
-1.52158e-18 -1.58529e-17 1 

-0.179647 0.291947 3.08655 
-0.199779 0.0508567 -0.695757 
1.51181e-18 -1.35685e-17 1 

-0.776702 -0.022209 1.64194 
-0.281596 0.270923 -1.56056 
-5.83169e-18 4.79338e-18 1 

-0.414698 0.0948443 0.651756 
-0.127121 0.0735919 0.401918 
-9.30382e-18 7.35117e-18 1 

-0.792857 -0.036318 4.50997 
0.00398121 0.215919 -3.05372 
-8.0087e-18 1.20379e-18 1 

-9.30958 -7.90578 8.55173 
1.16254 2.13711 0.43376 
-3.18695e-17 -5.17879e-18 1 

-0.398229 -0.743279 -0.316947 
0.5117 0.136484 -0.194203 
1.68343e-17 -9.45927e-18 1 

-0.253921 0.00447896 1.29979 
-0.0163005 0.0831709 1.11448 
-2.80645e-18 -2.89266e-18 1 

-0.355637 0.438882 0.113101 
-0.367962 0.134582 -0.277266 
-8.9265e-18 6.22822e-18 1 

-1.07835 -2.05377 22.6893 
1.00265 1.30342 -13.1858 
-3.82831e-18 9.82191e-19 1 

-0.258284 -3.94474 -175.696 
0.0128541 1.03075 23.9167 
1.87472e-19 1.82607e-18 1 

-0.473454 0.049852 0.713143 
0.23998 0.235843 0.024376 
-8.35317e-18 -5.58996e-18 1 

-0.207815 0.0942094 0.165107 
-0.112524 -0.101572 -0.185166 
-1.78752e-18 3.64533e-18 1 

-0.385596 0.445989 -0.347787 
-0.214145 0.306129 -1.18826 
-1.33088e-18 6.54347e-18 1 

-0.243846 -0.0875116 -0.315435 
-0.280244 -0.0690473 0.139234 
4.06306e-18 -4.86721e-19 1 

-0.168599 -0.049793 -1.44053 
0.0696294 0.069981 -0.63946 
4.07954e-18 9.07965e-18 1 

-0.309193 0.0693928 -0.572066 
-0.037508 0.126433 -0.441221 
1.76237e-18 -8.20179e-18 1 

-0.37011 0.0727808 -2.74124 
0.108923 0.1411 -0.314709 
5.08814e-19 6.9962e-19 1 

-0.901446 -0.55479 -0.000737402 
-0.0660206 0.603688 -0.433918 
-8.92181e-19 -1.65185e-17 1 

-0.119767 0.385411 0.182531 
-0.270932 0.0855616 0.273305 
1.54842e-17 1.7447e-18 1 

-1.15827 0.29493 -0.0954267 
0.561181 0.206655 0.892146 
-8.05984e-18 -2.63578e-17 1 

-0.342878 -0.0424104 -0.548513 
0.902944 0.0573335 0.426965 
2.01917e-17 -1.1068e-17 1 

-0.128808 0.299401 0.348795 
-0.265235 0.0751972 0.131599 
1.73974e-17 1.11611e-18 1 

-0.10529 -0.0219554 0.145641 
-0.0245561 -0.071162 0.151018 
9.68191e-18 -9.22723e-18 1 

-0.243026 -0.0636231 1.37421 
-0.0704214 0.0137746 1.04124 
1.04884e-17 -2.94987e-18 1 

-0.837757 -0.366771 -0.00532041 
0.248456 0.283328 -0.104977 
-1.51548e-17 8.82125e-18 1 

-0.251642 -0.0751514 0.272029 
-0.0151355 0.0785041 0.280086 
1.2757e-18 7.11448e-18 1 

-0.463932 0.659329 -0.906357 
-0.0118028 0.238689 0.418286 
-1.64009e-17 1.02346e-18 1 

-0.176756 -0.417977 0.271683 
0.0601851 0.21578 -0.404336 
-2.57426e-18 -7.07491e-18 1 

-0.463372 0.0239482 -0.748945 
0.302594 -0.0691851 -6.09914 
-2.02568e-17 -1.53186e-17 1 

-2.10246 -0.435445 -0.238379 
-0.124425 0.461317 0.214127 
-1.50999e-18 -6.75052e-18 1 

0.0210335 0.513462 0.176987 
-0.497693 0.116503 0.0357321 
5.08139e-20 0 1 

-0.660702 -0.573661 0.25029 
-0.717385 0.107354 1.08638 
1.36683e-17 2.0152e-18 1 

-2.09777 -0.0283835 1.92794 
-0.209409 0.351888 1.22569 
2.75516e-17 -1.79743e-17 1 

-0.343971 0.100956 -1.03108 
0.0638309 0.0329254 -0.631351 
-6.56688e-18 -4.29701e-18 1 

-0.377783 -0.000534546 0.835569 
0.0210278 0.141294 -0.943718 
2.82412e-18 -3.72196e-18 1 

-0.00788807 0.685152 -1.13422 
-0.597813 0.182649 2.08736 
-9.5017e-19 7.43169e-18 1 

-0.352152 -0.0686357 1.88567 
0.0429963 0.166624 0.330364 
-4.24573e-18 3.1316e-18 1 

-1.47846 -0.045873 -0.302102 
-1.02879 0.169275 -0.525017 
-1.20524e-18 1.60699e-17 1 

-0.0679024 -0.250888 0.0705709 
0.226439 -0.0255161 0.0360444 
1.36834e-17 -2.08994e-18 1 

-0.790306 0.0685253 -4.23233 
-0.485028 0.253302 0.142344 
-6.01056e-18 1.40488e-17 1 

-1.74598 -0.0260294 -1.50375 
-0.632506 0.552144 -1.86771 
-8.49377e-18 7.31521e-18 1 

-0.675376 0.230508 -0.436552 
0.143795 0.13612 0.0921776 
1.70564e-17 -1.15896e-17 1 

-0.480768 -0.414888 4.81518 
-0.0656683 0.635867 -12.0368 
8.03775e-18 1.45687e-18 1 

-0.138296 -0.0428865 -0.246123 
0.00989451 0.00925882 -0.140254 
4.91836e-19 -5.84417e-18 1 

0.157402 -0.954797 0.728007 
0.47434 0.319042 -0.616579 
7.80117e-18 6.16544e-18 1 

-1.24798 -0.165178 0.281992 
-0.0244057 0.305765 -0.371519 
1.54163e-17 1.67999e-17 1 

-0.165282 -0.0371755 2.17815 
0.03054 -0.0711695 1.3206 
1.96736e-18 -1.45461e-17 1 

-0.411655 0.0930017 -2.29932 
-0.208551 0.122131 -1.2273 
-6.58431e-18 4.4893e-18 1 

-0.256001 -0.0485945 -0.0144188 
-0.0948362 0.015295 0.210206 
-1.34852e-18 -2.07464e-18 1 

-0.90513 -0.837774 -14.8619 
0.015949 0.568009 5.28566 
5.18444e-18 3.79112e-18 1 

-1.39954 -0.277339 0.0456793 
-0.191013 0.511425 -0.145788 
4.24805e-18 -4.84488e-18 1 

-0.284407 -0.072556 -0.0784086 
0.141757 0.046842 1.71323 
7.27956e-18 2.10627e-18 1 

-0.172631 0.109477 0.505585 
0.0352893 -0.0890463 -0.512194 
-3.57727e-18 -2.00327e-18 1 

-0.230855 -0.0738748 2.04722 
0.0472552 0.0376169 -0.861018 
-7.44864e-18 6.08549e-19 1 

-0.294929 0.148303 -0.90882 
-0.248753 0.0994886 2.12713 
1.00579e-17 -1.12725e-17 1 

-0.575527 -0.00841218 -7.8098 
-0.188206 0.217381 5.31316 
-1.43177e-17 4.2759e-18 1 

-0.225521 0.01127 -4.3319 
-0.00653817 0.0189682 -1.48554 
5.94388e-18 3.51502e-18 1 

-3.60053 0.8042 9.73515 
-0.743535 0.694913 -26.8747 
1.35934e-17 6.93296e-18 1 

-2.58347 0.70566 105.936 
0.183906 1.29674 51.8759 
-2.68633e-18 -9.06637e-18 1 

-0.157837 -0.060652 0.00578903 
-0.154053 0.121857 0.396028 
1.32364e-18 1.09813e-18 1 

-0.6823 0.627597 -2.18241 
-0.107843 -0.140999 -0.938107 
-1.01485e-17 -1.73782e-17 1 

-1.86109 -2.15746 -0.371644 
0.645755 1.03095 -3.45481 
3.87894e-18 -3.66344e-18 1 

-2.69971 -2.1127 -13.6083 
1.09371 1.52135 7.4946 
-2.06037e-18 -1.05043e-17 1 

-0.455748 -0.222468 0.0872099 
-0.189243 0.0761671 -0.151928 
-3.29194e-18 1.83343e-17 1 

-1.77198 0.924877 -1.41189 
-0.173041 0.475517 -0.551759 
9.40365e-18 -5.0878e-18 1 

-0.273762 0.0502272 0.630555 
-0.0324178 0.0781251 0.357352 
3.64757e-19 1.53745e-17 1 

-0.759789 -0.0527864 -0.657335 
-0.0323707 0.16286 -0.177853 
-3.35636e-17 1.48975e-18 1 

-0.215259 0.101774 1.22562 
-0.0670463 -0.0731108 2.0342 
3.35306e-18 -2.45383e-17 1 

-0.271362 -0.125557 0.413006 
0.0370454 0.00241563 -0.300865 
2.86602e-18 1.43507e-18 1 

-0.335677 0.021285 -0.0816326 
-0.119192 0.0910494 -0.754789 
2.75986e-18 8.3645e-18 1 

-0.363368 -0.10597 -1.0523 
0.0558637 0.244496 0.0156289 
-1.33289e-17 -1.83676e-18 1 

-0.252906 -0.115646 0.333473 
0.0593028 0.10496 -0.715409 
1.35278e-17 4.30976e-18 1 

-1.31302 -1.21094 1.69438 
0.29631 0.839382 -0.997691 
-3.22768e-18 1.70187e-17 1 

-0.120332 0.326613 0.47307 
-0.167934 0.0953351 -0.414529 
-1.32544e-17 -9.71906e-20 1 

-2.7191 -3.27231 -10.4737 
0.988693 1.58855 4.39349 
-2.29994e-17 -5.26492e-18 1 

0.178707 -0.843953 0.915249 
0.726242 0.341586 -0.277261 
1.28246e-18 -5.86268e-18 1 

-0.197113 0.023358 0.111817 
-0.0453259 -0.067938 -0.154233 
1.91938e-18 4.20238e-18 1 

-3.69045 -2.64537 0.148124 
1.0796 1.56124 3.19012 
-6.75876e-18 3.30199e-18 1 

-0.256317 -0.189656 -0.0261384 
0.193482 -0.338507 -0.328016 
3.29633e-17 -3.73852e-18 1 

-0.523865 0.0654517 -3.5143 
0.218504 0.176716 -1.43462 
8.72977e-18 7.27134e-18 1 

-2.07775 -2.93031 9.42411 
-0.088547 0.240131 0.224254 
-3.32373e-18 -9.0523e-18 1 

-1.07611 -0.661118 0.100678 
0.440614 0.301692 -0.082557 
-1.43556e-18 4.55733e-18 1 

-0.217469 0.149508 -0.199975 
-0.135596 0.00692591 -0.0142868 
4.67989e-18 -4.54019e-18 1 

-0.928608 0.277501 -2.17357 
-0.150623 0.229423 -1.85929 
-5.09009e-18 -7.52202e-18 1 

-0.282343 -0.0522477 -0.117488 
-0.0822761 -0.0850092 0.184264 
-1.67391e-17 9.06701e-18 1 

-0.800193 -0.0850694 0.631382 
-0.426521 0.057019 -0.205561 
-1.2434e-17 -1.26448e-17 1 

-0.670584 -1.70796 2.87763 
0.810739 0.910196 -1.33709 
3.7673e-18 -1.41828e-17 1 

-0.20842 -0.0894126 1.94857 
0.0119132 -0.0250407 0.222592 
1.87929e-18 -7.07194e-18 1 

-0.604783 -0.161961 0.324525 
-0.0190659 -0.0233119 -0.971852 
1.41528e-17 -1.0214e-17 1 

-0.634002 -0.566624 -0.547185 
0.31887 0.434561 0.345215 
4.49781e-18 -9.64765e-18 1 

-0.627034 0.665684 -0.620185 
-0.442595 0.296752 0.260875 
-1.31896e-17 -9.11974e-18 1 

-0.913835 0.207484 7.42386 
0.0755195 0.21706 0.432027 
-9.10513e-18 -1.72392e-17 1 

-0.834041 -0.301799 8.49799 
0.225613 0.398987 -7.55215 
1.59191e-18 6.6954e-18 1 

-0.672303 -0.908717 -0.890646 
0.703189 0.670502 -0.746432 
8.17011e-18 8.67548e-18 1 

-1.73513 -2.01272 -28.815 
0.253396 1.15661 -0.999992 
-1.94599e-18 -1.16574e-17 1 

-0.613011 -0.243289 -0.39494 
0.130918 0.0384487 -0.235728 
-1.32612e-17 7.90029e-18 1 

0.832443 -10.2021 -19.5029 
-0.530642 1.78504 2.2212 
-1.14866e-17 -1.04189e-17 1 

-0.685582 0.822547 0.412436 
-0.853782 0.581159 0.832818 
7.4462e-18 -9.69738e-18 1 

-0.192317 -0.00360126 -1.15351 
-0.15385 -0.0229495 -0.685875 
-5.60263e-18 -8.58468e-18 1 

-0.397505 -0.0319367 -0.829499 
-0.185855 0.271642 0.408583 
4.02491e-19 -5.59015e-18 1 

-0.398747 -0.198474 -0.054665 
0.0103212 0.121652 -0.19527 
-7.56768e-19 -3.45275e-18 1 

-1.24588 -0.402884 -0.249591 
0.162347 0.506691 0.753771 
-4.19371e-18 -6.02e-18 1 

-1.22642 -3.72966 0.814818 
0.148166 0.885549 -0.380279 
3.84803e-18 -7.31962e-18 1 

-0.274764 0.101628 -0.250508 
0.0156137 -0.0210244 -0.174516 
1.32802e-17 -7.3108e-18 1 

-0.786341 -0.250166 1.45015 
-0.00195706 0.255052 -0.576836 
4.7034e-18 -1.34414e-17 1 

-0.102598 -0.112149 0.754061 
0.0973631 -0.0224062 0.20715 
5.24841e-18 6.18245e-18 1 

-0.171133 -0.112681 0.134207 
0.167891 0.0703615 0.349598 
1.49191e-17 -7.39188e-18 1 

0.20482 -0.874185 -0.223185 
0.840964 0.414494 0.22509 
-1.34699e-17 4.42369e-18 1 

-0.145778 0.0211629 -0.0138011 
-0.230519 0.108831 -1.48711 
-4.99565e-18 5.03666e-18 1 

-0.364574 0.179357 -1.42629 
-0.186 0.0489146 1.01664 
4.21461e-18 -3.33396e-18 1 

-0.643212 -0.156739 -1.31423 
0.362351 0.196318 0.148818 
8.69738e-18 -1.05238e-17 1 

-0.220395 -0.112574 0.427568 
-0.0103828 0.185729 -0.652832 
5.575e-18 2.75958e-17 1 

-0.236139 0.0506536 -0.0735108 
0.0404357 0.016795 -0.349817 
-2.07532e-17 6.0435e-18 1 

-0.376052 -1.29662 -0.391497 
0.0582612 0.4701 0.471885 
7.89376e-18 5.18068e-18 1 

-0.931929 -0.190454 -0.731018 
-0.483605 0.421954 3.61422 
-8.15044e-18 3.59319e-18 1 

-0.33804 -0.285037 0.313743 
0.0179452 -0.00857733 0.0713348 
-4.47935e-18 3.56726e-18 1 

-0.180375 0.0283475 1.61379 
0.121084 0.053689 1.42921 
-8.70722e-18 7.46576e-18 1 

-0.483187 -0.805176 9.12524 
0.146028 0.184469 19.2268 
-2.11526e-19 -2.40675e-18 1 

-0.334692 0.411728 -0.0502833 
-0.559618 0.342416 1.9449 
8.84437e-18 9.55616e-18 1 

-0.623165 0.204784 -5.13987 
-0.0455512 0.166045 0.207909 
1.26235e-17 1.57487e-18 1 

-0.71273 -0.38455 3.22576 
0.512872 -0.00177586 -2.20512 
-5.30495e-18 3.90642e-17 1 

-0.175097 -0.0269516 0.227021 
0.0654616 -0.0189964 -0.155959 
1.82475e-18 -3.50352e-18 1 

-1.32983 -0.382351 -7.48471 
0.235335 0.453709 4.93057 
7.45478e-19 5.0127e-18 1 

-0.140149 -0.372808 0.740121 
-0.132922 0.0664714 -0.0618251 
1.8433e-19 -1.76036e-17 1 

-0.277002 1.27962 -0.564658 
0.00612045 0.301069 0.45629 
-2.8275e-18 -1.31414e-16 1 

-0.149674 -0.0213004 -0.196633 
0.0861496 -0.0833655 -0.195763 
7.39992e-18 7.53121e-18 1 

-0.781455 -0.372605 0.309017 
0.0184382 0.176002 -0.703221 