# vtk DataFile Version 3.0
Output file generated by Yade's KinematicLocalisationAnalyser
ASCII
DATASET UNSTRUCTURED_GRID

POINTS 13483 float
520.142 42.1107 -0.496844
603.072 82.1457 0.481391
110.354 6.10506 -0.566287
632.881 5.61928 0.384316
451.352 10.6071 0.607132
295.676 37.5926 -0.549479
144.968 7.04474 0.459601
497.389 27.7357 0.139937
450.498 27.9878 -0.167763
588.874 15.5209 -0.564946
196.814 8.77736 0.147311
241.848 6.31615 -0.248454
552.869 60.3926 -0.198962
534.29 42.3669 0.0800764
126.962 17.7982 0.54499
206.989 35.0274 0.416956
204.086 13.0768 -0.301544
271.733 10.8831 0.50655
319.603 34.0142 -0.493494
472.574 7.91717 0.477281
381.976 38.6217 -0.133178
509.347 66.6618 -0.35043
627.626 46.3512 0.42843
572.323 61.5962 -0.427055
423.471 23.9944 -0.412337
225.133 46.0278 -0.134254
446.205 35.0982 0.480049
507.779 35.2008 -0.230515
41.0163 16.8808 -0.347242
580.645 34.4421 0.364332
438.538 6.31717 -0.422826
15.5239 24.1898 -0.426581
615.38 89.2296 -0.252428
445.728 2.42027 0.524265
71.8223 46.6716 -0.101449
473.708 32.5422 -0.372593
478.864 15.656 0.517809
322.62 22.7722 -0.260028
479.756 28.3276 0.32502
328.528 34.7274 0.595253
225.998 14.6721 -0.33125
401.638 41.7269 0.064684
554.583 6.84484 0.101263
179.667 6.26797 0.419121
50.6588 7.16955 -0.0856158
63.3845 9.36074 -0.296825
564.995 14.0485 -0.558776
21.7526 11.9304 -0.272291
511.335 81.5125 -0.354411
564.481 57.8751 -0.347687
160.302 32.7782 0.340047
609.011 67.8834 0.16793
31.4418 30.3904 0.134788
482.589 2.86581 0.411824
131.675 7.43983 -0.566254
512.141 54.3512 -0.363281
456.943 31.8082 -0.18337
163.088 0.961452 -0.290471
30.5122 2.32584 -0.366994
327.375 18.0883 -0.254122
520.801 81.4219 -0.131833
422.479 43.4098 -0.183961
372.592 1.02838 0.210112
572.883 6.95319 0.607732
24.0453 46.7167 0.251345
241.167 31.395 -0.339558
591.117 10.1813 -0.282308
558.851 89.8282 -0.351236
389.937 8.56756 -0.666914
500.8 14.4931 -0.543062
598.744 50.1177 0.451621
120.572 7.79198 0.275666
451.996 31.1442 0.128487
435.849 20.4814 0.0995592
277.546 17.2922 -0.390863
19.3641 14.0749 0.357875
626.422 86.8966 0.331144
312.578 40.7907 -0.301923
555.309 26.8976 -0.415429
564.038 19.8946 0.356282
620.865 15.0938 0.258869
424.164 45.0735 0.161719
85.7545 40.5785 -0.283212
570.284 65.3885 0.381722
548.607 71.8356 -0.092833
635.318 50.0366 -0.141043
617.507 0.777129 -0.597429
274.999 30.2859 0.450352
530.961 13.8524 0.104523
22.8888 5.7099 -0.651487
123.467 41.0269 -0.175344
463.75 15.6 0.203488
625.953 73.6791 -0.528959
183.382 29.4567 -0.228736
40.3574 36.4504 0.289336
444.892 1.14191 -0.106693
221.964 8.84802 -0.410788
590.837 63.5793 0.266949
616.785 64.9198 0.28378
339.498 22.424 -0.302237
152.148 27.374 -0.437183
473.787 60.6269 0.388843
357.294 17.1766 -0.491708
385.722 31.4807 0.124459
354.592 6.54165 0.462672
494.146 17.0047 -0.109939
635.346 15.7917 0.283068
73.8263 41.649 -0.466258
315.471 5.05399 -0.209558
492.494 25.259 0.314815
337.665 46.6819 0.533529
23.7776 27.4474 -0.612227
28.5546 5.98462 -0.32584
493.135 52.7654 0.476473
459.089 27.847 -0.183216
22.9647 40.0526 -0.427989
86.899 32.7149 0.242295
306.752 16.9858 -0.29561
518.614 28.8739 0.140489
435.179 49.0725 0.310534
603.822 16.573 -0.530208
597.497 13.7483 0.207273
363.279 39.9232 -0.138635
538.293 56.5497 0.143201
224.952 17.4416 0.539502
311.631 4.67141 0.467517
96.4822 32.587 0.408337
108.235 25.3691 0.329701
471.396 64.8319 0.0788218
289.557 19.3117 0.479409
576.496 40.456 -0.16981
563.108 87.4978 -0.103055
440.566 27.5392 -0.544761
630.232 56.311 -0.239313
400.976 26.3264 -0.263037
261.746 25.6096 -0.333103
564.214 70.841 -0.300325
264.011 29.7904 -0.445712
505.5 26.0375 -0.186681
313.603 37.4884 0.196724
457.645 13.3709 -0.506349
345.114 34.3107 0.125989
401.69 17.9042 -0.235467
301.906 45.8427 0.472277
179.672 30.4766 0.150256
607.416 82.8626 -0.157174
632.34 16.7028 -0.378164
5.77771 12.8262 -0.481583
405.144 24.1598 -0.444556
34.8466 24.5643 -0.0880513
354.864 33.7988 -0.485228
371.284 25.7178 0.334137
69.6551 12.8596 0.481181
47.8089 34.659 0.432663
213.941 13.7766 0.421944
521.61 70.1427 0.491254
505.463 40.0246 -0.617885
69.6163 22.2504 0.472597
576.051 60.4332 -0.625726
620.669 37.334 -0.655514
551.641 84.9702 -0.489764
569.277 2.7669 -0.678342
477.738 47.8535 0.601956
509.971 67.8842 0.635933
467.307 19.0899 -0.411909
630.193 3.92576 0.433746
211.779 25.1927 0.177908
119.742 37.5728 -0.211011
234.911 6.67701 0.444134
87.0498 4.83003 0.267393
59.7853 10.5457 0.227778
261.948 37.3364 0.379896
15.9288 25.7572 0.417908
486.522 38.3605 0.248867
509.938 76.1337 0.200497
427.062 30.4068 -0.44641
633.245 99.3331 0.358044
383.543 8.80305 -0.132339
401.006 46.9559 0.362996
490.667 3.28446 -0.311207
21.3863 25.72 0.544404
504.946 12.3965 0.364731
496.647 7.39469 -0.33709
195.306 11.2264 0.4922
398.907 16.8217 -0.291755
296.377 6.37766 0.37916
366.767 19.7492 -0.378201
586.99 57.6379 -0.102301
182.137 26.3199 -0.463405
612.312 6.11828 -0.51486
587.456 52.269 -0.344162
362.591 10.0537 -0.19055
590.169 1.99282 -0.644778
523.593 39.2617 -0.457979
603.509 36.3957 0.503476
396.313 53.5048 -0.26074
454.667 15.8378 0.570493
428.776 55.6915 0.224808
417.274 10.0533 -0.231061
555.142 83.4022 0.257099
554.772 78.4582 -0.306838
182.009 39.8141 -0.374487
619.151 16.3099 -0.180529
494.589 69.583 -0.241922
11.102 17.1692 0.247913
383.439 26.891 0.562319
177.195 23.7504 0.399893
87.5034 41.4052 -0.218096
626.582 70.2914 -0.422129
548.796 90.0191 0.231294
303.428 26.8101 -0.397174
487.498 10.2118 0.415339
76.7819 46.4327 -0.211818
236.102 26.1062 -0.500914
486.671 43.3921 0.498498
448.884 25.3324 -0.451839
251.125 0.884345 -0.35421
483.631 61.5014 -0.428575
466.23 67.0179 -0.53122
444.721 43.051 -0.424543
455.425 2.37225 -0.645557
575.173 19.0458 0.600992
169.654 12.7429 -0.21389
462.077 40.6493 0.57282
493.537 61.152 0.112334
68.3336 0.976164 0.315208
240.175 4.8061 0.183008
631.619 18.6008 0.159915
621.497 16.7717 -0.532857
636.954 23.5686 -0.625822
289.137 8.61256 -0.233416
604.227 42.1643 -0.439892
382.618 44.235 0.472709
420.436 0.825996 0.512727
554.906 66.4617 0.403704
24.1958 33.4739 -0.355709
314.475 43.5597 0.58439
241.005 2.94371 0.393974
619.671 89.0992 -0.170617
585.239 82.7863 -0.234679
273.82 12.2366 0.311161
558.171 68.2066 0.0905911
504.46 2.58815 0.242948
493.298 12.0533 0.551393
90.6396 19.3113 -0.514075
288.88 1.05342 -0.232307
326.366 2.2041 -0.39484
13.4023 8.02867 -0.576724
4.33838 31.7569 -0.303008
152.14 19.6021 0.430236
63.7919 43.5191 0.239951
61.3926 30.7398 0.298699
398.189 14.3798 -0.49722
348.541 38.6336 0.567167
606.883 68.151 -0.154743
18.4416 3.97212 0.293999
66.3777 7.47241 0.149053
530.076 69.465 0.12929
280.423 1.04913 0.417444
346.326 17.9713 -0.118404
224.423 4.69863 -0.386624
556.341 48.396 0.244584
422.065 8.5962 0.650922
606.682 43.8966 0.499071
537.164 59.746 0.300303
555.286 24.9546 0.100791
396.35 28.896 0.479449
96.5742 47.0065 0.31315
475.795 67.4906 -0.0676573
603.947 27.6467 0.36403
226.901 31.0479 -0.275406
29.2325 19.1313 -0.223158
320.044 13.8144 0.525338
101.563 42.1193 -0.472146
255.122 43.7306 -0.211984
403.103 2.27611 -0.2571
626.998 81.9211 0.376211
564.619 2.19705 0.674551
316.005 3.54257 0.601368
285.484 28.656 -0.158691
427.845 52.4089 0.197845
76.0754 9.25266 0.59834
187.762 45.9938 0.385114
617.44 68.365 0.467427
458.526 44.0518 -0.0876722
190.3 41.9366 -0.31678
150.942 43.0983 0.389092
636.537 43.8386 -0.526297
633.766 15.4939 -0.592308
525.201 6.21754 -0.566227
180.782 25.2226 0.11211
479.068 49.2244 0.101786
481.068 48.5942 -0.295478
387.948 5.84529 -0.170963
444.091 3.0605 0.323882
603.172 69.4565 -0.56563
79.7599 32.8623 0.22601
547.389 31.5186 -0.469455
262.132 16.2794 -0.455752
8.51219 2.66809 -0.406559
119.173 40.6957 0.234566
62.1807 24.0198 0.621108
572.841 42.1443 -0.377339
620.765 97.2448 0.164529
175.962 29.0791 -0.197202
629.76 14.4429 -0.44961
41.8431 38.377 -0.28018
85.7558 31.0155 0.205837
542.541 39.2501 0.424986
390.705 19.9068 -0.576698
475.941 16.2359 0.18324
227.304 28.9872 -0.188316
534.636 7.21646 0.664952
637.262 17.027 0.565582
26.989 34.6148 0.286247
258.841 8.02781 0.202533
211.651 15.4966 0.268393
1.08815 36.3656 -0.156707
214.89 14.8228 -0.395743
201.58 11.1181 0.134338
203.926 26.6511 -0.318178
124.57 29.0885 0.193169
484.822 29.9131 -0.374495
157.769 14.4375 -0.36322
614.458 85.994 0.227553
164.985 3.89376 0.51241
44.0891 39.4406 -0.445972
583.115 71.5555 -0.47241
268.928 32.7046 -0.392285
557.097 42.9203 -0.525634
635.235 88.7449 0.483579
287.224 9.2541 -0.0997777
592.549 41.7119 -0.482244
313.306 2.35685 -0.549578
393.436 25.6959 0.425173
555.82 18.8402 0.714331
98.7822 12.8018 -0.552423
445.7 6.7594 -0.633573
609.098 44.4814 0.179377
82.103 8.0755 -0.269029
269.421 16.0177 0.187554
399.749 12.1143 -0.237321
630.577 5.76404 0.591841
377.363 2.00524 -0.553697
167.378 39.4435 -0.307204
607.102 28.1848 -0.566399
121.65 38.5548 -0.180209
251.378 32.425 0.401517
379.088 22.1119 0.269124
508.083 27.9293 0.625415
366.803 10.2666 -0.546045
424.042 37.5272 -0.418831
604.501 81.5424 0.496586
44.0369 12.4958 -0.250177
286.435 41.1789 -0.27586
360.684 30.4068 -0.501594
387.627 21.8466 0.343363
454.976 71.2268 0.357191
598.853 63.8387 0.207555
558.725 77.6322 0.368295
215.587 34.9003 -0.391618
12.7236 31.9402 -0.186022
553.301 79.8837 0.123775
441.512 61.9618 -0.477194
219.183 40.0256 0.116397
562.812 48.2845 -0.140313
142.205 9.37731 0.257972
349.055 23.6027 0.280722
429.575 53.6202 0.0705348
391.592 21.2301 0.265935
599.442 80.7651 -0.292267
403.627 4.56939 0.652986
45.9048 26.822 0.385191
435.092 42.314 -0.337769
402.745 54.7358 -0.365644
620.555 82.9227 -0.244074
591.609 38.5978 0.342217
480.379 36.3861 -0.231485
613.536 77.9981 0.443493
280.04 2.4162 -0.450436
359.99 32.9196 0.637576
26.0796 41.8756 -0.327054
593.487 43.956 -0.179709
530.035 31.9034 -0.499554
431.452 2.5794 0.629368
117.954 4.69119 -0.378249
398.888 45.2231 0.118285
10.8568 0.959372 0.419267
629.972 7.8843 0.306958
352.368 43.1752 -0.527057
[...]
POINT_DATA 13483
TENSORS Strain_matrix float
-2.31854 0.648586 0.861987 
0.366235 0.648343 -4.35131 
-1.18196e-17 -2.17947e-19 1 

-3.27797 3.91915 42.6854 
0.132207 1.09503 8.9807 
-4.62595e-18 5.35972e-18 1 

-0.213871 0.0154268 -3.48973 
0.0158782 -0.0184714 0.333989 
1.76265e-18 8.49086e-18 1 

-1.24112 1.04571 1.15217 
-0.332891 0.345526 0.169769 
-1.12053e-17 -4.90519e-18 1 

-0.741679 0.0964497 -1.25502 
-0.241177 0.157452 1.04349 
-1.87816e-17 -1.38586e-18 1 

-0.276281 0.0305462 6.43239 
-0.0480394 -0.00184701 8.13893 
-1.36571e-18 -3.37718e-18 1 

-0.138101 -0.0263998 -0.37436 
0.00896795 -0.0811056 -0.115549 
1.21023e-17 4.93611e-18 1 

-0.321044 -0.530098 0.0532378 
0.389343 0.321253 0.0643388 
-1.57773e-17 3.35094e-18 1 

-0.613132 0.0293815 -0.793601 
-0.550781 0.222855 -0.433888 
-2.63414e-19 -2.51706e-18 1 

-0.32673 -0.166165 -0.329015 
0.29924 -0.0289322 -0.0575783 
1.44697e-17 -8.98121e-18 1 

-0.124741 0.0279489 0.0504242 
0.0352014 -0.0805921 0.0846732 
-7.45467e-18 1.94795e-18 1 

-0.131428 -0.0928811 0.20173 
-0.0406666 -0.0997009 0.150153 
-1.17845e-17 4.77928e-18 1 

-0.378438 0.279485 0.448107 
-0.19089 0.179342 0.118237 
5.41143e-18 3.99502e-18 1 

-0.723101 -0.149363 0.472089 
0.572693 0.265715 -0.0492115 
4.0337e-18 -1.39804e-18 1 

-0.382585 -0.0691774 -1.70923 
0.0141167 0.029246 -1.38956 
6.63045e-18 -1.30171e-17 1 

-0.134791 -0.0379219 1.01521 
-0.0808235 0.0105168 0.416963 
4.86427e-18 1.54035e-18 1 

-0.0970878 -0.0306027 0.0678623 
0.0209465 -0.108958 -0.0417378 
-1.521e-18 -1.11033e-17 1 

-0.398801 0.0478447 -0.0528534 
0.134228 -0.107967 -0.0669868 
7.35376e-19 1.14596e-17 1 

-0.30267 0.0215029 -0.654175 
-0.135083 0.0776078 -0.249166 
7.49712e-18 -1.01961e-17 1 

-0.139165 0.110774 0.0530309 
-0.233142 -0.141283 0.767825 
-1.58819e-17 -6.4325e-18 1 

-0.266622 -0.0689458 0.222987 
0.142632 0.056119 -0.202727 
6.24668e-18 -1.04944e-17 1 

-2.9741 -0.98362 3.07963 
1.05817 0.94211 -4.0279 
-6.90075e-19 7.26649e-18 1 

-18.8494 2.21665 -21.598 
-8.44859 2.57895 -6.7762 
-3.52415e-18 1.92226e-17 1 

-0.572138 0.320952 -13.154 
-1.63518 0.884137 -4.93032 
-1.66567e-17 -7.65309e-18 1 

-0.48668 -0.466824 2.25484 
0.293197 0.240922 1.31498 
4.54762e-18 -1.70948e-19 1 

-0.378383 -0.319875 -0.638572 
0.141485 0.246733 0.0669755 
1.0265e-17 -1.26871e-18 1 

-0.276634 0.0713821 -0.0828259 
0.0325649 0.101405 0.172811 
5.3002e-18 -5.25098e-19 1 

-0.48532 -0.836252 -1.67663 
0.111733 0.249379 0.807332 
6.06459e-18 -3.68632e-18 1 

-0.140022 0.101075 0.668172 
0.0862131 -0.10588 -0.382743 
9.08128e-18 7.73701e-18 1 

-0.989275 -0.360161 -0.900146 
0.234272 0.375187 -0.322945 
8.25703e-19 7.87053e-18 1 

-1.06301 0.273541 -0.380477 
-0.0327445 0.447938 -0.495288 
-2.13491e-17 -7.82931e-18 1 

-0.32718 -0.0743869 0.123015 
-0.0242133 0.0222003 -0.030121 
-7.87682e-20 1.6049e-18 1 

0.24418 -0.907299 0.920255 
0.691559 0.364137 -0.29235 
-1.95339e-18 1.06539e-18 1 

-1.26063 0.661291 4.33831 
-0.49432 0.611421 1.25756 
-1.13296e-18 4.22681e-18 1 

-0.10902 -0.156263 0.226064 
0.0996501 -0.122763 0.369571 
1.64481e-17 2.14656e-17 1 

-3.45624 -1.06154 -0.165617 
0.797024 1.34783 0.883828 
-7.71552e-18 8.88749e-18 1 

-0.391386 0.0061679 -1.96582 
-0.0495742 0.0880037 -0.323789 
5.59401e-18 4.64699e-19 1 

-0.266665 -0.0897559 -0.326243 
0.00283046 -0.0459338 -0.335216 
-2.67859e-18 1.99177e-18 1 

-4.77825 -1.7801 -3.49704 
2.48318 1.85704 2.40827 
1.16314e-17 -7.14643e-18 1 

-0.257163 -0.00401118 4.83781 
0.0730328 0.0738152 3.4587 
8.50373e-18 8.29172e-19 1 

-0.165008 -0.0201497 -0.0633782 
-0.0045704 -0.00993458 0.355566 
-1.16431e-17 1.3891e-17 1 

-0.269401 -0.362006 -1.26197 
0.82199 0.239439 -0.360796 
-1.84051e-17 7.04742e-18 1 

-0.459311 -0.206801 -0.286886 
0.0868756 0.0219945 -0.425033 
-7.96315e-18 2.27519e-18 1 

-0.203171 0.0798402 0.204569 
-0.0452663 -0.020658 -0.244894 
5.55199e-18 5.47988e-18 1 

-0.165937 0.0715034 -0.043776 
-0.0911346 -0.0166227 -0.0393599 
-1.70008e-17 1.39452e-18 1 

-0.130602 -0.013658 -0.0452925 
0.023804 -0.016872 -0.185984 
8.79705e-19 7.38953e-18 1 

-0.778305 0.271772 1.25254 
-0.746703 0.072791 0.393231 
-4.64152e-18 -3.13303e-17 1 

-0.0838198 0.0404953 0.00746001 
-0.0206666 -0.11469 -0.0204762 
-7.67611e-19 1.63117e-18 1 

-0.401165 -1.04442 28.1 
-0.015839 0.427014 -11.6815 
-1.18208e-17 4.68622e-19 1 

-4.11866 0.0301578 8.19455 
0.18788 0.331945 -0.290806 
-6.00504e-18 -1.60813e-17 1 

-0.107006 -0.0961158 -0.241299 
0.031952 -0.0182089 0.0403332 
-7.18187e-19 1.10806e-17 1 

0.0212417 -0.59344 -0.529349 
0.695512 0.247069 0.744557 
-2.4286e-18 -4.38805e-18 1 

-0.141497 0.0564546 -0.168731 
-0.100516 0.0271279 0.19002 
3.93055e-19 2.32205e-18 1 

-0.177427 0.0919161 0.0187338 
-0.0452287 -0.164745 -0.379696 
-6.63019e-18 2.303e-17 1 

-0.243412 -0.0320485 0.78159 
0.0194599 -0.0359147 0.949333 
-4.74097e-18 -1.60008e-17 1 

-1.29603 -0.673896 -1.8361 
0.314448 0.576234 0.474361 
-4.94433e-18 -1.75381e-17 1 

-0.34909 0.0882573 -0.811 
-0.280872 0.202104 0.74275 
2.76662e-18 -9.99286e-18 1 

-0.141735 0.353203 0.0872368 
0.00379194 -0.0392125 -0.264881 
-1.80267e-19 6.114e-17 1 

-0.0961691 -0.00681277 -0.298794 
-0.0202438 -0.0889673 -0.190875 
5.11536e-18 -2.14942e-18 1 

-0.153168 0.0127381 -0.0185854 
0.100058 0.0296562 -0.0366857 
8.54678e-18 7.81718e-18 1 

-0.593026 -0.557303 1.06799 
0.273164 0.841321 -0.590839 
1.85258e-18 -9.99146e-19 1 

-0.254914 -0.379207 -0.227269 
0.0857524 0.195782 -0.997142 
1.51247e-17 2.85152e-18 1 

-0.152353 -0.137323 -0.256641 
-0.0192963 -0.0613228 -0.125045 
-6.95304e-18 3.04399e-17 1 

-0.480819 -0.144647 5.35368 
-0.0494328 -0.0129046 4.88086 
-1.35204e-17 6.44939e-18 1 

-0.369815 0.12061 0.51897 
-0.097694 0.0683473 0.995177 
4.31538e-18 2.39743e-18 1 

-0.297466 0.0203713 0.189409 
-0.0199979 0.0170736 0.151546 
1.42089e-18 -1.11981e-17 1 

-0.66927 -0.477799 0.464907 
0.294971 0.237061 0.788947 
-4.73272e-18 5.1707e-18 1 

-0.282007 0.105314 -0.917268 
-0.015558 0.196839 0.571154 
-1.70769e-18 -8.16914e-18 1 

-0.286047 -0.0801743 27.3872 
-0.00148148 0.00712067 -26.7695 
-2.58822e-18 -7.68016e-18 1 

-3.26421 -2.7038 0.0723909 
0.238958 0.731395 2.11479 
-1.56009e-17 -1.0144e-17 1 

-1.07082 -0.946246 1.33464 
0.709097 0.662912 -0.37817 
1.96094e-17 -2.17883e-18 1 

-0.125714 0.0149012 -0.151047 
-0.0693132 -0.0438925 -0.0384324 
9.8929e-18 -5.20832e-18 1 

-0.509946 0.246917 0.430072 
-0.376646 0.315896 -0.199824 
2.45829e-18 -2.55254e-19 1 

-0.918774 -0.237688 -0.267192 
0.0564606 0.412374 -1.60759 
1.60451e-18 -1.58934e-17 1 

-0.178086 0.0280823 -0.21757 
-0.101821 -0.0346921 -0.416367 
-2.0147e-18 -1.14301e-17 1 

-0.240718 0.0847761 0.386597 
-0.0416233 -0.0381608 -0.988384 
7.87923e-18 -5.20029e-18 1 

0.289635 -0.888563 -1.14647 
0.795953 0.359817 -0.309031 
-6.39616e-18 4.7444e-19 1 

-0.151553 0.0423108 -0.607363 
-0.044765 -0.0172387 0.124401 
-3.96179e-18 -4.72859e-18 1 

-3.9228 1.20348 0.590976 
0.317774 0.200083 -0.141581 
1.9976e-17 8.50043e-18 1 

-0.791765 0.0855967 -0.104236 
-0.109496 0.366215 -0.745187 
-7.71944e-18 -4.54896e-18 1 

-1.23342 -0.329963 1.9103 
-0.253119 0.374958 -0.372827 
1.86093e-18 4.22938e-18 1 

-0.196106 -0.415809 -0.405714 
0.0583013 0.185858 0.101629 
-1.79916e-18 -5.86075e-19 1 

-0.0641522 0.039214 -0.121066 
-0.00433285 -0.0276032 0.310852 
3.75755e-18 1.32984e-17 1 

-3.02866 -0.115424 2.39657 
-1.95479 0.65237 3.2385 
-1.3329e-17 5.91627e-18 1 

-0.608721 -1.31763 1.23555 
0.243959 0.71108 -1.39676 
1.59038e-17 2.80242e-19 1 

-1.18218 0.579937 0.475408 
-0.243078 0.424995 0.716551 
4.16669e-18 1.26692e-17 1 

-1.11597 3.55868 5.73456 
-0.0190129 1.35122 1.09871 
-6.09387e-18 -2.18274e-17 1 

-0.141427 -0.000509182 0.0251073 
0.0438899 -0.0841654 -0.147235 
-3.16997e-18 2.58231e-18 1 

-3.40154 1.39525 -0.0833542 
0.249715 0.313155 0.579328 
-9.95947e-18 -8.87473e-18 1 

-0.213821 -0.000952355 -2.04994 
0.018523 -0.010038 -0.863236 
-2.90996e-18 -1.40812e-17 1 

-0.267241 -0.0286342 -0.679875 
0.0596244 0.124364 -0.435075 
-9.68267e-18 -7.97183e-18 1 

-0.325181 0.335913 -0.13188 
-0.0363704 0.0346946 0.0261926 
-1.53304e-17 -3.27102e-18 1 

0.0576444 -0.905254 -1.09009 
0.771549 0.411062 0.288572 
4.96079e-19 -1.56647e-17 1 

-0.180121 -0.035518 -0.133246 
0.00325354 -0.0453849 0.052628 
8.9542e-18 4.20501e-19 1 

-0.15296 0.0979467 0.439459 
-0.0728868 0.0258318 0.117769 
-2.83792e-18 -9.00568e-18 1 

-1.1692 0.272207 2.1408 
-0.363151 0.703422 -0.122277 
5.39334e-18 1.34125e-17 1 

-0.178069 0.0222923 0.154055 
-0.0631571 -0.0571351 -0.392024 
-1.50115e-17 5.1084e-18 1 

-0.0359153 -0.869939 -1.93603 
0.349731 0.243531 -0.654903 
-1.07737e-17 1.57281e-18 1 

0.161356 -0.756753 0.225328 
0.681087 0.227746 -0.466982 
-3.64752e-18 -1.68698e-19 1 

-0.227606 -0.108924 -0.0945005 
0.0603598 -0.0184249 0.34667 
-4.33647e-18 4.00919e-18 1 

-0.143766 -0.0407873 -0.358811 
0.0213193 -0.0232999 -0.712531 
-8.25555e-19 2.79678e-18 1 

-0.193495 0.470141 3.3994 
-0.216581 0.153202 -1.08693 
-5.12842e-18 -7.31422e-18 1 

-0.294493 -0.119668 0.383493 
-0.0377122 0.0622379 -0.627118 
2.00571e-17 -4.66793e-18 1 

-0.257187 -0.0680927 0.151563 
0.116129 0.068896 0.187661 
-2.62454e-18 1.24029e-17 1 

-0.439361 -0.102989 -0.207625 
0.13655 -0.0461045 -1.06845 
1.25643e-17 4.42796e-18 1 

-1.3196 -2.49637 -0.838655 
0.620797 1.58189 0.620938 
2.17931e-17 5.90942e-18 1 

-0.413936 -0.585053 -0.523818 
0.470342 0.177561 -0.50924 
-1.08458e-19 1.87994e-18 1 

-0.217464 0.0529406 -0.665797 
-0.00830208 0.0352577 0.170783 
6.15011e-18 4.97726e-18 1 

-0.217998 0.0482439 0.0429222 
0.0851173 -0.132587 -0.121633 
-4.12231e-18 -7.92751e-18 1 

-0.617496 -1.62826 1.00518 
0.671029 0.726021 -2.25885 
-7.76129e-18 1.46905e-17 1 

-0.251379 -0.311603 -23.1831 
0.0271371 0.230284 6.69947 
-3.15742e-18 3.88274e-18 1 

-0.253102 0.0066993 -7.12227 
0.0279803 0.0132627 6.6075 
3.1388e-18 6.11102e-18 1 

-0.163643 0.127184 0.0909462 
-0.14653 -0.102239 -0.0627928 
-3.40907e-18 -1.25769e-18 1 

-0.426877 0.444318 -0.746366 
-0.169152 0.31398 -1.73328 
1.01659e-17 5.11973e-18 1 

-0.215213 0.214487 -0.318577 
-0.297197 0.0218161 0.285328 
-1.19752e-17 -4.2476e-18 1 

-0.172116 -0.0131015 -1.24214 
0.00820084 0.0685915 -0.292715 
2.12157e-18 8.28422e-18 1 

-0.271662 -0.124367 0.153391 
-0.0482927 0.0241851 -0.127611 
1.42059e-17 1.70471e-18 1 

-0.174478 0.0772982 -0.0756397 
-0.0623266 -0.0419721 -0.0343164 
-6.98798e-18 1.11582e-17 1 

-1.02582 -0.407532 -0.378955 
0.131753 0.42974 -0.629414 
-4.73226e-18 6.29176e-18 1 

-0.147888 -0.033784 0.30051 
0.101135 0.0131361 0.12533 
-1.94445e-17 -3.06009e-18 1 

-1.23831 0.0497548 0.551434 
0.659336 0.276528 0.752921 
1.23916e-17 -8.5459e-19 1 

-0.335059 0.0551718 -0.568295 
0.785323 0.00875233 0.444469 
3.03094e-17 1.82724e-18 1 

-0.113652 -0.0697031 -0.0557034 
0.0521103 -0.00603548 -0.240241 
-1.33095e-17 8.09455e-18 1 

-0.125499 -0.0802654 0.157521 
0.0485346 -0.0640083 0.142576 
1.27001e-18 5.6092e-18 1 

-0.170759 -0.0154063 2.14862 
-0.0236652 -0.0384675 3.22433 
-6.2533e-18 -1.4206e-18 1 

-0.285977 -0.186641 0.107144 
-0.116689 -0.128159 -0.420941 
1.59511e-17 -1.74012e-17 1 

-0.158161 0.0879126 0.329524 
-0.106341 -0.020352 0.175071 
-6.7611e-18 1.71539e-17 1 

-0.367839 0.258796 -0.804278 
-0.0895144 0.0833191 0.459734 
5.2565e-18 1.96984e-17 1 

-0.333831 -0.108012 0.351181 
-0.0589774 0.245795 -0.421533 
6.02565e-18 2.07885e-18 1 

-0.306446 0.129763 -0.41877 
0.0711089 0.0345567 0.573179 
2.03368e-17 -2.05422e-18 1 

-2.08073 -0.368357 -0.244547 
-0.133075 0.471082 0.221094 
-1.48679e-17 1.1722e-17 1 

-0.0368454 0.371999 0.105109 
-0.372741 0.0763411 0.0481131 
5.3927e-18 -9.23075e-18 1 

-0.488749 0.140251 -0.105923 
-0.253749 0.0586616 -1.28104 
-2.70017e-18 7.78409e-18 1 

0.129841 -0.623485 -0.112603 
0.760983 0.204414 0.239715 
1.68906e-17 1.73094e-17 1 

-0.317412 -0.0516149 0.506074 
0.155145 0.158428 -0.542439 
-1.40951e-17 1.68392e-17 1 

-0.16925 -0.0627892 0.414158 
-0.0466201 0.042485 -0.180981 
-4.91108e-19 -2.05652e-18 1 

-0.108315 0.56212 -0.0556313 
-0.521179 0.132519 0.457725 
-9.84432e-18 -1.74751e-18 1 

-0.11931 -0.0142624 -0.144023 
-0.0130303 -0.038585 -0.225283 
-2.22939e-18 3.66862e-18 1 

-0.962457 0.222666 0.214056 
-0.891043 0.202887 0.106928 
4.47268e-18 -1.78907e-18 1 

-0.104261 -0.0938525 0.109073 
0.0780366 -0.0337918 -0.0646262 
1.46931e-17 -1.38442e-17 1 

-0.699691 0.156881 -1.52254 
-0.45669 0.288514 -0.792146 
2.52225e-18 1.00261e-17 1 

-0.209233 0.0303696 0.142258 
0.111393 0.041848 -0.0755156 
-8.5187e-18 -4.44635e-18 1 

-0.410853 -0.0993341 0.0172174 
0.181241 0.0107333 0.183688 
-7.38038e-18 4.67543e-18 1 

-0.291447 0.00470056 -1.44474 
-0.0483983 0.196664 0.060998 
4.03182e-18 4.4024e-18 1 

-0.11079 0.020371 -0.152171 
-0.0273475 -0.00894294 -0.140303 
5.92365e-18 9.52634e-19 1 

0.230186 -1.02223 0.617115 
0.495713 0.352398 -0.520157 
-1.55468e-18 -4.23806e-18 1 

-1.13535 -0.0659277 0.243922 
-0.0626106 0.268256 -0.407457 
8.43673e-18 1.25058e-18 1 

-0.160721 0.00625433 0.476138 
-0.0852948 -0.0780916 -0.714062 
1.28524e-17 5.12244e-18 1 

-0.321772 -0.0369115 -1.1403 
-0.0264126 0.124269 -1.57768 
2.45731e-18 -9.21491e-18 1 

-0.187401 0.05104 0.299923 
-0.200301 0.0127632 0.11371 
2.0614e-18 3.39662e-18 1 

-0.174729 -0.0999776 1.5467 
-0.0220031 -0.0204098 0.990971 
1.46509e-17 -5.22056e-18 1 

-0.325163 0.0422165 0.356778 
0.0961119 -0.01078 0.0340522 
-1.4273e-18 6.89862e-18 1 

-0.192706 -0.098396 -2.57585 
0.154831 0.0140028 1.91689 
-1.68579e-17 -5.57649e-18 1 

-0.140337 0.0228483 0.230226 
0.049789 -0.0298459 0.425969 
6.18479e-18 -3.73378e-18 1 

-0.180944 -0.0342498 0.40869 
0.00236126 -0.0269671 -0.0112978 
-3.05364e-18 -3.05364e-18 1 

-0.496365 0.0317268 -4.61081 
-0.0927714 0.260883 10.3392 
3.03991e-19 -7.99061e-18 1 

-0.570736 -0.235642 27.5427 
-0.146064 0.344005 -21.0181 
-9.22923e-19 3.05275e-18 1 

-0.152247 -0.0822837 0.234702 
0.0611687 -0.0116976 -0.323663 
-7.0606e-18 7.62511e-18 1 

-2.40292 0.140372 96.1436 
-0.668962 0.806338 -7.3577 
-5.50182e-18 -5.44653e-18 1 

-2.9377 -0.812986 208.676 
-0.197281 0.521423 106.303 
8.85592e-18 -7.54298e-18 1 

-0.852235 -1.63231 217.298 
-0.025943 0.437921 -22.116 
2.01041e-18 -9.53786e-18 1 

-0.781633 4.18251 100.182 
-0.115261 -0.265668 -3.39838 
6.19998e-18 -1.63137e-17 1 

-0.531986 -0.354222 3.1621 
0.117104 0.259618 -5.45048 
-1.45955e-18 -4.5497e-18 1 

-0.505635 -2.68968 -84.8742 
0.0888768 0.797296 -21.7068 
1.16696e-18 -7.36607e-18 1 

-0.434152 -0.123352 0.0186602 
-0.231869 0.0988742 -0.170055 
-5.58248e-18 1.20344e-17 1 

-1.43459 0.67788 -0.637271 
-0.195683 0.375565 0.240127 
-1.07123e-17 -2.15974e-18 1 

-0.176523 -0.00502729 -0.0281671 
0.0468405 -0.0312245 0.0247295 
-2.08448e-17 6.78728e-18 1 

-0.396742 0.0963811 -0.25728 
0.0557449 0.0686943 -0.0012299 
1.26442e-18 -2.74768e-18 1 

-0.153364 -0.0474376 0.135258 
0.0286001 -0.0744881 0.0913401 
6.21241e-18 -4.09455e-18 1 

-0.241554 -0.086987 0.139611 
0.0337967 -0.00723634 -0.563919 
5.94326e-18 -1.78667e-17 1 

-0.135659 -0.0141405 0.0663867 
0.00605232 -0.0251472 -0.189308 
9.65018e-18 -2.24579e-17 1 

-0.112354 0.0194147 -0.115308 
0.0173618 -0.034236 0.0716954 
-8.58925e-18 -1.40207e-18 1 

-0.284805 -0.0160211 0.255437 
-0.0686386 0.0787285 -0.595404 
-2.09589e-18 1.30411e-17 1 

-0.952579 -0.497929 -1.37919 
0.200499 0.636579 0.053519 
-7.8746e-18 -5.14421e-19 1 

-0.0563097 0.17739 0.211623 
-0.173619 0.0544666 -0.261529 
2.33823e-18 3.35245e-19 1 

-0.312683 -0.286577 -0.913215 
0.0525128 0.128672 1.37161 
-5.93127e-18 5.27607e-18 1 

0.121617 -0.772446 0.474981 
0.753448 0.297931 -0.264734 
-1.39443e-17 -3.15721e-18 1 

-0.177123 -0.0186628 0.000649639 
-0.00416265 -0.0485964 -0.166432 
-1.0339e-17 5.56256e-18 1 

-0.949259 -0.966528 -1.63307 
0.806967 1.30135 1.60582 
-2.67497e-18 4.79437e-18 1 

-0.25368 -0.207774 0.0608652 
0.207062 -0.26996 -0.300315 
-2.57748e-17 5.59796e-18 1 

-0.411895 0.0288675 -2.04507 
0.230533 0.0990863 -0.21078 
7.14361e-18 -7.51826e-18 1 

-0.847624 0.357524 0.603721 
-0.534902 0.317656 0.114645 
2.2673e-17 7.23704e-18 1 

-1.02867 -0.417113 0.898533 
0.52999 0.28182 -0.479853 
-9.43877e-18 -7.22101e-18 1 

-0.139348 0.0292429 0.881037 
0.0268249 -0.053754 0.430492 
-5.3799e-18 9.94085e-18 1 

-0.693793 0.241791 0.270877 
0.198644 0.162567 -0.160282 
6.97344e-18 3.79069e-18 1 

-0.210065 0.00813653 -0.584996 
-0.0464692 -0.0531325 0.289191 
-3.46536e-18 -2.2326e-17 1 

-0.384496 -0.167678 0.118005 
-0.214084 0.0140493 -0.236156 
8.46789e-18 8.66894e-18 1 

-0.859581 -1.92567 2.79339 
0.841199 1.17914 -0.839286 
1.75835e-18 6.08375e-18 1 

-0.169467 -0.0143417 0.17594 
-0.00468007 -0.0334694 0.124851 
-4.62639e-18 -9.62288e-18 1 

-0.610094 -0.216137 0.777826 
0.0481688 -0.00681015 -0.807391 
-6.3922e-18 2.05616e-17 1 

-0.684726 -0.406428 -0.100523 
0.249783 0.37605 0.494613 
1.34501e-17 -9.14666e-18 1 

-0.458007 -0.0471638 0.692159 
0.181559 0.171207 -0.0704924 
1.13818e-17 -1.08548e-17 1 

-1.01203 3.66057 82.9099 
0.12261 0.162514 0.257303 
-5.42012e-18 -2.91799e-17 1 

-0.885643 -0.422823 9.15461 
0.288593 0.562737 -7.865 
-8.79964e-18 -1.22582e-17 1 

-0.688191 -0.798878 -0.908322 
0.670662 0.621513 -0.703481 
-1.09341e-18 6.28713e-18 1 

-0.792815 -0.559013 -2.22735 
0.786935 0.812563 -0.874994 
1.94606e-17 7.30192e-18 1 

-0.377396 0.135016 1.58542 
-0.156368 0.057364 0.870008 
1.11651e-17 -1.25723e-17 1 

-0.290944 -0.184253 -0.504654 
-0.0145077 -0.0140258 -0.724331 
-4.95306e-18 -1.19537e-17 1 

-0.579777 0.259498 -0.000265869 
-0.550035 0.242727 0.512108 
8.94829e-18 8.8033e-18 1 

-0.335949 -0.169787 -0.709564 
-0.0960057 0.0642306 -0.232559 
-5.93753e-18 4.64468e-18 1 

-0.663957 -0.118651 0.166279 
-0.142869 0.296269 -0.11952 
1.11877e-18 8.54912e-19 1 

-0.1665 0.0239648 0.461403 
-0.0274055 -0.00329453 0.116268 
-3.06227e-18 5.85234e-18 1 

-1.13608 -0.446696 -0.443023 
0.179472 0.520486 0.756182 
-4.56067e-19 1.1609e-18 1 

-1.29682 -3.94956 -2.72092 
0.169224 0.976826 1.2539 
-1.53853e-17 3.87909e-18 1 

-0.272231 0.0784959 0.121139 
0.131913 0.00764077 -0.182008 
-1.40744e-17 2.27823e-18 1 

-0.251632 -0.128041 -0.343333 
0.0753624 0.026408 0.493302 
1.42551e-17 1.01406e-17 1 

-0.112487 -0.028395 0.113725 
0.00325774 -0.0202082 0.687533 
1.77729e-18 6.41022e-18 1 

-0.0825096 0.0434564 -0.199754 
-0.00966642 -0.0400785 0.208977 
6.07038e-18 8.04184e-18 1 

0.213949 -0.886044 -0.175757 
0.79179 0.401958 0.298029 
6.48065e-18 8.81141e-18 1 

-0.133472 -0.10828 -1.24257 
-0.109879 -0.032317 -1.2551 
6.11019e-18 8.10595e-18 1 

-0.169823 0.0489369 -0.234025 
-0.0526571 -0.0133848 0.10187 
8.00383e-18 1.73265e-18 1 

-0.469793 -0.390005 -2.15909 
0.270809 0.157298 -0.77651 
-8.86299e-18 3.54728e-18 1 

-0.140969 0.00888829 -0.458959 
-0.0100654 0.0373838 -0.0781303 
-7.52892e-19 4.56695e-18 1 

-0.189228 -0.00518724 0.355339 
-0.0127301 0.0154788 -0.678377 
8.16604e-20 1.45917e-17 1 

-0.498727 -0.54827 1.84951 
0.111902 0.0569873 -0.994125 
2.71107e-18 -7.60421e-18 1 

-0.700866 0.16654 1.13191 
-0.371232 0.379246 0.249245 
-1.29392e-17 -3.67533e-18 1 

-0.180592 0.248349 0.126589 
0.0125731 -0.0291058 -0.272512 
-5.29465e-18 -5.22929e-18 1 

-0.287583 0.0272964 0.80492 
0.156483 0.0637835 1.19958 
1.87082e-17 -1.31237e-17 1 

-0.790057 -0.988756 12.9506 
0.123797 0.487808 10.1915 
6.12316e-18 -9.63247e-18 1 

-0.359951 0.0800411 -0.564988 
-0.30121 0.234248 1.46388 
-8.19129e-18 3.07173e-18 1 

-0.54079 0.0669235 -9.29275 
-0.0352178 0.182322 0.599506 
-1.13802e-17 8.92533e-18 1 

-0.556109 -0.560547 0.463844 
0.395111 0.0636937 -0.414526 
-7.32126e-18 6.51525e-18 1 

-0.129957 -0.0202142 0.237327 
0.0208487 -0.0202468 -0.186799 
1.11883e-17 5.41372e-18 1 

-1.12161 -0.590376 -44.2054 
0.155536 0.608525 26.9579 
-2.74172e-18 7.74235e-18 1 

-0.226362 -0.347161 1.02749 
-0.0720979 0.0526852 -0.0529645 
-3.26996e-18 1.03938e-17 1 

-0.224014 1.22619 -0.300715 