# vtk DataFile Version 3.0
Output file generated by Yade's KinematicLocalisationAnalyser
ASCII
DATASET UNSTRUCTURED_GRID

POINTS 13483 float
408.192 57.9098 -0.483875
480.408 84.8364 0.462359
101.758 5.9545 -0.580039
510.035 5.45047 0.400683
363.09 11.0153 0.618293
252.318 49.4945 0.47528
135.82 7.25393 0.451668
387.94 44.0764 0.174341
360.9 27.9695 -0.176964
469.984 17.4401 -0.650752
178.695 9.11728 0.169964
210.929 7.93769 0.547931
442.134 72.7676 -0.179854
422.345 57.3883 -0.0749348
118.087 17.9555 0.549267
184.495 45.5638 -0.41081
185.847 12.9716 -0.298338
236.813 10.6827 0.724575
271.708 46.498 0.526507
383.232 7.97621 0.506194
309.387 53.2377 -0.136387
398.084 85.1697 -0.332792
505.774 50.16 0.525028
455.803 66.8457 -0.571725
343.577 25.8089 -0.392557
200.016 59.7836 0.124122
355.935 38.0712 0.514311
396.626 54.2224 -0.244416
38.3051 17.7585 -0.46462
460.189 35.5924 0.361166
351.588 6.11862 -0.495166
15.4319 25.5426 -0.392278
493.107 92.8613 -0.250109
358.56 2.29647 0.570196
67.0398 49.5354 0.113711
383.252 33.391 -0.388535
388.833 16.0468 0.555839
272.372 29.1191 0.209462
387.244 30.6664 -0.507218
276.81 52.3389 0.494638
200.818 20.7995 -0.487053
326.1 50.1434 0.101374
436.728 7.13701 0.204913
165.123 6.60575 0.46143
47.7576 8.10403 -0.101437
57.9408 9.31176 0.264664
446.911 14.0325 -0.575825
20.5686 12.322 0.305076
403.857 99.692 -0.300139
451.15 64.2681 0.325254
147.205 36.9114 0.447157
486.901 70.8477 0.165357
28.6801 31.7449 0.143793
392.253 2.66289 0.539527
122.96 7.73696 -0.558921
400.506 73.3461 -0.373848
366.892 31.3541 0.141432
153.471 0.94958 0.248589
29.5265 2.19345 -0.409383
277.984 22.1764 0.514553
413.312 97.8272 -0.132472
336.94 56.9388 0.180508
303.972 1.01759 0.251983
455.005 6.78145 0.603756
21.9301 50.1678 0.244613
214.395 39.3296 -0.296007
472.383 11.814 -0.276596
450.522 103.543 0.348787
317.044 9.12673 -0.637473
398.939 23.2906 -0.520838
477.361 52.4118 0.423003
111.951 7.7853 0.280011
362.278 31.1103 0.209159
350.056 22.3629 -0.163616
241.639 16.9485 -0.578039
18.1029 14.6929 0.265366
504.03 90.8825 0.325726
264.068 51.7708 -0.32061
437.352 27.7951 -0.478093
446.132 19.815 0.379168
498.692 14.8254 0.333549
339.016 57.3933 -0.170196
80.9227 43.1378 0.30714
456.595 77.963 -0.238812
439.403 84.8722 0.114137
512.526 51.0642 -0.145903
496.34 0.803496 -0.562793
237.976 32.4514 0.603563
417.582 27.5572 0.148096
22.0971 5.83263 -0.650454
113.567 41.8982 -0.155589
374.695 15.3975 0.209159
503.606 77.4835 -0.520704
169.416 33.6358 0.249877
37.3713 38.1373 0.287706
357.652 1.10795 -0.10796
197.868 13.9712 -0.524955
470.075 64.9575 0.334236
494.8 68.2713 0.279583
282.596 33.9288 -0.346087
141.776 28.679 -0.448
361.001 80.5699 0.394693
294.262 23.6501 -0.555163
309.937 45.236 0.197876
291.427 12.3075 0.371387
401.436 20.2675 0.116123
512.525 16.5798 0.232829
69.0058 44.6173 -0.464164
267.557 10.697 0.25509
383.476 41.5696 -0.410578
272.254 75.2023 0.164484
22.7789 29.3404 0.465678
27.8279 6.42231 -0.341596
380.815 71.9847 0.446553
369.547 27.3378 -0.221861
21.4252 43.4844 -0.423527
81.1146 34.5069 0.284023
260.378 23.3743 0.345796
406.139 44.9184 0.136982
349.665 56.2603 0.384016
484.479 19.4205 -0.593465
478.308 15.7815 0.174838
293.105 60.5163 -0.0969361
427.063 71.0547 0.133515
199.673 23.0273 0.664306
265.965 8.03082 0.603922
90.0248 34.765 -0.30326
99.9569 26.2223 0.265378
358.074 84.4453 0.0707417
246.308 26.2575 0.592566
455.978 41.6059 -0.178641
454.674 101.145 -0.102612
352.152 31.0271 0.49931
509.038 59.9767 0.248454
322.018 35.2091 -0.358622
227.95 28.2626 -0.38399
454.099 85.0497 -0.295672
233.51 38.1419 -0.518097
395.923 44.9165 0.195583
265.463 48.6595 0.207378
369.207 13.1899 -0.683642
285.52 49.7677 -0.0953228
320.96 24.3237 -0.1533
255.702 60.0523 -0.439732
166.006 34.2972 0.177418
485.033 85.9637 -0.166208
509.549 17.4697 -0.419039
5.73072 13.2558 -0.437329
325.225 31.6457 -0.449687
32.3377 26.1919 -0.10583
294.196 46.4131 0.500519
302.772 33.9341 -0.265894
64.2864 12.7875 0.499087
44.4645 35.9846 0.41899
190.831 21.2008 0.640137
411.662 86.5429 0.439892
393.98 58.9172 -0.598681
65.4439 23.8757 0.632802
458.586 64.2746 -0.597809
499.375 40.934 -0.703542
442.861 98.6824 -0.471506
451.203 2.75735 -0.683067
364.291 67.0923 0.384475
399.015 86.3179 0.527489
378.072 18.9673 -0.446527
507.332 3.91725 0.501211
187.877 32.668 0.136734
110.615 37.6078 -0.236567
208.073 11.9471 0.404399
80.5893 5.38505 0.346754
55.1193 12.1736 0.228633
231.549 46.7395 -0.291014
15.4625 27.5022 -0.43797
377.094 57.1198 0.424735
401.738 94.9002 0.189273
337.886 42.6982 0.378379
510.04 104.071 0.362918
312.501 11.1116 -0.183005
320.962 60.9981 -0.391409
399.73 3.21696 -0.379147
19.7605 27.3826 0.481308
403.558 22.4776 0.531343
404.621 7.83679 -0.52092
178.609 12.7819 0.614598
318.975 22.3 -0.300895
257.391 6.28398 0.560758
302.403 27.0835 -0.483897
465.249 59.1618 -0.125296
168.338 30.4557 -0.471497
490.453 6.15813 -0.535584
466.061 53.9224 -0.358703
298.804 14.6637 0.260457
471.212 2.23449 -0.691144
411.515 54.8617 -0.446781
482.735 39.3025 0.546348
311.704 69.8599 0.261384
366.199 16.366 0.53861
346.567 64.6696 0.28795
335.296 11.8196 0.322169
446.482 97.3869 0.25918
445.275 92.7758 -0.290084
160.822 50.2389 -0.330501
496.972 15.9489 -0.223432
382.961 88.7953 -0.241725
10.6996 18.1651 0.234682
307.287 40.2828 0.404655
163.502 27.8228 0.425221
81.3892 44.9132 -0.231804
504.407 73.9926 -0.405606
440.036 103.785 0.230322
258.431 35.0839 -0.467491
396.908 9.89551 0.56655
72.0403 49.0455 -0.209847
209.359 33.8684 -0.514144
374.704 63.1749 -0.32936
359.649 26.6277 0.488798
216.805 0.847425 -0.528898
371.424 81.305 -0.381232
352.403 85.0279 -0.441776
356.433 45.9692 -0.541658
367.14 2.47679 -0.640025
457.987 17.8683 0.735326
156.593 15.849 -0.159822
372.22 39.9673 0.607803
381.589 80.4137 0.107851
62.9859 0.973453 0.343518
208.725 5.8085 -0.251551
508.877 19.3379 0.213342
498.996 16.3944 -0.569946
513.934 24.2961 -0.625081
250.897 8.62224 -0.50934
483.096 45.0476 -0.444591
311.786 59.3208 0.393103
335.54 0.775098 0.616318
444.91 79.4554 -0.403841
22.8178 37.0042 -0.374756
266.042 54.6663 0.62642
209.592 4.24143 0.519558
497.387 92.8238 0.168149
473.328 93.551 -0.237059
238.24 12.9965 0.367366
448.021 80.7581 -0.0894482
412.544 2.60347 0.366711
400.977 12.4497 0.620438
84.4286 20.9489 -0.450776
250.868 0.863471 0.257829
274.428 2.52075 -0.441565
12.8509 8.0744 -0.611697
4.27668 32.5924 -0.329794
141.782 20.5604 0.361633
59.2296 45.8741 0.230176
57.8099 32.674 0.0478609
320.918 18.9076 -0.686994
285.477 67.0824 -0.45712
484.738 71.0678 -0.141118
17.9209 4.0552 0.288876
60.9827 7.48022 0.154756
420.128 84.4486 0.130599
243.732 2.32361 0.520255
287.02 28.8352 -0.0911223
200.138 10.1661 0.498178
444.296 60.4047 0.225674
337.389 8.62755 0.651885
485.548 46.8562 0.515756
426.115 74.262 -0.280765
437.844 25.9825 0.175482
318.898 38.6163 0.542845
90.3899 50.108 0.313528
362.61 87.1588 0.0528938
484.046 30.2651 0.339759
199.926 38.192 0.223738
27.0521 19.8632 -0.254761
272.139 19.1662 0.583335
95.2897 45.0748 -0.470079
225.311 53.285 0.186996
329.161 6.74623 -0.3369
504.366 85.9409 0.381692
446.463 2.22026 0.678067
268.361 7.55486 -0.607079
243.819 38.1925 -0.148701
344.539 62.5076 -0.266275
70.3489 9.33513 0.601147
165.938 57.0641 0.38592
495.315 71.7385 0.464225
369.289 43.2298 -0.14556
168.179 53.1617 -0.25887
138.493 45.8972 0.55519
513.61 44.8004 -0.536694
511.028 15.9329 -0.691904
412.165 20.7462 -0.475596
167.03 29.309 0.129015
366.337 69.1378 0.107194
368.294 68.6399 -0.266545
315.331 6.56152 0.128488
357.024 3.05051 0.331342
481.145 72.053 -0.540089
75.0776 35.2895 0.242331
430.646 41.759 -0.457469
227.348 17.1598 -0.662486
8.13278 2.70449 -0.436236
111.544 42.6644 -0.207278
58.5201 25.795 0.630472
452.419 43.3362 -0.405291
497.734 101.252 0.159826
162.212 33.3177 -0.197838
507.68 14.682 -0.40183
38.9002 39.5972 -0.297676
80.0519 32.8003 0.2414
430.61 53.6417 0.483459
313.367 29.6485 -0.481705
385.933 16.5342 0.162425
200.35 36.1781 0.197613
420.909 16.3192 0.535021
514.322 17.5839 0.59998
25.4979 37.838 0.334146
224.594 8.27 0.237747
188.386 20.7332 0.262994
1.04278 36.9737 -0.158088
191.361 21.6744 -0.587613
183.369 10.9941 0.174654
182.145 36.1054 0.291123
115.691 29.2323 0.208015
377.91 46.5278 -0.36056
146.882 15.963 -0.407242
492.079 89.631 0.22357
154.076 4.82172 0.663536
41.0818 40.8454 -0.482104
464.103 77.5324 -0.462194
233.632 36.7992 0.43729
438.056 51.2221 -0.662871
512.66 93.7584 0.476703
249.747 9.9239 0.250189
471.641 43.4722 -0.493576
266.74 2.51168 0.479608
315.01 35.9544 -0.427171
438.053 19.3658 0.727203
90.7892 13.4933 -0.595849
358.277 6.67953 -0.67293
487.914 47.5978 0.17877
76.1676 8.13349 -0.216809
234.024 16.585 0.177342
322.626 15.764 -0.517523
508.313 6.15264 0.570033
308.865 1.97409 -0.44975
154.493 43.7554 -0.296844
487.216 31.1518 -0.527581
112.426 38.5421 0.226107
223.016 40.2772 -0.463781
308.74 32.1006 -0.211957
398.025 47.1535 0.501693
301.167 12.6415 -0.608952
335.915 50.8264 -0.505292
481.927 84.5627 0.410141
41.4431 13.2306 -0.157525
243.52 51.6726 -0.2834
298.858 40.8326 -0.500653
314.01 26.5534 -0.265803
339.366 87.4116 0.356722
477.127 66.1206 0.220454
449.515 91.6597 0.373197
192.884 45.5376 -0.406426
12.4046 33.4244 -0.18438
443.652 94.0094 0.127542
333.673 75.7609 -0.441304
197.023 50.5382 -0.0927927
442.335 48.9949 -0.152974
133.212 9.7205 0.249415
288.163 36.8143 0.422049
346.487 62.5644 0.121193
313.547 31.5664 -0.216163
477.067 83.2744 -0.0285241
326.801 9.97379 0.627734
42.2479 28.3065 0.342352
348.024 48.9211 -0.361391
318.671 74.623 0.303053
498.248 86.6398 -0.234696
470.926 40.3191 0.357324
371.444 55.7585 -0.205941
491.319 81.352 0.448018
243.87 3.43872 -0.581091
287.489 54.1374 0.496882
24.4461 45.5501 -0.322493
472.381 45.87 -0.181968
417.542 47.1837 -0.490483
344.832 3.05959 0.640209
109.339 4.69804 -0.379481
325.071 54.4809 0.124605
10.3626 0.962582 0.468188
507.756 8.17002 0.385026
290.157 70.9063 -0.41016
416.903 32.2066 -0.367339
[...]
POINT_DATA 13483
TENSORS Strain_matrix float
-2.20856 0.849419 -3.16599 
0.197707 0.55156 -4.97955 
-4.31834e-19 1.63504e-17 1 

-3.66067 2.84148 27.6308 
0.249268 0.854479 0.952635 
1.56089e-18 -9.60175e-19 1 

-0.222368 -0.0615609 -2.67822 
0.0677872 -0.0455241 -0.673144 
-7.23424e-18 7.48919e-18 1 

-1.50263 1.1258 0.926608 
-0.467638 0.558035 0.0530592 
-3.59277e-18 9.25828e-18 1 

-0.797532 0.0457887 -1.9523 
-0.246713 0.161536 0.391053 
9.68367e-18 -1.09149e-17 1 

-0.608293 0.490658 -2.03594 
-0.146935 0.327137 -0.603439 
-8.68859e-18 -1.47028e-17 1 

-0.17235 -0.0193764 -0.444416 
-0.020436 -0.0493383 0.224725 
-2.53946e-17 1.21929e-17 1 

-0.327892 -0.666455 0.692982 
0.593941 0.439014 -0.767637 
2.65574e-18 -9.97257e-18 1 

-1.1891 -0.210597 -1.66807 
-0.938972 0.510615 -1.43214 
1.68772e-17 8.6284e-19 1 

-0.277003 -0.480056 8.74167 
0.472024 0.0801275 2.59773 
-8.39538e-18 2.07035e-18 1 

-0.519243 0.0769953 -0.275014 
-0.229017 0.173269 0.113134 
1.40474e-17 7.39063e-18 1 

-0.758577 0.353457 0.300562 
-0.241687 0.28311 -0.291909 
8.66309e-18 -6.25929e-18 1 

-0.419797 0.344038 -0.822604 
-0.248095 0.148526 -0.0917281 
8.58038e-18 -2.57411e-18 1 

-0.787267 -0.184847 0.386434 
0.453948 0.291124 0.251331 
0 7.92865e-18 1 

-0.371001 -0.0611522 -0.809501 
0.0396096 0.0385083 -1.06197 
1.83385e-17 -8.60144e-18 1 

-0.194896 -0.120728 -1.32581 
0.109617 0.122629 -1.84245 
3.70273e-18 -8.00206e-18 1 

-0.308998 -0.0332082 0.235208 
0.160203 -0.112453 -0.143773 
2.79018e-17 6.91684e-18 1 

-0.467612 -0.0484612 -10.0942 
0.0832018 0.06671 6.76766 
6.28963e-18 3.32725e-18 1 

-0.610758 -0.0620182 -6.63047 
0.238639 0.117185 -1.93745 
-2.46539e-18 4.70408e-18 1 

-0.163438 0.111953 -0.0219146 
-0.232452 -0.161672 0.787528 
-9.9804e-18 -9.46784e-18 1 

-0.301623 0.112311 0.0965975 
-0.0626379 0.0690691 -0.435819 
8.77295e-18 -4.06189e-18 1 

-3.22572 -0.0221991 4.64477 
1.34281 0.548503 -3.73186 
-3.527e-17 2.37047e-18 1 

-18.6447 3.97683 -3.86595 
-8.43156 2.98442 -1.25663 
1.66804e-17 -4.92208e-18 1 

-4.00867 2.43764 11.0964 
-1.73443 1.23118 -19.5916 
-5.16607e-18 -1.6144e-17 1 

-1.04845 -0.0780722 5.11655 
0.230936 0.262537 0.569359 
-1.19023e-18 7.3484e-18 1 

-0.285553 -1.98631 -0.604312 
0.0568286 0.919702 -0.670103 
1.54573e-19 -1.71748e-18 1 

-0.506613 -0.0885334 2.09699 
-0.366507 0.127942 4.44043 
-8.14166e-18 1.22528e-17 1 

-0.456971 -1.01658 -1.64696 
0.148731 0.281673 1.12898 
-2.82536e-19 2.0219e-18 1 

-0.186393 -0.096797 0.27122 
0.120098 -0.074787 -0.423085 
-3.75647e-18 -3.19996e-18 1 

-0.977311 -0.419258 -0.894314 
0.250319 0.382717 -0.314781 
-8.34244e-18 -2.32426e-17 1 

-1.23627 0.340156 -0.167523 
-0.0445773 0.418588 -0.725275 
2.81865e-18 1.28732e-17 1 

-0.61808 0.187661 0.876436 
0.0653844 0.192781 0.000212123 
1.06727e-17 -7.18726e-18 1 

0.270052 -0.830629 1.33646 
0.76467 0.406503 0.119635 
-5.43667e-18 -3.495e-18 1 

-1.26864 0.656753 1.70386 
-0.303317 0.549804 1.12203 
2.84024e-17 1.11352e-17 1 

-0.0889162 -0.141084 0.0230434 
0.195787 -0.00909348 -0.00352121 
3.79628e-18 -1.98575e-17 1 

-7.1049 -7.57114 -9.94865 
3.55368 4.92828 6.39817 
7.1089e-18 1.47703e-17 1 

-0.422355 0.061129 -1.34422 
-0.061263 0.0314919 1.28397 
7.45172e-18 -1.01327e-17 1 

-1.97405 -0.596835 0.795856 
0.111054 0.748774 -0.896565 
7.0357e-18 -8.13301e-18 1 

-6.87625 -4.99505 0.929991 
3.65006 3.46838 4.9273 
5.2008e-18 3.87328e-18 1 

-1.66617 -0.185308 -18.9881 
0.378642 0.62346 1.19575 
-1.84605e-18 -2.53172e-18 1 

-0.300443 -0.0354573 -0.16253 
0.155581 0.0186459 -0.874708 
5.6052e-18 -6.32148e-18 1 

-0.55372 -0.320172 -0.0518407 
0.547532 0.257384 -0.408299 
1.63604e-18 2.83034e-17 1 

-0.621282 -0.20061 -0.437201 
0.133128 0.150367 -0.430804 
1.66625e-17 -2.01415e-18 1 

-0.398944 -0.0369999 0.721501 
-0.0002226 0.0063768 1.1935 
8.0803e-18 -3.43031e-18 1 

-0.224294 0.216188 -0.169623 
-0.227565 0.0119702 -0.0321605 
-1.17414e-18 -5.46971e-18 1 

-0.284839 0.0374413 0.356259 
-0.135615 0.0545551 -0.36598 
-2.04469e-19 -8.41732e-18 1 

-0.757613 0.391757 1.19723 
-0.752469 0.0916849 0.454284 
1.73751e-17 -2.19788e-17 1 

-0.16977 -0.0502857 -0.0593015 
-0.0183698 -0.0104421 -0.188105 
-5.58066e-18 2.82316e-17 1 

0.00114308 0.276002 0.286482 
-0.251861 -0.0835002 0.316632 
-3.22264e-18 -1.81165e-17 1 

-7.39694 0.899708 0.83908 
-1.13937 0.0663366 -11.8182 
-2.33438e-18 5.34961e-19 1 

-0.376614 -0.289228 0.685782 
0.219756 0.258273 -0.802711 
1.10708e-18 -8.11999e-18 1 

0.0393949 -0.624489 -0.439812 
0.725116 0.265958 0.643582 
-1.41577e-17 1.33913e-17 1 

-0.216974 -0.0410837 0.539031 
-0.189837 0.156443 -0.116592 
4.04372e-19 -4.64598e-18 1 

-0.374447 0.34152 0.0684621 
-0.111925 2.87385e-05 0.35687 
-2.01466e-17 6.20798e-18 1 

-0.3931 -0.122051 -0.100524 
0.186811 -0.0274461 0.362433 
-2.86041e-18 -1.17992e-17 1 

-1.04674 -0.80853 -3.38582 
0.312333 0.461854 0.750755 
-5.43648e-19 1.57658e-17 1 

-0.29426 0.068682 -0.13302 
-0.439036 0.0161454 0.0612879 
1.20178e-17 5.98466e-18 1 

-0.817329 0.584016 -0.895088 
0.18019 0.589616 -0.392708 
-3.8313e-18 2.95152e-17 1 

-0.193062 -0.142678 -0.83478 
-0.025641 -0.090973 -0.721636 
-1.04203e-17 7.04433e-18 1 

-1.2157 -0.19537 -2.27928 
0.311724 0.482253 0.678787 
-5.62029e-18 8.68437e-18 1 

-0.719457 -0.231405 1.24652 
0.276093 0.669674 -0.740641 
5.96562e-18 -6.89917e-18 1 

-0.238275 0.14385 -0.192562 
-0.352429 0.1531 0.100755 
8.13226e-18 4.86066e-18 1 

-0.224547 0.00838672 0.626656 
-0.0381596 -0.0925167 -0.153202 
-1.28687e-17 1.19012e-17 1 

-0.39422 -0.127486 0.288958 
-0.0304114 -0.0286587 -0.280477 
2.81926e-18 -8.57338e-18 1 

-0.3475 0.053131 0.673474 
-0.00505145 0.0533684 0.746376 
-1.1141e-18 -1.72685e-17 1 

-0.399648 0.128279 -0.0941792 
0.0740905 0.157581 -0.154524 
-2.0477e-18 4.99127e-18 1 

-0.662246 -0.598174 0.476103 
0.329472 0.28082 0.809178 
-6.86513e-18 1.52508e-17 1 

-0.182322 0.176957 -0.287863 
0.0155677 0.261104 0.678502 
8.40695e-18 -1.09559e-17 1 

-0.665013 0.157732 3.84553 
-0.426799 0.203755 6.31712 
1.84449e-17 1.19221e-17 1 

-5.58007 -6.0831 16.4951 
2.70309 1.41171 6.16919 
-3.8876e-18 -7.88186e-18 1 

-0.963564 -0.947234 1.41808 
0.729764 0.680279 -0.324642 
1.19872e-17 -9.52369e-18 1 

-0.126417 0.0127535 -0.158261 
-0.0658303 -0.0484604 -0.0245328 
1.61282e-17 -1.02598e-17 1 

-0.590995 0.241949 -0.181757 
-0.723332 0.036319 -1.23635 
7.48266e-18 9.55864e-18 1 

-2.48026 0.304445 1.09654 
0.0544355 0.448698 -0.517507 
-3.72124e-18 -1.97007e-18 1 

-0.378554 -0.0213518 2.28586 
-0.150139 0.0172616 -1.48674 
7.88108e-18 7.77873e-18 1 

-0.336806 0.0781852 0.0516704 
-0.0552583 0.101279 -0.022831 
2.55416e-18 -7.37995e-18 1 

0.375931 -0.869125 -0.400199 
0.868795 0.414994 -0.270447 
4.42531e-18 -6.53425e-18 1 

-0.298797 0.0378337 -0.601906 
-0.0786114 -0.0218001 -0.0874839 
2.03047e-17 1.19723e-17 1 

-3.83013 0.61452 1.03307 
-0.0434615 0.134738 -0.643027 
2.84079e-18 1.51509e-17 1 

-0.811969 0.0868014 -0.0735731 
-0.10849 0.341005 -0.672412 
1.97681e-18 3.57391e-18 1 

-1.11821 -0.420736 1.53225 
-0.226346 0.344307 -0.047053 
1.17122e-17 8.52473e-19 1 

-0.289321 0.0907769 1.57245 
-0.34074 0.227551 -0.62802 
-4.99928e-18 -4.15603e-18 1 

-0.305517 -0.223189 -0.114131 
0.16738 0.157842 -0.278935 
-6.25774e-18 -5.44655e-18 1 

-1.70291 1.79418 -9.91585 
-2.37908 1.87947 -1.68114 
5.36819e-20 2.60693e-18 1 

-0.157959 -0.842115 0.644744 
0.140777 0.514253 -0.972541 
2.74414e-18 1.67698e-18 1 

-1.27728 0.575775 0.589802 
-0.269088 0.431717 0.616723 
-1.44159e-17 -1.68051e-18 1 

-1.25708 0.792028 13.1096 
0.00413884 0.947447 0.344516 
-7.43865e-19 1.22206e-17 1 

-0.72213 -0.0353556 -5.12005 
0.305377 0.197666 4.64829 
-2.108e-18 7.11619e-18 1 

-3.47588 1.54581 0.822552 
-0.0790831 0.604616 -0.313482 
2.29393e-17 1.11137e-17 1 

-0.289055 -0.0279062 -0.53848 
0.0369853 0.000827263 -2.78544 
2.85271e-18 -2.37407e-18 1 

-0.798255 0.458735 -1.98984 
-0.0891432 0.431776 -0.342735 
-2.13883e-17 -7.67995e-18 1 

-0.364446 0.311603 -0.188124 
-0.0277086 0.0281403 0.036897 
1.26669e-18 -5.60665e-18 1 

0.131951 -0.861161 23.7446 
0.787535 0.473416 11.4815 
-1.4134e-18 -5.4585e-18 1 

-0.236373 -0.0636586 -0.190018 
0.1947 0.0344295 0.431406 
-2.16215e-17 -3.27401e-17 1 

-0.184331 0.182712 0.609041 
-0.184534 0.0304863 0.503077 
-3.97e-18 -1.11589e-17 1 

-1.55745 0.444383 2.81461 
-0.410273 0.73082 0.0658593 
-1.90429e-17 -2.98007e-17 1 

-0.478306 -0.119431 -3.43602 
0.320641 0.150325 0.0561155 
-1.53072e-17 3.53648e-18 1 

-0.0510804 -0.743639 -1.1136 
0.451021 0.0599543 -0.526594 
-4.68504e-18 -3.4704e-19 1 

0.19055 -0.783693 0.163847 
0.711034 0.248047 -0.348679 
9.10004e-18 -5.10484e-19 1 

-0.342541 -0.319743 1.41074 
0.338085 0.124785 0.204372 
1.19898e-17 1.17117e-17 1 

-0.213038 -0.110797 1.09896 
0.013676 0.0351497 -1.18547 
-1.15174e-17 -1.15312e-17 1 

-0.161599 0.352453 4.27627 
-0.193121 0.107093 -1.08044 
-1.6899e-17 -1.42262e-18 1 

-0.722435 0.156555 1.70083 
-0.351782 0.274976 -1.70348 
1.2514e-18 6.74667e-18 1 

-0.369191 0.28542 0.357119 
-0.332654 0.0455261 0.57036 
1.04281e-18 -5.21403e-18 1 

-0.959848 -0.0401662 0.35676 
0.467121 0.219896 -0.997944 
7.87438e-19 -1.2599e-17 1 

-6.04112 -7.49596 -2.2809 
1.19683 3.10723 -3.56339 
-2.30951e-17 1.06373e-17 1 

-0.425607 -0.798368 0.0860792 
0.462357 0.0898856 0.0988661 
-1.9989e-17 -2.38279e-18 1 

-0.295092 0.0113627 -0.0693811 
-0.0446636 0.0957145 0.606426 
-7.69163e-19 -2.28156e-18 1 

-0.283663 0.441358 0.0654264 
-0.401225 0.159258 -0.289868 
4.10675e-18 7.06835e-18 1 

-1.61219 -2.13808 -7.8241 
0.90097 0.975279 0.992738 
1.81195e-18 -7.95246e-18 1 

-1.50784 3.70807 -4.18871 
0.298398 -0.146055 -1.32345 
3.93444e-19 2.00511e-17 1 

-0.644043 0.092876 -0.0427761 
0.255512 0.300346 0.0995459 
1.16958e-17 -1.3708e-18 1 

-0.277563 0.164445 0.298674 
-0.0961693 0.0181216 -0.13441 
6.04017e-18 -1.60442e-18 1 

-0.370218 0.473203 -0.387485 
-0.222756 0.311076 -1.11835 
6.39915e-19 7.27607e-18 1 

-0.254543 0.00582222 -0.366303 
-0.33545 -0.0303939 0.167694 
-6.91202e-19 -2.08225e-17 1 

-0.189191 -0.0897731 -1.80668 
0.0803602 0.0794099 -0.652208 
1.54735e-17 1.3185e-17 1 

-0.329107 0.113601 -0.585788 
-0.0848617 0.110646 -0.463021 
-1.26961e-18 -6.01395e-19 1 

-0.44109 0.0459905 0.0386011 
0.124985 0.101743 -0.223435 
2.78886e-18 1.00828e-17 1 

-0.976787 -0.624211 -0.834549 
0.0332484 0.589133 -0.0925535 
5.09068e-18 -1.01814e-17 1 

-0.134031 0.426007 0.45317 
-0.329407 0.149121 0.132173 
-3.53253e-18 -4.15969e-19 1 

-1.12907 0.176645 -0.117142 
0.660294 0.189942 0.916131 
-9.11309e-18 7.6505e-18 1 

-0.511018 -0.0599072 -0.917427 
1.09554 0.231126 0.455623 
-2.37581e-17 -1.49028e-17 1 

-0.0405992 0.343866 -0.377413 
-0.315304 0.0678895 -0.198176 
1.35388e-18 -6.26168e-18 1 

-0.106107 0.0212144 0.161625 
-0.057727 -0.0660009 0.17157 
1.52831e-18 -6.76824e-18 1 

-0.478865 -0.117673 -0.790257 
-0.0106063 0.0128293 -21.859 
1.90172e-18 1.20011e-18 1 

-1.50423 -1.2921 4.43213 
0.0391293 0.598227 -0.919526 
1.29767e-17 -7.94156e-18 1 

-0.277681 -0.046438 0.322537 
-0.0464309 0.0873718 0.258868 
1.46798e-17 -5.05369e-18 1 

-0.471392 0.693827 -0.929077 
-0.0331976 0.244482 0.415947 
-1.86713e-17 -3.87004e-18 1 

-0.21792 -0.288763 0.363358 
0.128567 0.151913 -0.589106 
-6.2795e-18 3.46596e-18 1 

-0.993961 -0.445476 -0.507892 
0.616894 0.483276 0.694686 
2.30895e-17 4.24903e-17 1 

-2.11352 -0.38213 -0.242911 
-0.13718 0.472888 0.211756 
1.48804e-17 3.36651e-18 1 

0.00482228 0.475738 0.254869 
-0.429002 0.0848419 -0.0219929 
5.66029e-18 -7.76578e-18 1 

-0.674676 -0.482065 2.43932 
-0.348119 0.167078 2.10588 
1.65686e-18 -1.25093e-17 1 

-0.280043 0.719076 1.92788 
0.416595 1.01658 1.71044 
-8.35663e-19 -1.47808e-17 1 

-0.546825 0.173914 -0.775823 
-0.0391926 0.0509007 0.247155 
1.85104e-17 -1.22123e-17 1 

-0.771145 0.130583 -2.31618 
-0.3978 0.269439 -2.03688 
-1.06834e-18 -3.41869e-18 1 

0.0783997 0.887868 -0.105215 
-0.521684 0.259612 0.504225 
6.94734e-18 2.67145e-18 1 

-0.871388 1.04396 -0.923786 
-0.292027 0.678622 -2.77321 
-6.00357e-19 1.50923e-17 1 

-2.73359 0.176882 2.21407 
-1.7107 0.445714 0.619545 
2.68627e-18 -5.50222e-18 1 

-0.151586 -0.189886 0.821784 
0.153136 -0.0393909 0.291049 
1.40267e-17 -2.61535e-18 1 

-0.773208 0.0822212 -3.53177 
-0.490138 0.244117 0.238224 
-5.11056e-18 -3.10913e-18 1 

-2.80823 1.33677 -5.29077 
-0.80002 0.695943 -1.45068 
8.02168e-18 -1.98767e-18 1 

-0.908442 0.198748 -2.37745 
-0.018467 0.334012 -0.741194 
3.26435e-17 4.41043e-19 1 

-1.1153 -0.667218 10.6462 
-0.0722124 0.755457 -5.47082 
-3.41476e-18 -3.68128e-18 1 

-0.139226 0.11051 -0.235784 
-0.0538324 -0.0197194 0.437337 
5.63193e-18 -2.80873e-18 1 

0.204464 -0.976508 0.734278 
0.510555 0.34602 -0.623004 
-8.35204e-19 5.01913e-18 1 

-1.42247 -0.516579 0.397217 
0.163469 0.44017 -0.249036 
-1.73548e-18 -8.17603e-18 1 

-0.175738 -0.0502417 2.06726 
0.0104241 -0.0736252 1.08098 
4.25399e-18 5.65616e-18 1 

-0.426962 0.134383 -2.41486 
-0.281086 0.145743 0.637576 
-3.99733e-18 -9.95197e-18 1 

-0.268102 -0.0419284 -0.00909858 
-0.0667158 0.0111121 0.190079 
-3.61738e-19 -1.65366e-18 1 

-2.26216 -1.55 -19.154 
0.224402 0.839867 7.17227 
-1.38376e-17 5.69453e-18 1 

-2.09685 -0.588396 2.07491 
0.0541123 0.587394 0.209725 
-3.6757e-18 4.51197e-18 1 

-0.348843 -0.0695252 -0.139963 
0.19797 0.101082 0.314989 
-1.84647e-17 -3.9217e-18 1 

-0.200504 0.0805885 0.2521 
0.07686 -0.0765268 -0.308027 
-9.27356e-19 -3.8408e-18 1 

-0.609965 -0.255374 12.1699 
0.211166 0.183525 -7.94851 
6.27767e-18 -2.1568e-18 1 

-0.311076 0.144261 0.017933 
-0.293843 0.101912 0.722687 
9.13822e-18 -3.91638e-18 1 

-0.524122 -0.0661352 -1.08864 
-0.194921 0.172397 5.54259 
2.2237e-18 3.71009e-18 1 

-0.30471 0.0275824 -2.13318 
0.0358986 0.0661374 -7.16104 
-5.54039e-18 -6.30219e-18 1 

-3.70996 1.35998 -44.6987 
-0.345992 0.815476 -32.7243 
-3.61137e-19 2.00014e-18 1 

-3.05316 0.243943 206.441 
-0.406859 0.927353 56.1064 
1.55328e-18 1.01934e-18 1 

-0.397146 -0.394743 12.1797 
0.0547967 0.309841 -6.87166 
-3.37915e-18 1.0123e-17 1 

-0.597117 -0.458074 21.0648 
-0.0738113 -0.100465 -41.4463 
3.36848e-18 -4.52534e-18 1 

-1.86466 -1.51055 1.95393 
0.313668 0.594504 -0.187232 
-6.96358e-18 3.75786e-18 1 

-1.75908 -0.64258 72.4292 
0.575361 0.72275 -30.0099 
-1.3317e-17 -2.05239e-18 1 

-0.470399 -0.202441 0.0909322 
-0.179697 0.0741363 -0.162664 
-8.62337e-18 5.04559e-19 1 

-1.70138 1.00048 -1.62858 
-0.169989 0.500741 -0.408376 
-2.04603e-18 -5.62657e-18 1 

-0.295146 0.0510809 -0.297547 
-0.0292672 0.0608085 -0.4906 
1.13485e-17 -5.68419e-18 1 

-0.849811 -0.0194717 -0.87725 
-0.0426185 0.102884 -0.173373 
-3.0581e-18 -1.35943e-17 1 

-0.989547 0.704444 0.900099 
-0.406619 0.435897 0.798089 
-8.03731e-18 -4.1675e-18 1 

-0.395979 -0.154693 0.298882 
0.0913908 0.106974 -1.22489 
-2.68547e-18 -7.14865e-18 1 

-0.430316 0.110421 0.140236 
-0.183642 0.183915 -0.700678 
-9.53109e-18 -1.72175e-18 1 

-1.9598 -0.801535 4.77208 
0.168048 0.406337 1.89036 
6.83167e-18 5.09924e-18 1 

-0.587624 -0.153496 0.57114 
0.121737 0.201332 0.0113259 
-7.05634e-18 -6.52712e-18 1 

-1.71384 -1.14973 0.606593 
0.381565 0.740339 -1.28762 
-9.53115e-18 1.63004e-17 1 

-0.114718 0.526475 0.553128 
-0.237831 0.112895 -0.284023 
8.80805e-18 -7.17336e-18 1 

-2.04309 -2.03643 -6.91602 
0.343787 0.985172 2.77308 
1.02261e-17 5.37301e-18 1 

0.191194 -0.833979 0.924225 
0.713861 0.327413 -0.351283 
-4.58402e-18 3.84611e-18 1 

-0.187182 0.071655 0.0904385 
-0.0974336 -0.0783575 -0.141631 
1.53871e-18 -5.979e-18 1 

-4.35375 -2.83596 -1.71698 
1.28083 1.41522 3.66942 
-9.11143e-18 -1.62704e-18 1 

-0.246039 -0.198858 -0.016781 
0.201743 -0.353589 -0.305719 
8.45719e-18 6.81385e-18 1 

-0.504625 0.357378 0.102175 
0.231957 0.153606 0.345307 
9.0674e-18 1.06259e-18 1 

-1.85789 -3.79415 16.9274 
0.0681879 0.257468 3.32996 
5.60804e-18 1.27084e-17 1 

-0.987053 -0.595451 0.176747 
0.569962 0.323838 -1.72625 
-6.08992e-18 -1.12049e-19 1 

-0.366959 0.202501 -0.702991 
-0.207559 0.0808842 0.160231 
-2.45161e-17 -2.45161e-18 1 

-2.12841 -1.26082 -2.70665 
0.0232376 1.25074 -1.29389 
2.05334e-17 3.74817e-18 1 

-0.353133 -0.124008 -1.2771 
0.221455 -0.102462 -0.350194 
4.2219e-18 8.95645e-18 1 

-0.712876 -0.0668382 3.82831 
-0.377644 0.0846546 -1.35204 
4.90661e-18 1.74931e-17 1 

-0.658737 -1.71456 2.86581 
0.823564 0.91887 -1.32241 
5.894e-18 1.58471e-18 1 

-0.224015 -0.0728792 1.50222 
0.0441314 -0.0704204 0.446748 
-5.62009e-18 4.95185e-18 1 

-0.659315 -0.385441 -0.535379 
0.0197482 0.0164349 -1.29779 
1.10395e-17 2.22934e-17 1 

-0.640554 -0.581701 -0.536951 
0.335523 0.440476 0.357307 
8.80086e-18 2.99604e-18 1 

-0.555394 0.801547 -0.683953 
-0.526462 0.347704 0.22255 
1.28996e-18 2.11922e-17 1 

-1.37783 4.14969 127.975 
-0.00211891 0.569876 12.2109 
-3.77729e-18 1.53469e-17 1 

-0.876916 -0.228894 8.27116 
0.216669 0.425065 -7.56825 
1.56527e-18 7.8225e-18 1 

-0.676533 -1.02348 -0.910012 
0.724384 0.696733 -0.812103 
-1.50282e-17 -6.3649e-18 1 

-1.71184 -0.668982 30.8539 
0.374018 1.02205 -0.533342 
-2.24324e-18 9.26687e-18 1 

-0.617733 -0.183641 -0.444791 
0.0929952 0.032286 -0.410909 
2.02546e-17 2.25052e-18 1 

1.41722 -9.3524 -11.5685 
-1.15936 2.05582 0.38543 
4.1701e-18 -3.40934e-18 1 

-1.47199 1.48235 0.39448 
-1.28853 1.10621 1.65374 
-2.40977e-17 9.78969e-18 1 

-0.305578 -0.0678502 -1.0257 
-0.131294 0.041825 -0.200532 
-4.57674e-18 -2.86943e-18 1 

-0.400351 -0.162526 0.180356 
-0.0696718 0.308981 -0.0836195 
-5.51156e-18 -1.22096e-17 1 

-0.746278 -0.62231 -0.192257 
0.110202 0.435771 5.13014 
7.6444e-18 5.31594e-18 1 

-1.26685 -0.492836 -0.198962 
0.18614 0.515424 0.720158 
8.72207e-18 9.91145e-18 1 

-1.02363 -2.53712 -4.67429 
0.0241546 0.795892 -0.546018 
-4.24413e-18 3.82322e-18 1 

-0.293064 0.0355017 -0.277369 
0.0440338 -0.0129822 -0.184137 
1.79779e-17 -1.63679e-17 1 

-0.946322 -0.44993 1.38728 
-0.155169 0.238423 -0.861634 
8.52863e-18 -1.01373e-17 1 

-0.136979 -0.145256 0.74118 
0.0491335 -0.0366003 0.476737 
2.10161e-17 -4.00937e-18 1 

-0.261776 -0.152151 -0.185928 
0.0988196 0.168514 0.225134 
-5.53249e-18 3.44977e-18 1 

0.213435 -0.890092 -0.0488623 
0.863767 0.445676 0.20527 
-7.84286e-18 6.42858e-19 1 

-0.193107 -0.0380951 -0.525991 
-0.167806 0.126856 -0.964045 
5.94186e-18 -7.65526e-18 1 

-0.337547 0.378943 -0.373746 
-0.285064 0.11779 0.842847 
1.40072e-18 -8.72753e-18 1 

-0.657164 -0.230943 -1.1729 
0.380479 0.175538 0.0746163 
2.33312e-18 -3.22822e-18 1 

-0.188361 -0.193955 0.677241 
-0.0127941 0.272385 -0.401643 
4.15134e-18 -1.64876e-18 1 

-0.202392 -0.0578428 0.857844 
0.0797992 0.00750408 0.119689 
-3.92009e-18 9.22172e-18 1 

-0.453544 -1.32252 -1.0947 
0.0997559 0.504357 0.37803 
1.8885e-18 -4.96512e-18 1 

-0.937463 -0.0361697 -3.15396 
-0.47466 0.445517 -0.702167 
9.07604e-18 -6.7873e-18 1 

-0.614782 -11.2942 -2.43054 
-0.0108045 0.289371 -0.128234 
4.66237e-18 -2.27161e-16 1 

-0.203543 0.0539465 1.43703 
0.0810118 0.0694514 1.16149 
-3.30683e-18 -2.37536e-18 1 

-0.807965 -0.664302 -127.652 
0.230704 0.225447 48.7087 
1.59672e-18 -4.2114e-18 1 

-0.478526 0.500596 -1.20923 
-0.680184 0.37213 1.02523 
-7.97531e-18 2.17612e-17 1 

-0.624613 0.251189 -6.29251 
-0.0457152 0.163945 -0.71475 
4.73867e-18 -1.93809e-18 1 

-0.877079 -0.0171245 -166.796 
0.0762781 0.107426 -0.185858 
-3.16467e-18 1.5906e-18 1 

-0.599061 0.0257263 -0.209346 
0.180803 0.264264 -0.462298 
-7.20255e-18 -8.13375e-18 1 

-0.600533 0.247516 -2.49671 
-0.196626 0.165177 0.564462 
2.59527e-18 -7.95962e-18 1 

-0.161477 -0.338892 0.740985 
-0.15248 0.0757454 -0.0745977 
7.86513e-18 -1.24917e-18 1 

-0.270512 1.89557 -1.14732 
0.00181269 0.232156 0.506434 
1.13752e-17 -1.18537e-17 1 

-0.805096 0.397031 -0.755308 
0.390773 0.189244 -0.327153 
1.43242e-17 -1.43486e-17 1 

-0.840316 -0.312358 -0.687581 
0.148915 0.163432 -0.360066 
4.71229e-18 -3.21292e-18 1 

-0.805092 -0.181782 -3.78729 
-0.331816 0.199327 1.18508 