# vtk DataFile Version 3.0
Output file generated by Yade's KinematicLocalisationAnalyser
ASCII
DATASET UNSTRUCTURED_GRID

POINTS 13483 float
580.751 32.756 -0.448581
683.364 80.0702 0.454159
116.057 6.15553 -0.536385
714.673 5.64526 0.377659
487.047 8.16479 0.331868
307.674 35.4204 -0.474472
151.329 6.96909 0.457002
550.439 14.0192 0.190113
484.165 25.5136 -0.207219
665.973 14.0238 -0.543917
204.524 8.78713 0.130784
250.38 6.31498 -0.251895
618.532 45.6162 -0.195151
600.051 27.6154 -0.111299
132.943 17.8791 0.529986
215.056 34.8984 0.403439
211.826 13.0015 -0.295396
282.076 9.73629 0.398949
333.957 32.7819 -0.498961
509.637 8.3116 0.408723
402.406 37.3918 0.108508
568.45 50.5712 -0.267295
709.048 43.116 0.44192
650.92 56.883 0.450727
448.755 17.1025 -0.410189
234.525 44.7795 0.14025
478.848 29.488 0.462478
565.613 22.1339 -0.228847
43.654 16.4026 -0.329268
658.118 33.1578 0.336748
471.107 5.01915 0.365116
15.8794 23.9482 -0.338387
697.091 85.9122 -0.249651
483.194 2.21203 0.635667
75.2166 45.7727 -0.102074
507.744 33.8425 -0.406166
515.745 16.3829 0.525926
336.747 22.6837 -0.233166
517.367 26.3582 0.390025
343.01 33.6336 0.498835
234.318 14.6974 -0.323672
425.566 35.9342 0.0943791
629.124 7.49873 0.227318
186.857 6.26171 0.383406
53.4184 7.10312 -0.124984
66.2937 9.10072 -0.306636
640.427 14.4649 -0.630051
22.5754 11.899 -0.274763
576.654 63.6549 0.326989
631.592 44.5794 0.399031
167.213 32.6084 0.333258
688.819 65.4279 0.166339
33.453 29.0435 0.130964
519.865 2.99932 0.342699
137.738 7.44924 -0.556989
571.303 39.0006 -0.421234
491.179 29.0108 -0.164015
169.887 0.949739 -0.279503
31.8452 2.37636 -0.329012
341.802 17.9407 0.2764
585.16 64.3265 0.0656486
452.281 35.4785 -0.180068
390.847 1.03387 0.205461
648.585 7.16414 0.597673
25.3369 44.7684 -0.241225
249.844 30.9949 0.286885
668.056 8.62628 -0.216703
625.401 72.191 -0.342145
408.813 8.58116 -0.56076
552.064 6.35445 -0.505413
677.679 48.1463 0.438798
126.469 7.79705 0.270414
485.923 27.3309 -0.167372
467.852 16.0768 -0.119729
288.2 16.796 -0.351163
19.9659 13.8645 0.32122
708.166 82.9436 0.324674
326.364 39.2507 -0.298686
631.606 26.4091 -0.428332
639.576 20.2657 0.310175
702.553 14.8756 0.341191
454.182 36.7607 0.163068
89.2674 39.4814 -0.281705
640.39 54.7378 0.240328
613.954 56.8891 0.117149
717.162 48.504 -0.126102
698.37 0.742026 -0.555101
284.925 28.7963 0.479182
597.7 9.63336 0.259192
23.8848 5.56074 -0.626179
129.322 39.2272 -0.173528
500.541 15.905 0.209477
706.751 70.0048 -0.518376
190.551 29.1643 -0.233529
42.3832 35.4387 0.30044
482.003 1.16736 0.133296
230.19 8.83312 -0.404503
669.859 62.0027 0.286604
696.716 61.9567 0.27867
355.037 21.8485 -0.280057
158.925 27.1489 -0.431229
532.403 42.3348 0.429781
372.988 16.0832 -0.450347
405.949 30.2957 0.123042
370.878 4.61289 0.375648
534.155 11.2357 -0.19617
717.086 16.2449 0.262441
77.2134 40.7524 -0.459697
329.522 5.00386 -0.217967
545.141 12.9915 0.352187
353.477 44.5527 0.460623
25.1632 25.9503 -0.462384
29.6166 6.03527 -0.29798
551.883 37.0495 0.526541
494.019 26.3571 -0.163287
24.6669 38.2748 -0.421978
90.3377 31.4711 0.242966
319.542 16.0894 -0.286951
578.951 20.2064 0.130082
465.268 40.1818 0.292418
681.852 14.3793 -0.33228
674.614 11.6323 0.19336
380.873 38.1076 -0.10974
604.25 41.6457 0.134907
233.231 17.4572 0.523812
324.983 3.88533 0.460294
100.501 32.1384 0.39923
113.464 25.0878 0.329561
528.867 43.8668 -0.0782984
301.274 19.0363 0.462774
654.545 39.1159 -0.108466
629.684 69.5625 0.114629
472.592 21.8407 -0.482356
710.304 52.5446 -0.229529
422.18 23.4076 -0.26082
271.813 24.5243 0.301938
630.988 55.2897 -0.279252
274.108 28.5777 -0.455261
560.659 13.7054 -0.227872
327.356 35.9449 0.210817
494.977 12.669 0.54705
361.701 32.7585 -0.122141
424.108 16.8234 -0.111578
313.694 42.4876 0.431372
186.772 30.2126 0.144183
688.207 80.3735 -0.159343
713.865 16.8426 -0.352936
6.00183 12.4943 -0.502956
428.219 22.4164 -0.43623
37.0975 23.4375 -0.114576
371.674 32.3837 -0.451183
389.926 25.5752 0.271878
73.1076 12.3934 0.504248
50.1922 34.2105 0.422381
222.02 13.6245 0.418758
586.751 52.932 0.418259
563.719 24.8366 -0.682317
72.8097 21.5696 0.440083
653.569 57.6315 -0.667642
699.899 34.0502 -0.57827
618.553 67.9712 -0.490589
644.602 3.39268 -0.68299
536.734 30.947 0.504209
569.405 51.8848 0.45631
503.768 19.6581 -0.386817
711.993 3.93673 0.389216
219.711 25.0399 0.166883
125.282 36.2728 0.238099
243.35 6.66922 0.424934
91.9452 4.4785 0.27774
62.6541 10.2603 0.229497
272.248 36.1529 0.337881
15.9712 25.6557 0.439619
542.54 23.3902 -0.547976
575.874 57.4019 0.200208
456.946 22.1669 -0.421021
715.5 95.0103 0.358874
402.096 8.70923 -0.119647
430.287 37.8735 -0.498362
528.423 3.26998 -0.20646
22.4286 24.6435 -0.397465
561.302 5.19793 0.522694
537.687 4.19251 -0.304634
202.791 11.2855 0.492438
420.319 16.6591 -0.220604
308.101 6.2877 0.377254
384.181 19.6241 -0.307188
666.193 56.3054 -0.101206
189.062 26.1113 -0.453452
692.837 6.12064 -0.44854
666.349 50.9278 -0.315481
379.414 10.5479 0.193066
666.226 2.51325 0.279616
585.083 30.4551 -0.471146
682.164 34.0057 0.469916
425.478 45.7797 0.287753
489.803 13.3829 0.44893
458.902 46.9997 -0.227462
441.314 8.78903 -0.181736
621.786 65.9679 0.268323
621.492 60.9382 -0.3201
189.08 39.5446 -0.368478
700.744 15.71 -0.174103
560.781 55.1818 -0.242016
11.3868 16.8226 0.22853
403.465 25.796 0.481727
184.174 23.5606 0.401099
90.9923 40.3411 -0.222588
707.146 66.6013 -0.41213
616.584 73.3762 0.232123
316.306 25.8793 -0.389975
525.082 10.199 0.324112
80.2478 45.5035 -0.200613
244.417 26.1947 -0.488305
544.928 27.695 0.440211
481.889 20.4006 -0.41541
259.806 0.879153 -0.342
541.864 44.4041 -0.457739
523.406 44.7584 -0.562059
475.26 35.6441 -0.340164
492.342 2.36381 -0.6434
651.391 19.3441 0.49013
176.547 12.6381 -0.210616
494.543 38.7735 0.486421
552.215 45.5588 0.109271
71.6319 0.999606 0.315188
248.672 4.77407 0.178084
712.961 18.6787 0.16342
703.031 16.5083 -0.559333
718.485 23.5792 -0.698142
300.753 8.62993 -0.233144
683.053 39.8671 -0.420182
403.887 42.3689 0.309641
445.532 0.790646 -0.453307
621.149 50.8933 0.455655
26.0006 31.801 -0.342339
328.421 41.9159 0.580021
249.523 2.90812 0.369395
701.384 85.4873 -0.170538
655.804 78.0179 -0.223726
284.56 11.0891 0.251771
625.657 50.0873 -0.0872503
548.381 2.48632 0.250749
533.974 7.60975 0.514432
94.8783 18.836 -0.472447
300.596 1.04242 -0.230031
340.675 2.24685 -0.373083
13.9304 7.58392 -0.463879
4.33516 31.3306 -0.307176
158.806 19.2707 0.4138
66.9051 42.7355 0.248956
64.6771 30.1001 0.328238
419.942 14.755 -0.436964
364.456 36.1844 0.475938
686.686 65.8591 -0.149702
19.5262 3.95565 0.274225
69.3131 7.20421 0.140849
595.376 53.4107 0.132644
291.989 0.927319 0.382977
362.385 16.8318 -0.107095
232.702 4.69554 -0.382048
621.345 35.025 0.453294
448.268 7.94858 0.523464
685.519 41.5428 0.480585
602.946 44.7516 0.301622
630.499 24.98 0.166015
417.188 26.7511 0.568269
100.251 45.6202 0.325152
532.554 47.2485 0.0851904
682.41 25.0712 0.329173
235.092 30.9679 -0.276897
31.2927 18.0139 -0.232586
334.292 13.8636 0.518681
105.763 41.3138 -0.46062
265.248 42.4713 -0.224102
422.599 1.73809 -0.408966
708.543 77.9605 0.369966
640.038 2.25307 0.590895
330.014 3.46377 0.575008
297.869 26.6061 -0.159401
458.105 43.7657 0.229291
79.9399 8.83636 0.50865
194.852 45.716 0.382072
697.583 65.3558 0.418033
489.864 41.3713 -0.0750994
197.358 41.7213 -0.314078
158.007 42.9452 0.388223
718.55 42.2941 -0.550887
715.482 15.881 -0.592059
591.391 3.53546 -0.653628
187.768 24.9923 0.119124
538.208 32.1431 -0.120256
540.192 31.5677 -0.341427
406.582 5.7038 -0.146165
477.135 0.97982 0.441876
682.936 67.3595 -0.540378
83.2575 31.9503 0.209032
622.168 26.1291 -0.600074
271.918 15.6665 -0.372738
9.42182 2.33892 0.347352
123.969 38.1085 -0.207592
65.2775 23.516 0.592849
651.134 41.4633 -0.365892
703.019 93.5459 0.165394
183.016 28.8748 -0.197692
711.328 14.4847 -0.42423
43.7793 37.5238 -0.267225
89.2274 29.7729 0.20193
608.859 25.8468 0.488511
410.608 18.9191 -0.560696
512.625 16.9568 0.153727
235.566 28.9414 -0.185294
602.577 6.19282 0.538089
719.245 17.611 0.507169
28.7924 33.0048 0.28515
267.789 7.80372 0.202046
219.654 15.2709 0.259519
1.08795 35.9785 -0.154828
222.973 14.6799 -0.381119
209.333 11.0428 0.127961
211.777 26.5666 -0.282921
130.952 28.6461 0.224515
538.076 17.1691 -0.304258
164.544 14.3106 -0.366397
695.921 82.7693 0.232016
171.835 3.85058 0.512653
46.1391 38.4828 -0.420166
659.479 68.3893 -0.446491
279.023 31.4668 -0.381015
632.967 39.6658 -0.479622
717.127 84.2475 0.476314
298.811 9.25376 -0.104892
671.231 39.8953 -0.457
326.991 2.50409 -0.437894
413.55 24.3859 0.344963
631.689 18.7586 0.557552
103.928 12.146 -0.489024
479.181 3.92584 -0.514586
688.068 42.1169 0.190211
86.5382 7.85613 -0.257988
279.595 14.8553 0.200713
420.707 11.9863 -0.206342
712.369 5.75748 0.570801
395.696 2.00153 -0.543464
174.379 39.2487 -0.302982
685.643 25.5987 -0.535814
127.077 37.2902 -0.233551
260.826 31.575 -0.388449
398.28 22.1722 0.218256
563.484 15.0491 0.414059
385.065 10.2156 -0.558637
453.505 29.4156 -0.433894
684.813 79.5257 0.407194
46.5855 12.0219 -0.238305
297.499 38.7644 -0.257369
377.862 28.3916 -0.451655
407.44 20.953 0.328382
515.191 50.3574 0.356566
678.343 61.8956 0.207378
625.316 60.2411 0.378821
223.586 34.6832 -0.391927
13.4726 31.9714 -0.174203
620.087 62.4614 -0.120043
501.595 46.4931 0.430488
227.145 39.8561 0.124774
637.869 45.3555 0.121258
148.564 9.33403 0.250727
364.868 22.0711 0.363061
459.732 44.9167 -0.122562
411.483 20.1902 0.257106
679.576 78.8081 -0.2907
423.812 3.96462 0.568279
48.6403 26.1174 0.297098
466.382 33.4146 0.339369
431.125 44.8118 -0.388767
701.937 79.3704 -0.22841
670.205 36.733 0.311662
532.513 21.7693 -0.162149
694.199 75.0285 0.433225
291.589 2.21041 -0.470211
376.889 30.9905 0.605001
27.7735 40.1675 -0.333288
672.207 42.1115 -0.157931
591.935 23.7026 -0.597146
459.494 0.821091 0.461312
123.822 4.69091 -0.361785
423.8 40.027 -0.127069
11.8463 0.895731 -0.315775
711.717 7.93785 0.277115
368.451 40.4391 -0.448477
[...]
POINT_DATA 13483
TENSORS Strain_matrix float
-1.1886 0.317527 1.07446 
-0.351185 0.550383 -0.0402745 
-1.71491e-17 -2.57237e-18 1 

-1.99842 1.81017 21.1388 
0.496881 0.515235 0.901964 
3.64408e-18 1.27441e-17 1 

-0.173822 0.0227426 -1.70916 
0.0227567 -0.000301825 -2.00774 
-9.82659e-18 1.43933e-18 1 

-1.27283 1.01489 1.2613 
-0.295625 0.364125 0.16322 
4.16825e-18 -5.13016e-18 1 

-0.370786 -0.0416618 0.0029048 
-0.0376198 0.0550738 -0.265351 
-8.51999e-19 -9.53214e-18 1 

-0.11974 -0.0386834 -1.13659 
0.0274042 -0.0132614 0.222684 
-4.35642e-18 -5.3584e-19 1 

-0.119006 -0.00784672 -0.32114 
-0.0166165 -0.0871885 -0.316759 
-1.87798e-17 4.30538e-18 1 

-0.375287 -0.0793272 0.18488 
0.208637 0.170847 -0.156654 
2.4818e-19 1.61126e-17 1 

-0.369319 -0.0537998 -1.11712 
-0.1034 0.0866473 -0.384518 
-2.25176e-17 2.72582e-18 1 

-0.281913 -0.166797 0.151054 
0.219074 -0.0521064 -0.23664 
-9.87444e-18 -3.36826e-18 1 

-0.0982143 0.0332665 -0.0437714 
0.0185564 -0.0800898 0.104547 
1.58549e-18 2.09452e-17 1 

-0.116633 -0.0840465 0.2192 
-0.0490441 -0.0945915 0.121943 
1.299e-18 3.82864e-18 1 

-0.368941 0.346234 -0.183938 
-0.237593 0.221752 -0.479079 
6.86245e-18 -1.05034e-17 1 

-0.594775 -0.418322 0.370386 
0.648591 0.309772 0.0318557 
-1.06912e-18 1.17017e-17 1 

-0.312826 -0.0635419 -1.76893 
0.0184412 0.00705778 -1.7765 
-1.10904e-17 1.94508e-18 1 

-0.125539 -0.0458742 0.442537 
-0.0323513 -0.00275297 0.250124 
5.58174e-18 1.15511e-17 1 

-0.0996128 -0.0343025 0.0632503 
0.017177 -0.107964 -0.0343714 
-2.07339e-18 -1.20948e-18 1 

-0.187023 -0.00930424 -0.0304377 
0.00859628 -0.0647117 -0.0346026 
-1.92674e-17 9.35844e-18 1 

-0.220178 -0.00120885 -4.95612 
0.0345908 0.0114188 -2.55531 
4.13913e-18 3.42957e-18 1 

-0.12722 0.0591325 0.354925 
-0.166097 -0.0985742 0.685778 
1.34396e-17 -1.81363e-17 1 

-0.171264 -0.0998528 0.313993 
0.222244 0.0024668 0.00729684 
2.44245e-18 -1.80276e-17 1 

-1.3489 -0.408662 2.16823 
0.758971 1.00743 -1.47911 
-4.92586e-18 -1.01211e-17 1 

-9.07365 4.71887 -14.9107 
-4.30189 3.07884 -5.8519 
-1.99171e-18 -5.31122e-18 1 

-0.151038 0.748567 1.16171 
-0.920653 0.446567 -0.690795 
-1.33545e-17 -6.93738e-18 1 

-0.213287 -0.0433369 0.586577 
-0.0250655 -0.0296351 -0.361784 
-3.66038e-18 1.57659e-17 1 

-0.201549 0.0453113 -0.049502 
-0.0321976 0.0672431 -0.129279 
1.32397e-18 9.70908e-18 1 

-0.233086 -0.18582 -0.796596 
0.243512 0.0828567 1.80735 
3.31974e-18 -1.14946e-18 1 

-0.608774 0.0245344 -0.927892 
0.458178 0.326251 -0.532843 
-7.39966e-19 -2.80262e-17 1 

-0.140896 0.0884462 0.749108 
0.121251 -0.0957497 -0.399382 
-3.40524e-18 1.33777e-17 1 

-0.288926 -0.483118 0.176068 
0.329778 0.135419 0.393213 
-1.62828e-18 3.49029e-18 1 

-0.115567 -0.00248719 -0.0721176 
-0.118353 -0.137748 0.63291 
5.5722e-18 -7.20327e-18 1 

-0.187902 -0.0498175 -0.0169597 
0.034547 -0.057136 0.00933995 
-2.31015e-18 -9.38807e-18 1 

0.162989 -0.844713 0.282207 
0.639456 0.31297 0.269326 
1.73346e-17 1.22093e-17 1 

-0.273634 0.144187 -4.76871 
0.0335551 0.116527 1.07541 
-6.11513e-18 -1.91725e-17 1 

-0.0965394 -0.148444 0.224227 
0.0868035 -0.126905 0.361076 
1.20107e-17 8.51729e-18 1 

-0.633446 -0.0183888 0.466712 
-0.113134 0.346448 1.02222 
-3.59056e-18 -8.10846e-19 1 

-0.262067 -0.0658746 -1.82585 
0.0352226 0.0377925 2.34336 
-9.13401e-19 -7.89478e-18 1 

-0.128422 -0.00389317 -0.25733 
-0.0263623 -0.132041 -0.121822 
1.63487e-17 8.05582e-18 1 

-0.606158 -0.314308 0.460187 
0.276061 0.370255 0.0571682 
1.21335e-17 1.12173e-17 1 

-0.16813 -0.0167837 2.59157 
0.0486597 0.0164786 2.96163 
-1.14641e-18 2.44863e-18 1 

-0.147634 -0.0233684 -0.0923385 
0.0040963 -0.010354 0.372271 
1.04951e-18 -2.6019e-18 1 

-0.0974984 -0.253786 -0.158888 
0.308909 0.0461561 0.277885 
7.5369e-19 5.35658e-18 1 

-0.425363 -0.36293 -0.0881196 
0.0428799 0.0371905 0.234561 
-4.93783e-18 -1.68749e-17 1 

-0.145413 0.0602936 0.172334 
-0.0198421 -0.0251017 -0.415337 
3.87873e-18 1.39219e-17 1 

-0.107192 0.0275577 0.0477563 
-0.0891825 -0.0799101 0.11809 
8.53581e-18 -8.55309e-19 1 

-0.119098 -0.0276791 -0.0366644 
0.0189382 -0.0382075 -0.264278 
-6.64233e-18 1.74337e-17 1 

-0.934534 0.307914 1.27652 
-0.77981 0.107477 0.457807 
2.17711e-17 -6.08983e-18 1 

-0.0682286 -0.0177661 -0.0167362 
0.0163397 -0.121218 -0.000270121 
3.38545e-18 9.53649e-18 1 

-0.252528 0.103167 -0.146207 
0.0975003 0.204008 -0.00599675 
-1.13468e-18 -1.02122e-17 1 

-1.81538 0.0471181 0.341055 
-0.233485 0.747756 -6.1256 
3.61422e-18 -5.12014e-18 1 

-0.0977947 -0.0879291 -0.230358 
0.040027 -0.0119797 -0.0872382 
-3.44431e-18 1.72215e-18 1 

-0.00229924 -0.549068 -0.781073 
0.638861 0.214454 0.840968 
-3.948e-18 1.23775e-17 1 

-0.133415 0.00417308 0.0372925 
-0.040443 0.0144556 0.112012 
1.7207e-19 6.14864e-18 1 

-0.159218 0.0574782 0.0800641 
-0.0174311 -0.0514329 -0.103429 
7.83789e-18 1.53053e-17 1 

-0.227938 -0.0336692 0.555076 
0.0132815 -0.0257936 0.440585 
3.63201e-18 -5.69685e-18 1 

-0.752786 -0.630406 2.47291 
0.349921 0.39461 -0.559034 
-7.33456e-18 2.16212e-17 1 

-0.261074 -0.0394676 -0.466421 
0.080082 0.0201516 0.434407 
2.90468e-18 -4.62108e-18 1 

-0.120248 0.409172 0.0937305 
0.00190124 -0.0526131 -0.251235 
-5.45736e-18 -2.13465e-17 1 

-0.0993542 -0.0238714 -0.156474 
-0.0157872 -0.0600381 -0.092374 
6.25947e-18 -7.9681e-18 1 

-0.101417 -0.0553893 -0.24075 
-0.0261057 -0.0491908 0.0116395 
3.5492e-18 -1.52109e-18 1 

-0.702469 -0.389175 1.12717 
0.315564 0.662569 -0.804064 
1.99782e-18 2.14977e-17 1 

-0.184991 -0.294402 -1.07008 
0.00956623 0.164748 1.29848 
-1.33717e-17 -5.39782e-18 1 

-0.137658 -0.125123 -0.236644 
-0.0184315 -0.053284 -0.128136 
8.22638e-18 1.38725e-17 1 

-0.363627 -0.0652591 -0.739033 
-0.0184784 -0.0471648 0.559441 
1.26015e-19 5.38713e-18 1 

-0.301377 0.0850718 -0.398481 
-0.040933 0.129727 -0.538455 
-5.32765e-20 -2.34417e-17 1 

-0.209463 0.0626709 -0.175612 
-0.0995508 0.0710328 0.321438 
5.44586e-18 2.24966e-17 1 

-0.677493 -0.443304 0.396188 
0.244099 0.234277 0.755479 
-5.93717e-18 6.31378e-18 1 

-0.336649 -0.0352537 0.407887 
-0.139148 0.281458 0.235296 
4.33289e-18 6.47514e-18 1 

-0.171861 -0.0210909 0.530507 
-0.0478699 -0.0675662 -0.49491 
1.056e-17 8.81344e-18 1 

-0.518025 0.465604 0.591602 
-0.208005 -0.12046 0.541975 
3.83372e-18 6.19853e-19 1 

-1.0517 -0.906747 1.34206 
0.689018 0.651321 -0.395083 
8.06371e-18 -4.46773e-18 1 

-0.105645 0.0269053 0.0519426 
-0.0535384 -0.0432766 0.123733 
-2.95564e-19 8.51707e-18 1 

-0.208938 0.084793 -0.588953 
-0.301674 0.0867487 -0.021049 
8.41856e-18 -3.91561e-19 1 

-0.297771 0.044212 -0.0448468 
-0.040194 0.174153 -0.499513 
-3.70115e-18 -1.41317e-17 1 

-0.117287 0.0137942 -0.499552 
-0.0296768 -0.0370978 -0.2321 
-4.66441e-18 -1.22034e-17 1 

-0.190127 0.0330772 0.37819 
-0.0384746 -0.0547037 -0.337775 
4.22676e-18 6.84018e-18 1 

0.273292 -0.85475 -0.416757 
0.762694 0.333494 0.147276 
-6.5221e-18 1.28832e-18 1 

-0.13846 0.083894 -0.698247 
-0.057302 -0.0275537 0.167823 
0 -2.57338e-18 1 

-3.29637 0.327377 -1.78096 
0.365469 0.522022 0.828565 
-1.29172e-17 -4.00074e-17 1 

-0.787816 0.122996 0.176913 
-0.141409 0.377232 -0.722211 
-1.24892e-17 -7.20283e-19 1 

-0.895603 -0.245301 1.25235 
-0.199306 0.354531 -0.161947 
1.08048e-17 1.26511e-17 1 

-0.264494 -0.214261 -1.74038 
-0.0133426 0.142604 0.501297 
-4.1059e-18 8.63266e-18 1 

-0.0663248 0.0409819 -0.110009 
-0.0112806 -0.0129221 0.211007 
-2.23412e-18 1.1325e-17 1 

-1.05951 0.445091 -0.170086 
-0.645425 0.676433 0.152381 
-1.89157e-19 6.62051e-18 1 

-0.645162 -0.906042 0.106407 
0.368768 0.522304 -0.356689 
2.34131e-17 -1.04968e-17 1 

-1.25479 0.325572 -0.394038 
-0.255581 0.350527 0.3587 
-7.75067e-18 -5.83635e-18 1 

-1.00922 4.10322 6.16312 
-0.0215996 0.924152 1.14114 
-1.09067e-17 -5.36504e-17 1 

-0.146318 0.0373572 0.104033 
-0.00745811 -0.0839051 -0.163677 
2.22469e-18 -5.0493e-18 1 

-0.877333 0.262086 0.0992242 
-0.258264 0.176314 -0.201373 
-1.42824e-17 -2.3976e-18 1 

-0.167067 -0.0299699 -0.63338 
0.0144568 -0.0257476 -1.05691 
3.41896e-18 6.41671e-19 1 

-0.182502 -0.141686 -0.0486974 
-0.0421335 -0.0245792 -0.238437 
-6.60349e-18 -9.1409e-18 1 

-0.346515 0.254085 -0.359683 
-0.0593101 0.0820796 0.0567026 
3.45512e-18 4.00066e-18 1 

0.182361 -0.842637 -2.86078 
0.729831 0.344629 -0.826057 
8.88903e-18 1.47202e-17 1 

-0.13481 -0.0526852 0.0101552 
0.00783949 -0.0548261 -0.0148905 
1.91237e-17 3.74615e-18 1 

-0.130343 0.000843043 0.66216 
0.00125789 0.0121339 -0.0523622 
-4.83373e-18 -1.00983e-17 1 

-0.26946 0.30021 -0.0628132 
0.00595 -0.0459049 0.0868641 
8.85979e-18 9.61061e-18 1 

-0.15423 0.00962263 0.106863 
-0.034429 -0.0535404 -0.405137 
-2.00925e-18 -6.57136e-18 1 

0.0263981 -0.913115 -0.580238 
0.309834 0.198886 -0.501092 
6.89976e-20 3.38088e-18 1 

0.14687 -0.71009 0.14143 
0.61797 0.197371 -0.453988 
1.12777e-18 4.29964e-18 1 

-0.162527 -0.00352407 0.133754 
-0.0177075 -0.0325637 0.353586 
6.99689e-19 -2.15154e-18 1 

-0.142435 -0.0236687 -0.587484 
0.0141689 -0.0180948 -0.896979 
-1.93947e-18 3.73587e-19 1 

-0.36351 0.29167 -1.40985 
-0.0817821 0.138622 -0.256677 
-4.96696e-18 1.73448e-17 1 

-0.182883 -0.0160381 -0.327284 
0.00961384 -0.000595716 0.275497 
1.33354e-17 1.11922e-17 1 

-0.163954 0.0869148 0.400401 
0.0447231 -0.0400746 0.180294 
2.01277e-17 3.97299e-18 1 

-0.173663 -0.00310904 0.0904084 
-0.214441 -0.0834631 -0.107745 
-1.33712e-17 -1.00252e-17 1 

-0.271648 -0.140682 0.239309 
0.0736421 -0.0792145 -0.173828 
-1.20888e-18 -6.8503e-18 1 

-0.313302 -0.605508 -0.980516 
0.483538 0.206963 -0.517949 
5.23945e-18 9.94152e-18 1 

-0.211464 0.0408778 -0.322701 
-0.0186996 0.039283 0.484681 
-8.93302e-19 -9.91666e-18 1 

-0.156936 0.0680353 0.103822 
0.072566 -0.109712 -0.070942 
-2.96847e-18 1.02374e-17 1 

-0.303258 -0.0620247 0.236903 
0.11431 0.0775385 -0.167191 
-2.45799e-17 3.27732e-19 1 

-0.169842 0.0142491 2.44719 
0.0128875 -0.0440324 0.834139 
-2.96654e-18 -2.25281e-17 1 

-0.236475 0.0211349 0.0731622 
0.0678109 -0.00300606 0.103917 
-2.3321e-18 -6.33e-18 1 

-0.123254 0.0602944 -0.0475548 
-0.0877554 -0.0775208 -0.0493159 
-9.65833e-18 7.1378e-19 1 

-0.644321 0.353474 -0.554044 
-0.120662 0.320798 -1.11791 
-1.40782e-17 -1.22242e-18 1 

-0.150247 -0.047552 -0.281748 
-0.0109148 0.0226007 -0.0919763 
-8.13647e-18 1.07401e-17 1 

-0.120298 -0.056243 -1.48364 
0.0358207 0.0539414 -0.73347 
-7.45617e-18 -6.87776e-18 1 

-0.156006 0.0225348 0.1986 
-0.0598326 0.0182902 -0.0597103 
-8.11773e-18 6.56555e-18 1 

-0.151705 0.0635757 -0.110682 
0.005037 -0.0451196 -0.0569012 
1.23878e-17 -5.49598e-18 1 

-0.592757 -0.459043 -0.854534 
0.209326 0.301291 -0.14481 
3.80124e-18 -9.00293e-18 1 

-0.145081 -0.0855106 0.388559 
0.162976 0.0388026 0.147933 
5.52359e-18 1.1129e-17 1 

-0.919692 0.020028 0.236917 
0.545323 0.135191 0.690836 
4.86932e-18 1.67343e-17 1 

-0.324079 0.27428 -0.831358 
0.611748 -0.0632886 0.408876 
2.08735e-18 7.65798e-18 1 

-0.0919632 -0.0120896 0.00155055 
-0.0242183 0.00776622 -0.0846768 
-1.13645e-17 1.34229e-17 1 

-0.150123 -0.122498 0.0765516 
0.14364 -0.0681375 0.133477 
1.30492e-17 1.57678e-18 1 

-0.143986 0.00218405 1.96781 
-0.023473 -0.0324379 0.442264 
-1.30156e-18 7.64917e-18 1 

-0.120412 -0.0249359 -0.0796882 
-0.04069 -0.119637 -0.0207987 
2.44136e-18 5.50079e-18 1 

-0.14534 0.0212619 0.149181 
-0.036778 -0.00667954 -0.0311309 
1.32402e-17 -1.2717e-17 1 

-0.158623 0.0401921 -0.583811 
0.0119849 0.000700314 0.161733 
1.02438e-17 -1.25908e-17 1 

-0.219303 -0.117797 -0.128655 
0.0762724 0.0888965 -0.34565 
3.94649e-18 -2.31063e-18 1 

-0.137604 0.045643 -0.142976 
0.0368866 -0.0276759 -0.24046 
-7.04282e-18 1.12892e-17 1 

-2.1062 0.182729 -0.0418627 
-0.241474 0.572363 0.254839 
5.05309e-18 -2.5278e-18 1 

-0.194743 0.273432 0.0953659 
-0.248027 0.07656 0.105454 
-5.00885e-18 2.20573e-18 1 

-0.199194 -0.0406938 0.209571 
-0.05442 -0.00013949 -1.35938 
1.02615e-18 -2.39679e-17 1 

-1.90767 3.81956 15.4755 
-0.466622 2.51608 8.3959 
-6.10318e-18 8.46902e-18 1 

-0.153351 0.050706 -0.212777 
-0.0691241 0.00632462 -0.254903 
1.00056e-17 -3.26361e-18 1 

-0.132387 0.0362663 -0.211116 
0.012821 -0.00653457 -0.0197838 
6.8283e-18 -2.31468e-18 1 

-0.1667 0.429267 -0.63234 
-0.229382 0.10244 0.281551 
3.34688e-18 -1.46186e-18 1 

-0.129392 -0.000528569 0.0177194 
-0.0156642 -0.0473731 0.0718303 
1.20451e-17 -1.24642e-17 1 

-0.153332 0.320914 0.312003 
-0.356268 0.014097 0.0743127 
-3.6971e-18 3.98149e-18 1 

-0.0890675 -0.0750566 0.0113897 
0.0469316 -0.0790977 -0.028291 
-3.92659e-18 -1.30886e-18 1 

-0.246009 -0.0820426 -0.838988 
0.00399803 -0.00408696 0.390678 
1.83173e-17 -6.69113e-18 1 

-0.074932 -0.144177 0.00890255 
0.0794088 -0.0502344 0.0938522 
7.8562e-18 -1.29191e-17 1 

-0.112592 -0.0180965 0.102355 
-0.035329 -0.0472584 -0.107918 
5.33676e-18 5.56657e-18 1 

-0.0824915 -0.0797855 -0.597555 
0.0425504 -0.0288402 -0.4689 
-8.14083e-18 1.88568e-17 1 

-0.0943212 0.0201964 -0.194307 
-0.0394362 -0.0110672 -0.130093 
-3.88178e-18 2.18247e-18 1 

0.0746403 -0.820738 0.656499 
0.383088 0.268494 -0.596 
-1.03118e-18 2.4929e-18 1 

-1.06636 -0.294554 0.165499 
0.031956 0.278814 -0.451054 
1.37935e-17 3.17469e-18 1 

-0.130052 -0.00539716 1.66192 
-0.072645 -0.0970334 -0.592607 
8.45905e-18 4.55658e-18 1 

-0.140804 0.0565061 -0.32402 
-0.0671749 -0.0632675 -0.154514 
-6.59016e-18 -8.74628e-18 1 

-0.178076 -0.0048979 0.284558 
-0.09469 -0.0151279 0.10858 
5.27303e-18 9.32785e-18 1 

-0.170464 -0.057451 0.290008 
-0.0381931 0.0284941 -0.0544898 
7.50967e-20 2.36304e-18 1 

-0.201804 0.012904 0.0537277 
0.00973045 -0.00887735 0.18271 
-6.94143e-18 -1.28388e-17 1 

-0.169352 -0.0989211 -0.408649 
0.0507794 -0.0354879 0.930349 
5.43717e-18 5.66238e-18 1 

-0.127248 -0.0182006 -0.100337 
0.00853561 -0.00784725 0.392942 
2.86709e-18 1.29189e-18 1 

-0.123867 -0.0331561 0.119313 
0.0241353 -0.0494208 0.0863984 
1.1821e-17 -2.6057e-18 1 

-0.582687 -0.476487 19.6815 
0.0837336 0.398373 4.15508 
-4.07487e-18 -1.72719e-17 1 

-0.444315 -0.0121871 0.53975 
0.00705458 0.136879 10.2481 
-6.88716e-18 -1.18964e-18 1 

-0.136757 -0.0647652 0.150371 
0.0340828 -0.0142021 -0.294251 
-2.98887e-18 7.42064e-18 1 

-1.3576 -0.366973 25.76 
0.0473269 0.369382 92.313 
-4.72411e-18 2.86744e-18 1 

-5.5543 0.506043 6.59862 
-1.27715 1.11252 3.89747 
7.93128e-18 9.83635e-18 1 

-0.499324 -0.256871 2.9496 
-0.116799 0.191257 -0.94326 
9.93644e-18 -4.07587e-18 1 

-0.786456 4.18119 66.9459 
-0.111285 0.335824 2.26535 
-4.98112e-18 2.84477e-17 1 

-0.352572 -0.340097 0.675622 
0.233265 0.0688308 0.173875 
1.53143e-17 -3.86763e-18 1 

-1.13535 -1.25433 -1.24866 
0.591432 1.20414 2.1484 
-1.02611e-17 -4.94744e-19 1 

-0.46972 -0.290073 0.0647244 
-0.168238 0.117736 -0.183904 
-2.38817e-17 -1.42882e-17 1 

-1.31867 0.705825 -0.706221 
-0.201835 0.385897 0.259849 
-1.92039e-17 -2.21911e-17 1 

-0.15461 -0.0124185 -0.041249 
0.0431286 -0.0305955 0.0289438 
-6.0595e-19 -2.66394e-18 1 

-0.152726 0.0034624 -0.00712245 
-0.0258062 0.0179896 0.0414322 
-1.30831e-17 -7.42597e-18 1 

-0.131476 -0.0496461 0.122806 
0.0176296 -0.0734126 0.0506196 
2.97419e-18 1.37556e-17 1 

-0.187251 -0.0195088 -0.0584379 
0.00772679 0.00228784 -0.270594 
4.1657e-18 4.46781e-18 1 

-0.123402 -0.00965432 -0.0424523 
-0.00582797 -0.045488 -0.0155405 
9.77074e-19 -1.02732e-17 1 

-0.0932377 0.0159032 -0.180974 
0.0198762 -0.0178538 -0.0569439 
-8.0779e-18 -5.38084e-19 1 

-0.151757 -0.0210818 0.0700252 
-0.00831474 -0.049527 -0.21306 
3.18538e-18 7.72924e-19 1 

-0.333998 -0.133926 -1.91487 
0.0518504 0.0382779 -0.113231 
7.62295e-18 9.86144e-18 1 

-0.22104 0.232137 0.671609 
-0.0549153 0.0951541 -0.400203 
-7.51589e-18 5.54191e-18 1 

-0.159129 -0.103083 -0.151404 
0.00735574 -0.0767246 0.458222 
-1.65059e-18 -8.31188e-18 1 

0.0728731 -0.766159 0.787866 
0.706355 0.352252 0.133207 
-6.31432e-18 1.97323e-19 1 

-0.142765 -0.00929449 -0.0207277 
-0.0127348 -0.0571563 -0.134549 
-9.97063e-18 1.6434e-17 1 

-0.343113 -0.0771565 1.19195 
-0.0850643 0.156874 0.837045 
7.53781e-18 -1.07739e-17 1 

-0.186183 0.125797 0.17234 
-0.146566 -0.125504 -0.1027 
-1.81768e-18 7.27071e-18 1 

-0.185528 0.0270681 -0.20225 
0.0525677 0.0288708 -0.142601 
-4.83035e-18 -1.60117e-17 1 

-0.481814 0.259696 0.791998 
-0.379247 0.198544 0.0875645 
-3.78282e-19 -8.74251e-18 1 

-0.212767 -0.328646 -0.128772 
0.0493286 0.0789808 0.0916817 
-9.57536e-18 -2.67257e-18 1 

-0.11276 0.0230207 -0.923433 
0.0189138 -0.0603766 0.403406 
2.29128e-18 6.56541e-18 1 

-0.236904 -0.0147373 0.00253718 
0.0935397 0.0480024 -0.169844 
1.52262e-17 -3.35236e-18 1 

-0.174556 -0.014606 -0.095759 
-0.0595173 -0.0446858 0.275872 
2.4125e-18 -7.93444e-18 1 

-0.171693 -0.015551 0.308144 
-0.0407235 0.0131045 -0.142898 
-3.15274e-18 -1.07618e-17 1 

-0.859899 -1.74227 2.20887 
0.763591 0.910908 -1.09203 
7.00731e-18 2.0438e-17 1 

-0.137127 0.00307224 -0.0352939 
-0.0164697 -0.0443256 -0.292911 
4.42802e-18 1.80755e-18 1 

-0.423028 -0.118244 1.21661 
-0.0645376 0.00598639 -0.687593 
-1.10475e-17 3.91457e-18 1 

-0.64169 -0.332674 -0.623543 
0.205838 0.37158 0.423668 
-5.43379e-18 -1.50594e-17 1 

-0.177149 -0.07774 -0.11182 
0.130989 3.86989e-05 0.0484833 
7.09845e-18 4.05626e-18 1 

-0.257236 -0.104582 -0.105482 
0.0166995 -0.045903 -0.0973416 
1.14128e-17 2.94525e-18 1 

-0.412458 -0.0663893 -1.26178 
-0.0928199 0.186983 0.361138 
3.10654e-18 -2.53235e-18 1 

-0.673749 -0.711399 -0.940057 
0.64599 0.607024 -0.699861 
-1.40137e-18 0 1 

-0.376268 -0.269094 -0.747528 
0.0319364 0.320177 -1.58087 
1.41103e-18 -2.68001e-18 1 

-0.190463 0.0479142 -0.114659 
0.000330974 -0.0452746 -0.0749393 
-9.58171e-18 3.99238e-18 1 

-0.306947 -0.127339 -0.179797 
-0.017703 0.0874877 -0.512923 
2.06897e-17 -4.43456e-17 1 

-0.194635 0.048998 0.0258582 
-0.116372 -0.0250514 0.190223 
-9.00609e-18 -1.40389e-17 1 

-0.282387 -0.109307 0.05121 
-0.100718 0.151891 -0.0171031 
-3.2366e-18 6.24499e-18 1 

-0.59201 -0.112203 -0.804986 
-0.174244 0.264789 -0.941251 
-6.44801e-18 -2.02074e-19 1 

-0.16293 0.0208093 0.461118 
-0.0295899 -0.00283244 0.0834404 
5.88355e-20 -1.07585e-18 1 

-0.878237 -0.2741 -0.404412 
0.00871234 0.33972 0.54238 
1.36662e-17 1.2617e-17 1 

-1.1164 -2.6421 -6.30427 
0.234757 0.592685 -2.94252 
4.35056e-18 1.37386e-18 1 

-0.25613 0.0570525 0.050837 
0.148363 0.022022 -0.115592 
-3.80639e-18 6.19898e-18 1 

-0.207383 -0.0329209 -0.0248982 
0.0187682 -0.00373515 -0.00202931 
-3.08851e-18 6.06672e-19 1 

-0.117314 -0.0222465 0.0917944 
-0.00419669 -0.0290401 0.701362 
1.23287e-18 3.90409e-19 1 

-0.10393 0.0329616 -0.180437 
0.0158396 -0.0178875 0.291717 
4.03136e-18 5.51987e-18 1 

0.16428 -0.845692 -0.1065 
0.746403 0.343636 0.268208 
8.32611e-18 1.81767e-18 1 

-0.116729 -0.068447 -4.11854 
-0.256453 0.0810553 -2.50945 
-4.25652e-18 4.8646e-18 1 

-0.131572 0.0469678 -0.070667 
-0.0302441 -0.0162716 0.180219 
-1.33388e-17 -6.15934e-18 1 

-0.210162 -0.0743549 -0.498114 
0.0484284 -0.00557294 -1.0295 
9.16206e-18 -9.03158e-18 1 

-0.132723 0.0300343 -0.0998792 
-0.0245812 0.0160366 -0.0386918 
1.1728e-18 1.29537e-17 1 

-0.131859 0.0064324 -1.76709 
-0.0365595 -0.0147079 -2.39495 
-4.0034e-18 1.77702e-18 1 

-0.219911 -0.0264628 0.309571 
0.00354463 0.00977666 0.273301 
7.40241e-19 1.84535e-18 1 

-0.33314 0.0328269 -0.762554 
0.0154455 0.139667 -0.672223 
2.29759e-18 -9.80733e-18 1 

-0.154406 -0.0900026 0.0356273 
0.00838483 -0.0818181 -0.291926 
-8.34253e-20 -4.10709e-19 1 

-0.306067 -0.0854846 0.858926 
0.297621 0.0709005 0.516982 
-7.62232e-18 4.45547e-18 1 

-0.310407 -0.0714101 0.264561 
0.0192647 0.148231 -1.98398 
1.99051e-18 9.82555e-18 1 

-0.152338 -0.0451325 -0.0313281 
0.00135914 -0.0127011 -0.0429244 
-2.56952e-18 6.57622e-18 1 

-0.407249 0.14414 0.213323 
5.82451e-05 0.0587558 0.595917 
-2.09032e-18 1.82848e-17 1 

-0.506863 -0.518256 0.25703 
0.347732 0.00346332 -0.416565 
4.52824e-19 -8.30177e-18 1 

-0.121038 -0.0105917 0.222005 