# vtk DataFile Version 3.0
Output file generated by Yade's KinematicLocalisationAnalyser
ASCII
DATASET UNSTRUCTURED_GRID

POINTS 13483 float
658.553 27.1158 0.400118
865.877 44.0167 -0.496247
129.268 5.99953 -0.447344
914.671 4.45251 0.351401
536.167 7.55853 -0.304827
337.542 34.389 0.234201
168.291 6.76217 0.412573
614.694 9.97542 0.144891
533.027 22.5015 0.144627
799.869 11.816 -0.362712
226.06 8.81087 -0.0918492
275.687 6.27887 -0.267454
712.979 28.1021 -0.146474
689.147 13.7878 0.0756056
147.39 16.8326 0.421784
237.79 34.1642 0.398644
233.688 12.7664 -0.272555
309.674 9.42574 0.387861
365.401 32.1097 0.179745
564.224 8.50863 0.347198
440.721 36.0378 0.109405
640.217 42.9101 0.261007
910.771 29.0758 -0.50646
770.481 40.57 -0.451268
492.442 16.0372 0.28999
258.204 43.6713 -0.122854
527.762 26.8933 -0.480337
633.955 18.8453 0.236422
48.5114 15.323 -0.458316
794.793 30.4186 0.309441
517.834 4.90303 0.315264
17.9867 22.8729 -0.279654
880.85 40.9573 -0.250821
531.747 2.46306 0.487886
83.9843 43.4112 0.100674
560.952 29.5705 0.345894
571.047 16.4232 -0.408983
368.989 22.2335 -0.176977
574.411 25.0079 -0.338311
376.257 32.6803 0.410757
258.715 14.5036 -0.292195
465.87 34.9237 0.0657274
744.33 6.87358 0.109297
207.289 6.1673 0.376199
59.6212 6.85546 -0.12763
73.616 8.81807 -0.297175
763.045 8.83651 -0.487873
25.3132 11.4474 -0.287946
662.859 43.0381 0.352897
745.81 22.2869 0.350144
185.701 31.8603 0.283668
860.001 32.2511 0.141006
37.6115 27.6477 0.109855
575.161 2.942 0.323642
153 7.45956 -0.458069
642.905 32.837 0.399366
542.226 25.768 -0.142816
188.021 0.928811 -0.258892
35.1847 2.41558 -0.284661
374.2 17.4925 0.271604
675.124 43.7678 -0.139122
496.418 32.9984 -0.183199
428.588 1.02837 0.188211
775.541 7.45364 0.346361
28.3016 42.2967 0.23487
275.23 30 0.294226
799.962 7.25818 0.178833
736.878 42.4605 0.353007
448.287 8.56104 -0.475899
615.567 3.48525 -0.344984
835.454 27.9789 -0.400841
140.774 7.5595 0.278511
535.977 24.861 0.134349
513.244 14.7586 -0.13475
316.377 16.5107 -0.300937
22.2736 13.3012 0.251804
887.508 31.3456 0.359756
357.288 38.1273 -0.280631
743.243 19.0652 -0.342999
762.709 12.5521 -0.240235
898.019 10.8505 -0.209748
500.043 33.9714 -0.163967
99.453 37.6297 -0.266487
756.34 32.6469 0.20643
709.428 36.4906 0.101905
918.657 35.5216 0.13259
890.434 0.817093 -0.4708
312.867 28.4298 0.420455
677.335 6.15416 0.0837982
26.1565 5.13735 -0.4593
143.106 37.2898 -0.151171
552.585 14.1995 0.197152
877.605 22.9584 -0.527184
210.732 28.2497 -0.223706
47.7729 33.6929 0.275416
530.603 1.15941 0.114705
253.836 8.8415 -0.35355
838.618 37.0135 0.278506
864.226 24.5143 0.291777
388.79 20.5392 -0.252955
176.948 26.47 -0.455956
594.53 37.2728 0.41742
409.032 15.1522 -0.441397
445.144 28.9798 -0.102374
407.181 4.45797 0.40669
592.371 10.8008 -0.0915255
919.539 11.1257 0.211301
86.6413 38.4833 -0.393812
361.15 4.7708 -0.173799
607.775 9.34926 -0.332028
387.784 43.0637 0.446466
27.9117 24.3369 -0.450954
32.828 5.70498 -0.322802
616.655 31.3662 -0.402944
545.439 23.4776 0.149568
28.4584 36.3963 -0.41544
100.433 30.1008 0.218319
350.332 15.6586 -0.299855
653.493 18.4048 -0.143856
512.967 37.1681 0.306753
820.263 7.65719 -0.381432
810.617 6.0611 -0.189968
417.29 36.547 0.0958823
695.987 24.3831 0.115806
257.239 16.9186 0.496841
356.086 3.68105 0.462404
112.067 30.9003 0.338357
125.788 23.6422 0.262032
589.505 37.8299 0.0781589
330.264 18.6463 0.445593
789.294 33.3881 0.112052
741.598 41.7922 0.120253
519.499 20.1766 -0.397414
868.765 8.73457 0.391466
463.234 22.8968 -0.226648
298.795 23.8805 0.314548
744.101 29.2834 -0.195965
301.181 27.8934 -0.400628
627.161 11.4435 -0.190774
358.51 34.8745 0.188631
546.518 11.2866 0.446324
396.411 30.8822 0.0950593
465.624 16.4054 -0.105007
343.964 41.1006 0.354155
206.621 29.1985 0.126297
870.264 41.977 -0.143433
915.143 11.7545 -0.312864
6.44457 11.9785 -0.470375
469.917 22.0478 -0.405247
41.4478 22.0875 0.0739877
406.818 30.7475 -0.384821
427.219 24.5053 0.254959
81.1184 11.8266 0.444769
56.1416 32.5677 0.425512
244.818 13.2037 0.379861
676.607 37.3564 0.408281
630.007 19.8514 -0.435247
81.2406 20.7439 0.430985
773.338 44.1319 -0.405322
853.724 2.42338 0.417658
728.872 38.6316 -0.458828
770.397 2.35244 -0.360306
599.036 26.0239 0.420284
641.687 43.7327 -0.43428
556.689 17.6851 -0.391562
911.903 3.11628 0.240369
242.524 24.4411 0.121047
138.582 34.5916 0.196174
268.168 6.36297 0.35929
102.713 4.0165 0.248037
69.7684 9.87736 0.196466
299.059 35.1869 0.305701
18.1832 24.6272 0.369593
605.359 18.9441 -0.390335
662.655 37.9564 0.221762
502.129 20.82 -0.365839
900.698 35.7525 0.475917
441.086 8.46551 0.0835373
472.91 35.2922 0.313099
584.13 3.42262 -0.183807
24.9344 23.5815 -0.385099
630.031 4.27674 -0.365489
594.608 4.34135 -0.284643
224.156 11.2824 0.470532
461.459 16.2549 -0.190277
337.884 6.28858 0.321592
420.951 18.8448 -0.326431
824.705 40.1409 0.140964
208.936 25.3557 -0.414336
881.842 6.72403 -0.304978
823.667 36.441 -0.317173
416.099 10.0315 -0.186789
796.685 2.36816 0.399715
663.058 24.4061 -0.402877
828.924 17.817 0.429736
467.828 41.7635 -0.269559
540.289 12.2515 0.33962
505.758 43.3911 -0.219235
484.111 8.5605 0.132814
732.525 37.8594 -0.285375
730.025 34.2139 0.299809
209.195 38.2904 -0.334067
895.807 10.7593 -0.140075
644.056 44.0002 0.241706
12.2663 16.6847 -0.164155
442.297 24.9711 0.351765
203.756 22.7209 0.393136
101.173 38.5461 -0.202491
875.419 20.4558 -0.460302
725.355 42.6319 0.225349
346.721 25.0235 0.355794
580.792 10.0891 0.321996
89.4258 43.3619 0.161134
269.153 25.6133 -0.481103
608.245 22.8871 0.364882
529.533 18.1672 0.404212
285.693 0.890326 -0.342603
604.437 38.9098 -0.35258
582.502 40.0555 -0.443861
524.645 32.2478 0.373222
543.533 0.773186 -0.486781
782.357 18.243 0.353628
195.604 11.8059 -0.17429
545.159 35.4201 0.426994
617.725 38.4033 0.117489
79.168 0.947036 0.273226
273.801 4.69172 0.169241
914.394 13.653 0.20224
898.396 12.8263 -0.386026
921.868 15.413 -0.547789
329.959 8.4698 -0.226695
836.185 21.598 0.405632
442.832 40.6602 -0.321314
488.452 0.812784 -0.398755
716.524 33.9468 0.515313
29.694 29.9771 0.300705
359.454 40.4085 0.467794
274.694 2.8328 0.309667
883.606 37.6663 -0.194897
793.745 45.5465 0.219812
312.549 10.777 0.191385
737.006 27.6191 -0.0942449
609.49 2.65053 0.268513
592.284 6.39101 0.413736
105.387 17.8422 -0.476989
329.809 1.03667 -0.22209
373.632 2.25928 -0.365937
15.2094 7.58373 -0.321796
4.7492 30.2081 -0.242362
176.535 18.6669 0.339633
74.1863 40.9244 0.211741
72.742 28.162 0.330925
460.99 14.4441 -0.393158
399.528 34.3766 0.470963
857.979 34.1092 0.146976
21.2686 3.95264 0.283011
76.8269 6.80801 0.129427
688.016 36.6846 -0.154363
320.861 0.932671 0.317843
397.166 15.838 -0.0936284
256.657 4.61939 -0.381614
721.483 20.5931 -0.17884
491.81 8.26561 0.405604
839.349 19.5959 -0.333717
695.234 27.8219 0.338003
742.135 17.2219 -0.0768156
457.332 26.0848 0.462169
111.11 43.795 0.310368
593.481 41.1032 0.0689433
825.902 13.1894 -0.206278
259.01 29.9119 -0.251493
35.141 16.7009 -0.17183
366.251 13.6252 0.48035
117.49 39.6564 -0.458377
291.433 41.5589 -0.18602
463.187 1.08963 -0.24094
884.559 27.237 0.368745
762.382 0.827606 0.477664
361.773 3.09041 0.475861
326.688 26.1285 -0.144883
504.552 40.248 0.20565
88.8303 8.0413 -0.446321
215.99 44.3536 0.377608
866.98 26.8467 0.373299
540.078 37.9659 -0.0751889
218.334 40.793 -0.253486
175.564 41.4892 -0.384805
921.821 31.9693 -0.48882
917.813 11.1645 -0.495553
666.228 3.62704 -0.508726
207.51 24.141 -0.0963648
601.053 26.9308 0.111388
603.104 26.6714 -0.262633
445.859 5.57734 -0.134881
525.325 0.931979 -0.277339
855.782 36.2419 -0.488438
92.7714 30.3392 0.225661
727.271 17.6944 -0.423676
299.103 15.3516 -0.333589
10.7621 2.31389 0.338064
137.084 36.1296 0.183571
73.1562 22.8019 0.444723
781.882 35.1094 -0.323422
890.169 42.0594 0.176336
202.739 27.8217 -0.171788
909.703 11.6265 -0.288094
49.1193 35.7462 -0.252604
99.3358 28.4785 -0.136946
699.657 12.7901 0.363833
450.571 18.0518 -0.469274
567.647 16.3672 0.118282
259.598 27.9469 -0.178208
684.971 4.44435 -0.418539
922.477 10.6158 0.348055
32.5195 31.1063 0.262046
294.496 7.68925 0.184866
242.325 14.8171 0.235841
1.10938 34.7776 -0.147282
245.802 14.3082 -0.356594
231.105 10.9275 -0.108387
234.111 25.8686 -0.289914
145.431 27.3281 0.127098
599.317 14.8286 -0.334925
182.65 13.9046 -0.332969
877.965 39.3082 0.252577
190.233 3.7795 0.481769
51.7136 36.7627 -0.35526
831.809 46.0354 -0.426471
306.463 30.7519 -0.376667
752.494 22.7519 -0.417673
894.796 26.8749 -0.603896
327.959 9.08854 -0.111621
821.608 28.342 -0.335437
358.488 2.62642 -0.358513
453.608 23.5495 0.352979
748.872 15.7892 0.424617
115.422 11.8404 -0.399835
527.058 3.95845 -0.459944
843.22 17.2639 -0.207006
96.5548 7.57945 -0.183816
307.194 14.491 0.199962
461.801 11.6243 -0.193596
910.125 2.78393 0.414843
433.84 1.87486 -0.482428
193.498 38.1451 -0.274644
828.737 10.76 -0.285629
140.441 35.6071 -0.187033
286.937 30.9045 -0.380366
436.738 21.3667 0.210666
629.734 13.2187 -0.317482
422.304 9.70458 -0.443901
498.179 27.1817 -0.319818
866.95 43.5009 0.401796
51.9915 10.8249 -0.105902
326.451 37.8971 -0.253213
414.079 26.5214 0.337464
446.531 20.6839 0.257316
570.308 43.4502 0.356515
848.223 34.3649 0.232542
736.057 33.4231 -0.35819
246.458 33.5577 -0.383316
15.283 30.6467 0.161898
728.281 35.0905 -0.139492
556.386 40.3597 0.433391
250.634 38.4384 0.0939867
760.354 29.8376 -0.121903
165.43 9.07125 0.196225
400.085 20.8219 0.303788
506.362 41.3129 0.100084
451.744 19.3655 0.194605
862.486 45.9744 -0.290968
464.714 3.40215 0.41884
54.4627 24.6159 -0.294434
513.289 30.9272 0.352572
474.58 40.9767 0.35343
880.673 32.8369 -0.266795
818.808 27.3814 0.234886
592.626 18.2104 -0.180846
871.793 34.3558 -0.424503
319.93 2.04846 -0.426187
412.794 28.8388 0.453526
31.7314 38.1125 -0.302505
824.855 29.2123 -0.136116
671.886 19.3053 0.500214
505.659 0.776764 -0.484057
138.194 4.45114 0.28217
465.803 39.3019 -0.100191
13.3083 0.9051 -0.316934
908.99 5.45662 0.212639
404.056 38.507 -0.394283
[...]
POINT_DATA 13483
TENSORS Strain_matrix float
-0.0650734 -0.0494118 0.196395 
0.011391 -0.033305 -0.179308 
-1.2506e-18 -1.23235e-18 1 

-0.161263 -0.215805 16.4506 
0.0401743 0.0574894 -3.66157 
-1.59708e-18 1.13478e-17 1 

-0.0438281 0.00722902 0.199013 
-0.00720983 -0.0771186 -0.703825 
4.55802e-18 -9.90182e-18 1 

-0.256584 0.0510869 0.0600513 
-0.0821573 0.0300963 0.160526 
-8.87128e-18 3.05165e-18 1 

-0.0858365 -0.0267731 0.0675618 
0.00591989 -0.0680343 0.0359467 
-1.76734e-18 3.00167e-18 1 

-0.0426795 -0.0435037 -0.0449375 
-0.0123992 -0.0457338 -0.0515462 
1.62193e-17 1.27927e-18 1 

-0.0319713 -0.0180998 0.00661082 
-0.00175807 -0.101526 0.00219649 
-1.81387e-18 8.86783e-18 1 

-0.0632138 0.0142777 -0.0941425 
0.0182685 -0.0705722 -0.0312418 
-1.28384e-18 -5.22705e-18 1 

-0.0635763 0.0196415 -0.101947 
0.0190548 -0.0263724 -0.0910541 
-7.81015e-19 -5.4671e-18 1 

-0.137419 0.0055375 0.103105 
0.0338291 -0.0706811 -0.329131 
1.41803e-17 -3.95533e-18 1 

-0.0504157 0.0339003 -0.143994 
-0.0236306 -0.0741727 -0.0236732 
1.15229e-18 -4.48977e-18 1 

-0.0520919 -0.0415059 0.129297 
-0.0631559 -0.0906507 0.0688489 
-1.27522e-17 -2.5057e-18 1 

-0.110472 0.0110056 -0.134262 
0.0198225 -0.0151806 0.00579615 
-5.47587e-18 7.53186e-18 1 

-0.118668 -0.0277636 -0.260305 
0.0136006 -0.0454589 0.178879 
1.92911e-17 7.53474e-18 1 

-0.0680301 -0.00866663 0.112604 
0.0166444 -0.0617594 0.69166 
3.56012e-18 -8.48368e-18 1 

-0.0371112 -0.0199036 0.29319 
-0.0219747 -0.0310898 -0.0866213 
5.12874e-18 -3.00847e-18 1 

-0.0324696 -0.0332387 0.135949 
0.00391592 -0.120872 -0.0217577 
9.30665e-18 1.51328e-18 1 

-0.0885775 0.00108539 0.0789493 
0.0169017 -0.0864015 0.0101399 
3.253e-18 -1.10914e-17 1 

-0.0519762 -0.07323 -0.117151 
-0.0255709 -0.0212369 0.232103 
5.18395e-18 1.14209e-17 1 

-0.0661007 0.0361607 0.194441 
-0.0618454 -0.0934581 0.0514813 
7.98465e-18 1.07268e-17 1 

-0.047084 -0.00394033 0.0486555 
0.0575046 -0.0298389 0.0611931 
2.90386e-18 -2.58121e-18 1 

-0.132995 0.0254385 0.316486 
0.0418727 0.035256 -0.273394 
-1.69215e-18 -9.69555e-18 1 

-0.212811 0.011387 0.140591 
-0.0264847 0.00662276 -0.504816 
-2.80762e-18 1.08119e-18 1 

-0.0991534 -0.00823869 -0.0747567 
-0.0054038 -0.00785982 -0.658076 
9.44609e-19 1.11362e-18 1 

-0.0343772 -0.0286133 -0.15387 
0.0719681 -0.055705 -0.0382921 
4.92523e-18 -4.48044e-18 1 

-0.0149791 0.0346564 0.144181 
-0.0845255 -0.0252723 0.0435263 
1.49652e-18 6.31866e-18 1 

-0.0654116 -0.0104897 0.158254 
0.000871146 -0.0471916 -2.11362 
2.596e-18 7.09033e-18 1 

-0.0947658 0.00943579 0.0558853 
-0.00511846 -0.0256221 -0.0380903 
-8.50077e-18 5.02929e-18 1 

-0.0463906 0.00504055 0.439757 
0.0496057 -0.0824515 -0.699642 
-1.35923e-19 4.75116e-18 1 

-0.143743 -0.00609398 -0.115201 
0.0239978 0.0251159 -0.203607 
-3.74719e-18 -1.75501e-17 1 

-0.0568414 -0.0227707 -0.260659 
0.00775735 -0.149503 0.402988 
6.30226e-18 -1.5524e-18 1 

-0.0751497 0.00598385 0.00648673 
0.0468524 -0.0730321 -0.0410919 
-1.10118e-17 -3.40514e-18 1 

-0.15181 0.0147403 0.761129 
0.0349214 0.0425106 0.859737 
-5.55159e-18 9.04473e-19 1 

-0.0811129 0.0204089 -1.42426 
-0.00888371 0.0175721 -1.39208 
-4.18667e-20 -3.48541e-18 1 

-0.0574382 0.0300673 -0.034006 
-0.0672486 -0.0864472 0.158552 
-1.43753e-19 4.3126e-18 1 

-0.0805647 -0.0289248 -0.160581 
0.0285666 -0.0114021 0.187572 
-3.29252e-18 4.21442e-18 1 

-0.0633459 -0.000574213 0.156333 
0.00575908 -0.0544853 -0.512638 
1.12483e-17 -4.52285e-18 1 

0.0206663 -0.0131504 0.0560087 
-0.0242554 -0.161004 -0.0244971 
-1.02201e-18 -1.0302e-17 1 

-0.0579397 -0.0289553 -0.131882 
0.0888489 -0.0523273 0.00621734 
-1.55449e-18 1.88423e-18 1 

-0.0423491 -0.0201953 0.247387 
0.0158211 -0.0302054 0.280431 
2.7133e-18 7.06013e-18 1 

-0.0536261 0.0146888 0.0521671 
-0.0677207 -0.061139 -0.0393826 
-1.86444e-19 9.78829e-19 1 

-0.015769 0.0165963 -0.0787797 
-0.0955538 -0.0342881 -0.00432267 
1.0276e-18 1.37013e-18 1 

-0.118877 -0.0744474 -0.0129664 
-0.0262911 -0.0403514 -0.094627 
1.58325e-18 -1.24398e-17 1 

-0.0391706 -0.0198294 0.024482 
-0.00276201 -0.0886428 -0.180931 
1.71627e-17 4.81989e-18 1 

-0.0379487 0.0155727 -0.0225347 
-0.0251328 -0.113538 0.152105 
1.52062e-17 -1.02647e-17 1 

-0.0438156 0.00641549 -0.0446429 
0.0118243 -0.0725528 -0.100664 
-5.00433e-18 -6.51817e-18 1 

-0.105198 0.0152211 0.0124416 
-0.0177377 -0.0641798 -0.221185 
-6.16318e-18 -6.05071e-18 1 

-0.0295715 -0.00262713 0.00159098 
-0.0281047 -0.138874 -0.00233336 
-1.20862e-18 -6.68597e-18 1 

-0.119538 0.0107738 -0.279564 
0.0413439 0.0230398 -0.152511 
1.35559e-17 1.34019e-17 1 

-0.0626079 0.00793586 0.119072 
-0.00752748 -0.0468041 -0.18575 
8.28857e-18 -3.03914e-18 1 

-0.0403916 -0.00426205 0.0381333 
-0.0291353 -0.037961 0.108653 
-2.42883e-18 -2.05043e-18 1 

-0.102705 -0.0053437 -0.0503811 
0.0483444 -0.0430192 0.0754618 
3.45099e-18 2.16931e-18 1 

-0.0680495 -0.0271245 -0.0210651 
0.00388118 -0.0143255 -0.00294705 
-2.14985e-17 5.12491e-18 1 

-0.0851393 0.0208171 0.066883 
0.00116755 -0.0618756 -0.0823515 
6.2636e-19 -3.74797e-18 1 

-0.0477982 -0.00415698 0.259396 
-0.000160422 -0.0906726 -0.427327 
-6.34867e-19 2.82163e-18 1 

-0.0877271 -0.0065812 -0.505347 
-0.0150489 -0.0195345 -0.137396 
-3.14365e-18 1.96478e-19 1 

-0.098745 -0.0391436 0.000950568 
0.0228636 -0.0252907 -0.0800395 
1.33343e-17 -2.8831e-18 1 

-0.0533144 -0.0543648 0.0644707 
-0.00552613 -0.128839 0.00748427 
2.0468e-18 3.24758e-17 1 

-0.0304206 0.0157486 0.0711705 
-0.00171669 -0.136412 -0.0301122 
1.15421e-17 1.12681e-17 1 

-0.0535831 0.00489321 -0.112693 
-0.069363 -0.0744415 0.259539 
-1.13498e-17 2.04397e-18 1 

-0.0468277 0.18639 0.000810819 
0.0407447 0.00814045 0.0976153 
2.75786e-20 9.6398e-18 1 

-0.0675814 -0.0392206 -0.168961 
0.0472051 0.00467071 0.113902 
-4.70416e-18 5.11808e-18 1 

-0.0640965 -0.0401587 -0.176865 
0.000115334 -0.0438265 -0.0425736 
4.59467e-19 -1.45667e-17 1 

-0.101858 -0.00400699 -0.0652311 
-0.00712258 -0.0698134 0.208757 
3.3949e-18 -4.84986e-20 1 

-0.0286061 0.0324521 -0.350453 
0.0252127 0.00716797 0.0355362 
5.64166e-18 -1.15994e-17 1 

-0.0684634 -0.0228584 -0.0176663 
0.0244427 -0.0352446 0.0609841 
1.91387e-17 -4.55046e-18 1 

-0.118003 0.0516371 -0.0644969 
0.0411686 -0.0847013 -0.0367498 
-9.98857e-18 9.4695e-18 1 

-0.111588 0.013309 0.108876 
0.00925175 -0.00413488 0.314542 
1.61001e-17 -1.41977e-17 1 

-0.0739839 -0.00660254 -0.521345 
-0.0346331 -0.0861911 -0.100434 
8.61434e-18 -2.86788e-18 1 

-0.112908 -0.0137575 0.0936574 
-0.0218318 -0.0965051 0.0927248 
6.98039e-19 1.89146e-18 1 

-0.130052 0.0446687 -0.131416 
-0.0620783 -0.0249872 0.352784 
-4.91665e-18 -5.03153e-18 1 

-0.0224372 -0.00570815 0.0387391 
-0.00178963 -0.0868467 0.113673 
-6.35234e-18 6.59056e-18 1 

-0.0621653 -0.00201938 0.113741 
0.000921319 -0.0549713 0.153735 
3.85192e-18 -2.38237e-18 1 

-0.0534814 -0.0321809 -0.0119034 
-0.0192034 -0.0586641 -0.132012 
4.74105e-18 7.51926e-18 1 

-0.0715107 -0.00708513 -0.122171 
-0.0168044 -0.0506278 0.0361715 
1.42418e-17 1.26942e-18 1 

-0.0289838 0.017864 -0.0567882 
-0.0481172 -0.11884 -0.0781173 
3.28715e-18 4.83748e-18 1 

-0.307861 -0.130937 -0.287702 
0.0411558 0.0273622 0.17192 
-1.19606e-18 4.1862e-18 1 

-0.0576941 0.0479976 -0.347667 
-0.0399383 -0.0533094 0.295175 
6.7699e-18 4.20926e-18 1 

-0.163047 -0.0263651 -0.00982644 
0.0881313 -0.0176069 0.314496 
1.11766e-19 -7.46594e-18 1 

-0.0806023 0.0265164 0.0482925 
-0.0128781 -0.0498395 -0.0479873 
-1.24531e-17 2.81367e-18 1 

-0.180684 0.0419919 -0.0177777 
-0.0323264 -0.0576068 0.204714 
-1.15493e-18 5.72217e-18 1 

-0.0337777 -0.0311889 -0.0434737 
0.0236707 -0.022496 0.102035 
4.39074e-18 9.77937e-18 1 

-0.0338705 0.0336145 -0.18706 
-0.0271428 -0.0166086 -0.163955 
2.68586e-19 1.57992e-19 1 

-0.0523426 -0.00550078 0.02076 
-0.02873 -0.0685696 -0.02493 
-6.63966e-18 -1.01176e-17 1 

-0.0890908 0.00893127 -0.206881 
-0.0424111 -0.0212906 -0.197264 
3.67793e-18 7.557e-18 1 

-0.197601 -0.0823746 -0.472684 
0.0744671 0.021598 -0.00442706 
-4.28482e-18 -1.43592e-17 1 

-0.220465 0.706147 0.264874 
0.00750063 0.0152106 0.758163 
-5.2152e-18 6.03925e-17 1 

-0.0533086 0.00333552 0.141305 
0.0513718 -0.072586 -0.040469 
9.32788e-18 -3.14151e-18 1 

-0.0719557 -0.00618575 0.0230812 
0.0235331 -0.0814391 -0.1256 
1.16003e-18 -9.95695e-18 1 

-0.0612362 0.0177438 0.613279 
0.00353934 -0.0886291 1.25314 
-6.15224e-19 3.85184e-18 1 

-0.0675724 0.0105047 0.131244 
-0.0272305 -0.0338736 0.0170658 
3.88853e-18 -5.93002e-18 1 

-0.0525451 0.015493 -0.00587515 
0.0120106 -0.0614714 0.223492 
7.56543e-18 6.80889e-18 1 

-0.19925 -0.0039926 0.0615213 
-0.0205298 -0.0120152 -1.38634 
-3.91362e-18 4.35058e-18 1 

-0.0582313 -0.0308545 0.114706 
0.0120048 -0.0679976 -0.0762505 
-2.26288e-18 3.34169e-18 1 

-0.0578715 0.0179563 0.46516 
0.00196069 -0.009456 0.178126 
8.29308e-19 3.36331e-18 1 

-0.0787816 0.0132725 0.0346533 
-0.0102758 0.110235 -0.37134 
-2.15705e-18 4.461e-17 1 

-0.0668816 0.0218817 0.0429374 
-0.024937 -0.0556623 -0.0853862 
-6.29682e-18 6.44456e-18 1 

-0.114738 0.0604706 0.0373208 
-0.0488695 0.00120345 -0.00858846 
-1.7093e-18 -3.82811e-18 1 

-0.151602 -0.0234683 0.101743 
-0.00736272 -0.00462779 -0.106073 
-9.44539e-18 -2.71667e-18 1 

-0.0289227 0.019422 -0.0190032 
-0.0408578 -0.0650706 0.0117641 
6.0287e-18 1.5727e-17 1 

-0.051578 -0.0135408 -0.908514 
0.00546159 -0.0430627 0.593836 
1.70981e-19 -1.71171e-18 1 

-0.0811477 -0.00633689 -0.0649108 
0.0059322 -0.0372949 0.0297441 
2.42994e-18 -6.72207e-18 1 

-0.0634574 0.0180724 -1.49795 
-0.00428663 -0.0662977 1.04937 
-4.53459e-18 1.68363e-18 1 

-0.0612861 0.00603709 0.0454037 
-0.0375651 -0.0689671 0.0235248 
-1.1459e-17 -8.51967e-18 1 

-0.0565803 -0.0268122 -0.0409595 
0.0228176 -0.0899326 0.121277 
-8.55605e-18 2.25319e-18 1 

-0.0850254 -0.00338168 0.214859 
0.0381774 -0.0569931 0.0482181 
-1.01901e-17 -3.01543e-18 1 

-0.246611 0.0736532 0.0836216 
-0.0521941 -0.0345929 0.0707913 
5.8903e-19 -7.2496e-19 1 

-0.0157675 0.00871875 -0.037568 
-0.0528944 -0.0528433 0.199946 
-8.40579e-18 -3.35013e-18 1 

-0.0761915 0.00179752 0.0246779 
0.00829892 -0.0903175 0.0277892 
-6.73344e-19 4.31879e-18 1 

-0.0917809 0.0261942 -0.304323 
0.0131123 -0.0744812 -0.128542 
1.62865e-18 6.52479e-18 1 

-0.067019 0.0157375 0.156154 
0.0238304 -0.0492468 0.831527 
-3.41736e-18 -5.37475e-18 1 

-0.0445254 0.01325 0.532163 
-0.00466117 -0.067527 -0.193632 
-4.13833e-18 -2.44945e-18 1 

-0.0442278 0.021981 -0.0246698 
-0.00829211 -0.12153 -0.0341695 
1.72218e-17 -4.1621e-18 1 

-0.0862246 -0.0238508 -0.000450242 
0.00743897 -0.0227444 0.0123257 
9.84705e-18 8.24021e-19 1 

-0.0863961 0.00174025 -0.0157146 
-0.0114865 -0.0449069 0.104192 
-4.26356e-19 6.62817e-18 1 

-0.0460263 -0.0152789 0.0374994 
0.00147472 -0.01435 -0.553768 
1.37442e-18 -8.74024e-18 1 

-0.0293206 0.0122194 0.0829784 
0.0051845 -0.0820122 -0.0856272 
4.90724e-18 7.8483e-18 1 

-0.0510242 0.0160961 -0.0484152 
0.0463579 -0.0621817 -0.0619413 
6.34265e-19 -5.35954e-18 1 

-0.0807118 0.0399891 -0.0394135 
-0.00547443 -0.0625195 -0.0174479 
2.93382e-18 -1.24465e-18 1 

-0.0832776 0.0363437 -0.0180782 
-0.0118723 -0.0023738 0.0422082 
1.03762e-17 -8.18928e-19 1 

-0.151245 0.0073948 -0.106532 
0.0474885 -0.106004 -0.103291 
8.76969e-19 1.65572e-17 1 

-0.114276 0.03336 0.00287891 
-0.0458487 -0.0510134 -0.025053 
3.47123e-19 6.07465e-19 1 

-0.0472572 0.00362018 0.0415218 
-0.0467378 -0.0104389 -0.190048 
-6.85495e-18 -3.27025e-18 1 

-0.066287 0.0154374 0.00200316 
-0.0301319 -0.0374573 0.118157 
-3.91843e-18 4.36023e-18 1 

-0.0450809 -0.00738223 -2.12729 
-0.00149952 -0.0697547 0.313436 
1.52834e-18 1.33453e-18 1 

-0.0581078 0.0149024 -0.365281 
-0.0182724 -0.125115 0.111718 
7.35991e-18 -7.41741e-18 1 

-0.0793217 -0.00937068 0.0221108 
0.0388067 -0.0484522 -0.0407354 
9.18161e-18 6.58952e-18 1 

-0.0480797 0.0165359 0.0666732 
0.0131494 -0.0702396 -0.0573349 
4.77284e-18 1.15414e-17 1 

-0.0525655 -0.0128637 0.00489561 
-0.0388793 -0.0345213 -0.170289 
6.12481e-18 7.07715e-18 1 

-0.0506589 0.0145789 0.587899 
-0.0148296 -0.0532938 -0.121588 
6.69237e-18 -4.9358e-18 1 

-0.0775703 -0.0136771 -0.21819 
0.0207462 0.00638019 0.021929 
8.89367e-18 1.09373e-17 1 

-0.135265 0.0390073 0.0980504 
-0.00396669 0.0557765 -0.0709897 
-2.7967e-18 -1.27445e-17 1 

-0.0589575 0.0114781 -0.149441 
-0.00545522 -0.0513385 -0.627744 
6.17426e-18 3.95853e-18 1 

-0.175507 0.0415414 0.294418 
0.0154518 -0.0555392 0.0127721 
-9.49922e-18 -4.8201e-18 1 

-0.0736666 0.00390725 0.0202831 
-0.0189717 -0.0294679 0.279981 
-1.4646e-18 8.18538e-18 1 

-0.0333772 0.0084544 -0.306401 
-0.0212458 -0.037504 0.212299 
-8.25479e-19 1.06312e-17 1 

-0.136028 -0.00699274 0.0220071 
0.0659794 0.00572108 0.0313485 
1.83631e-18 1.06398e-17 1 

-0.0663536 -0.00724261 0.0682386 
0.0238302 -0.0618033 0.0192576 
8.41077e-19 2.11656e-18 1 

-0.0818229 -0.0239669 -0.0342913 
0.0251763 -0.0537104 0.114354 
1.0352e-18 -4.14078e-18 1 

-0.0355044 -0.0311834 0.00936733 
-0.0549948 -0.0498634 -0.107986 
-4.67275e-18 6.36355e-18 1 

-0.0843054 -0.0116956 0.0510325 
0.0203038 -0.0482467 -0.12115 
5.96245e-18 -1.41995e-18 1 

-0.0432359 -0.0349953 0.0341784 
0.0653924 -0.0374244 0.0273341 
-1.78615e-18 -3.917e-18 1 

-0.0567912 -0.0163856 0.0385443 
0.00575995 -0.0385679 -0.135164 
1.00039e-17 -4.57185e-19 1 

-0.0351784 -0.0253658 -0.159378 
0.0376284 -0.0273487 0.15871 
1.03416e-17 1.49307e-17 1 

-0.0427522 0.0264167 -0.11281 
-0.0250278 -0.0344565 -0.0637171 
1.31698e-17 -3.6572e-18 1 

-0.2404 -0.29621 0.701562 
-0.0813656 0.202209 -0.616573 
-2.38466e-19 1.3298e-17 1 

-0.187599 0.0261609 0.277346 
-0.0249786 -0.0662756 0.00914007 
4.94829e-18 -2.16061e-17 1 

-0.0365678 0.000191547 0.580317 
-0.00986186 -0.13674 -0.780526 
-1.2905e-17 -2.79822e-18 1 

-0.0643463 -1.88915e-05 0.110537 
-0.0100062 -0.0627553 -0.293504 
-3.61309e-19 2.8338e-20 1 

-0.0368747 -0.0124437 0.0175771 
-0.00644361 -0.0409169 0.00783047 
2.35902e-18 -4.84671e-18 1 

-0.0406722 -0.0283273 -0.24382 
0.0274534 -0.0372887 0.141864 
2.93135e-18 -8.62274e-18 1 

-0.0940653 0.0273514 0.0427586 
0.0082109 -0.047229 0.13333 
1.91188e-18 -7.02324e-18 1 

-0.0531571 -0.0330882 -0.7671 
0.0136974 -0.0638435 0.276471 
-2.42453e-18 5.5261e-18 1 

-0.0464677 -0.0115882 -0.452673 
0.00863797 -0.0438255 0.226265 
-1.94293e-18 -6.90677e-19 1 

-0.0459363 -0.0278175 0.0900511 
-0.00331903 -0.0625377 0.0325526 
6.51882e-18 -8.19323e-18 1 

-0.0997813 -0.0331316 -0.191639 
-0.00381331 0.00244583 0.0849747 
-5.29287e-18 1.48594e-18 1 

-0.0788418 0.00419171 0.167568 
0.0433349 -0.0381262 0.170021 
-6.8571e-18 -1.31571e-17 1 

-0.0505627 -0.0154837 -0.0249354 
-0.00272654 -0.049694 0.0430318 
-1.44057e-18 -4.09425e-18 1 

-0.094591 -0.0699034 -0.0487447 
0.0207031 0.0667509 -0.41316 
3.14112e-18 2.30935e-17 1 

-0.144881 0.0443972 -0.347416 
0.0226537 -0.106064 0.124913 
-4.79788e-18 7.30641e-18 1 

-0.0897993 0.00660606 0.878495 
-0.0219413 -0.0202467 1.85496 
-1.29751e-19 1.66293e-18 1 

-0.0558248 0.0216755 -0.0443668 
-0.0165136 -0.0826032 -0.169194 
1.6796e-19 1.06935e-17 1 

-0.0633543 -0.0184909 0.115558 
0.00155572 -0.0492479 -0.19608 
1.62728e-18 -2.55393e-18 1 

-0.0976928 -0.00157106 0.608936 
0.0198159 0.027401 -0.308098 
3.23819e-18 6.17889e-18 1 

-0.0971796 -0.0448632 0.05623 
0.0461512 -0.0568267 0.268689 
-1.49605e-19 -7.85425e-18 1 

-0.342989 0.106927 -0.107147 
-0.0367866 0.055535 0.156937 
-1.01244e-18 1.12002e-17 1 

-0.0521339 0.0198206 -0.00105043 
0.0162224 -0.053853 0.0640069 
1.00327e-17 7.40912e-18 1 

-0.0753283 -0.00556083 -0.0235719 
-0.00252183 -0.0117619 0.184986 
-7.23135e-18 8.82897e-19 1 

-0.0182163 -0.0735186 -0.114743 
0.0111921 -0.112304 0.103851 
-1.04194e-17 4.35457e-18 1 

-0.0403831 -4.48125e-05 -0.100991 
-0.0142275 -0.115763 -0.17792 
3.50421e-18 -1.07516e-17 1 

-0.0332362 5.62536e-05 -0.0169065 
-0.0096695 -0.0735266 0.0314984 
1.37925e-18 6.71633e-18 1 

-0.0236514 0.0110658 -0.0922745 
0.00343277 -0.0441159 0.0592738 
-3.51364e-18 -7.14845e-18 1 

-0.0625899 0.00847855 0.160302 
0.00949405 -0.0688159 0.154525 
-1.9035e-18 5.88373e-18 1 

-0.0970621 -0.0211969 -0.367728 
-0.0072226 -0.0385574 0.253695 
-2.69039e-18 -4.59335e-18 1 

-0.0769111 0.0288594 -0.10299 
-0.0503242 -0.0203134 -0.00895049 
-1.55031e-19 -2.63553e-18 1 

-0.09925 0.00256586 0.0371371 
-0.0357384 -0.0756152 0.142592 
-5.30382e-18 -5.0468e-18 1 

-0.195644 0.0799386 0.216494 
0.0675212 -0.0143817 0.0898972 
-6.80384e-18 -9.17727e-18 1 

-0.0709536 -0.0127376 0.0515658 
-0.00656262 -0.0607166 -0.136728 
-2.35767e-18 4.00241e-18 1 

-0.0602056 0.00339152 0.138103 
0.0186375 -0.0142278 0.135644 
-1.08568e-17 5.93274e-18 1 

-0.0888728 0.0597533 -0.0219564 
-0.0357901 -0.0874004 -0.0461694 
-4.88331e-19 3.45239e-18 1 

-0.0428358 -0.00420855 -0.0771211 
-0.0557152 -0.064026 -0.0927292 
-1.13215e-17 -1.00242e-17 1 

-0.0782021 -0.0125574 0.0884185 
0.00141743 -0.125794 -0.0231613 
7.54151e-18 -9.11266e-18 1 

-0.0482319 -0.00744889 -0.0251649 
-0.0351619 -0.0639955 0.0159549 
1.51196e-18 7.88847e-19 1 

-0.0565704 0.0038776 -0.670567 
0.016637 -0.0742496 -0.143755 
-8.20879e-19 5.4209e-18 1 

-0.109929 -0.0105275 0.0406153 
0.0742572 0.0178177 -0.28156 
-1.16524e-19 1.76388e-17 1 

-0.0727618 0.00995745 0.0613933 
-0.0743163 -0.0599808 0.144782 
2.47556e-17 -6.74855e-18 1 

-0.0850953 -0.0217485 0.291349 
-0.0281459 -0.0381929 0.0785921 
6.17547e-18 1.07739e-17 1 

-0.12541 -0.0453907 0.274082 
0.0646287 -0.00653209 0.0243998 
4.9009e-18 -7.57606e-18 1 

-0.04614 0.0182298 -0.316587 
0.00297468 -0.0891151 -0.02504 
1.49666e-18 1.31848e-18 1 

-0.140153 0.050613 0.24121 
0.0104317 -0.0258989 -0.14375 
-8.49475e-18 -7.03447e-19 1 

-0.0793625 -0.0292105 -0.0216078 
0.0342293 -0.0571105 -0.187151 
0 2.14107e-18 1 

-0.0660666 -0.0735124 -0.131428 
0.0188822 -0.0729391 -0.0584491 
4.24678e-18 -4.44365e-18 1 

-0.113607 -0.0163847 -0.0834705 
-0.00849705 -0.0719696 0.0452018 
-3.56702e-18 8.80681e-18 1 

-0.0841092 -0.0327808 -0.0843007 
0.00168973 -0.0290957 -0.212603 
1.21191e-17 1.48201e-19 1 

-0.180954 0.0562355 -0.245031 
-0.00152775 -0.0552741 -0.0199454 
-9.39198e-19 -3.18116e-18 1 

-0.0794989 0.0287311 0.0224113 
-0.0355506 -0.0101526 -0.108824 
-4.99419e-18 7.99071e-20 1 

-0.0590439 0.0262293 -0.109191 
0.00411303 -0.0782218 -0.129896 
-4.58347e-18 1.52364e-17 1 

-0.0368881 0.00390486 -0.188497 
-0.0229568 0.038544 -0.165426 
-2.00225e-18 1.38618e-18 1 

-0.0624861 -0.030766 -0.0336699 
-0.0385504 -0.0770666 0.262166 
2.24591e-18 4.16633e-18 1 

-0.0902586 0.0157199 -0.0530618 
0.0259257 -0.00332303 -0.0630647 
2.37374e-18 2.67046e-18 1 

-0.0715347 0.0202989 -0.139491 
-0.0344624 -0.0474741 0.044507 
-1.30203e-17 -5.92888e-18 1 

-0.0621574 0.00659379 0.0377501 
0.0261303 -0.033933 -0.0021421 
-5.47452e-18 1.02472e-17 1 

-0.183788 -0.0123323 -0.0855951 
0.0246134 -0.0150343 0.182265 
-3.65513e-18 2.77028e-19 1 

-0.104014 0.0706707 0.6742 
0.0136271 -0.0228865 -0.273556 
1.11938e-18 1.13382e-17 1 

-0.0498138 0.0105375 -0.0169687 
0.0144029 -0.0849394 -0.000440606 
-8.49272e-18 -9.82049e-18 1 

-0.0600134 0.000934899 -0.0618828 
-0.0442741 -0.0525522 -0.169522 
-1.27568e-19 9.18487e-18 1 

-0.0440138 -0.0120207 0.263812 
0.0166799 -0.0520623 0.699036 
-1.57675e-17 -8.58993e-18 1 

-0.0559799 0.0236479 -0.132736 
0.0177877 0.00890011 0.188248 
6.83841e-18 4.6841e-18 1 

-0.199242 0.00502436 0.202248 
-0.00974985 -0.0323593 -0.328839 
-7.53377e-19 -4.30053e-18 1 

-0.0750514 0.0112276 -0.16689 
-0.0438116 0.0192098 -0.00441174 
7.59294e-18 -6.92194e-18 1 

-0.0405835 0.0105932 -0.222315 
-0.0360872 -0.0528846 -0.107354 
-1.08412e-17 5.61129e-18 1 

-0.101735 -0.0136195 -0.034156 
0.0278775 -0.0508404 -0.538224 
-2.70581e-18 -9.87005e-18 1 

-0.0304769 0.0239556 0.244676 
0.0772366 -0.0636352 -0.0892679 
-6.04492e-18 -9.74588e-18 1 

-0.046409 -0.00673535 -1.61474 
-0.0102229 -0.0462842 -1.58461 