# vtk DataFile Version 3.0
Output file generated by Yade's KinematicLocalisationAnalyser
ASCII
DATASET UNSTRUCTURED_GRID

POINTS 13483 float
638.046 27.7501 0.474674
831.591 48.5468 0.443719
124.87 6.0668 -0.439363
874.541 5.58804 0.374655
519.513 7.74097 -0.273112
326.759 34.7294 -0.464581
162.567 6.85493 0.43182
595.874 10.0583 0.147355
516.21 22.9476 0.148714
771.672 11.9403 -0.386077
218.587 8.85161 -0.086933
266.783 6.28206 -0.264116
690.321 28.0055 -0.262809
667.602 14.0135 0.0704574
142.508 17.1058 0.391748
229.928 34.4267 0.407716
226.059 12.8773 -0.287862
299.829 9.56106 0.389648
353.921 32.4945 -0.340005
546.479 8.53941 0.347019
426.751 36.3591 0.0981717
620.552 43.6969 0.251807
873.53 33.8329 -0.519914
743.963 41.362 -0.471317
476.96 16.1968 0.287757
250.076 44.171 0.13068
511.208 27.2999 -0.49101
614.3 19.1717 0.22961
47.06 15.4634 -0.410702
767.741 31.4084 0.239493
501.672 4.92755 0.316129
17.3266 23.1813 -0.287927
846.132 45.8917 -0.254253
515.264 2.48632 0.48052
81.1979 44.1509 -0.101227
543.433 29.8827 0.355105
553.146 16.4904 -0.405788
357.261 22.5489 -0.196371
556.525 25.1507 -0.342606
364.291 33.1313 0.454151
250.314 14.6337 -0.299061
451.292 35.3935 0.0729822
719.043 7.09491 0.158383
200.317 6.22911 0.36754
57.8477 6.92076 -0.129572
71.4062 8.90798 -0.299217
737.164 9.00734 -0.446448
24.4871 11.5615 -0.281607
642.144 43.8447 0.352201
720.44 23.0082 0.375455
179.434 32.1818 0.288079
828.17 33.4677 0.172489
36.4206 27.954 0.112976
557.192 2.95953 0.325159
147.772 7.49914 -0.479044
623.223 33.1561 0.438053
525.096 26.3908 -0.152342
181.827 0.943812 -0.268419
34.0895 2.39891 -0.296348
362.45 17.7105 0.273054
654.111 44.5596 -0.139116
480.754 33.318 -0.189271
415.238 1.02551 0.196335
748.527 7.76004 0.342265
27.4664 42.8184 -0.235788
266.304 30.2982 0.295417
771.836 7.44154 0.198986
712.063 43.5338 0.366389
434.287 8.65384 -0.493817
596.679 3.51021 -0.34918
806.162 28.5109 -0.43238
135.986 7.64324 0.283765
519.024 25.3852 0.146881
497.294 14.8689 -0.146725
306.221 16.6798 -0.337915
21.5508 13.4515 0.272962
853.169 36.8418 0.364031
346.09 38.3858 -0.286352
718.095 19.8113 -0.361146
736.675 12.8953 -0.258459
861.435 13.3481 -0.174473
484.3 34.2802 -0.162064
96.1044 38.3428 -0.269968
730.288 33.3984 -0.259112
686.647 37.9273 0.107852
879.968 39.6585 0.121553
853.877 0.789295 -0.453811
302.811 28.686 0.435171
656.057 6.32094 -0.117668
25.3073 5.1774 -0.472455
138.434 37.9054 -0.16496
535.087 14.4451 0.217009
844.854 27.0807 -0.569295
203.676 28.5647 -0.225574
46.2156 34.0834 0.290632
514.163 1.15733 0.127523
245.552 8.92542 -0.36667
809.183 37.5002 0.300712
832.968 26.1105 0.340768
376.494 20.8999 -0.256349
170.924 26.7117 -0.463459
576.112 37.7449 0.424743
396.058 15.3282 -0.43418
431.12 29.2727 -0.0940179
394.165 4.44381 0.410758
574.08 10.8599 -0.0940886
878.856 11.5828 0.170589
83.6017 39.1082 -0.39298
349.702 4.84882 -0.183539
589.094 9.46142 -0.350557
375.654 43.5969 0.443992
26.9798 24.67 -0.47359
31.7754 5.74575 -0.32474
597.729 31.5733 -0.445019
528.201 24.0888 0.151295
27.5502 36.8217 -0.421407
97.1835 30.5408 0.213984
339.236 15.8188 -0.295839
633.765 18.6564 -0.154569
496.911 37.5226 0.313335
791.599 7.655 -0.395809
782.191 6.08337 -0.192716
404.218 36.8733 0.0941332
674.051 25.0162 0.135668
248.826 17.0708 0.492888
344.764 3.71532 0.461257
108.324 31.3816 0.344087
121.742 24.1539 0.268941
571.224 38.0756 0.0787741
319.751 18.8143 0.457602
762.358 34.3364 0.11192
716.439 42.8671 0.120515
503.207 20.4085 -0.414911
838.589 10.5863 0.359973
448.609 23.1303 -0.233964
289.142 24.1324 0.299738
718.936 30.1276 -0.270976
291.493 28.1496 -0.42299
607.913 11.5877 -0.205039
347.127 35.0794 0.201282
529.366 11.2907 0.471372
383.842 31.3407 0.0906082
450.8 16.5633 -0.107032
333.087 41.5758 0.307367
199.793 29.6103 0.131772
835.807 46.2662 -0.163266
874.891 12.7794 -0.331772
6.28196 12.159 -0.472521
454.953 22.2719 -0.413909
40.1387 22.3365 -0.0805953
394.224 31.0703 -0.299895
413.837 24.7524 0.256448
78.6103 11.9317 0.486401
54.3382 33.0132 0.400801
236.753 13.4052 0.415208
655.434 37.6233 0.503515
610.582 20.2878 -0.46819
78.7123 20.9341 0.331956
746.79 44.9425 -0.405078
824.601 2.35226 0.452866
704.213 39.8815 -0.531527
743.556 2.40022 -0.358455
580.564 26.2939 0.429274
622.126 44.3019 -0.43465
539.071 17.9086 -0.412562
872.447 3.08145 -0.211312
234.535 24.6977 0.137806
133.969 35.2691 0.220476
259.46 6.42856 0.371398
99.363 4.15629 0.271961
67.6726 10.0651 0.193179
289.44 35.6594 0.317518
17.4814 24.9465 0.390053
586.81 19.2009 -0.391035
641.823 38.7415 0.235942
486.405 21.0194 -0.380671
865.895 41.7269 0.37487
427.238 8.57537 -0.101692
457.96 35.7991 -0.378128
565.958 3.43472 -0.191679
24.0856 23.8267 -0.391997
610.742 4.42739 -0.349766
576.244 4.34056 -0.287849
216.729 11.3157 0.483041
446.851 16.3608 -0.190619
327.09 6.27669 0.334573
407.769 18.9339 -0.321937
796.025 40.2454 0.113857
202.056 25.601 -0.438495
847.632 6.79076 -0.326521
794.853 36.492 -0.34254
402.952 10.1152 -0.176277
768.722 2.38008 0.427097
642.077 24.8247 0.0906597
800.208 17.59 0.425843
453.09 42.4716 -0.301252
523.452 12.4809 0.349486
489.882 43.7703 -0.219869
468.829 8.60418 0.125105
707.608 38.688 -0.303309
705.22 34.9666 0.295573
202.157 38.8665 -0.355759
859.397 13.2235 -0.0900455
623.937 44.4021 -0.116207
11.9475 16.7635 0.225716
428.412 25.1239 0.364263
197.018 23.0188 0.391633
97.8168 39.2447 -0.210795
843.299 24.2586 -0.473639
701.671 44.593 0.234237
335.72 25.2611 0.346414
562.689 10.1472 0.319895
86.4153 44.2899 -0.166437
260.433 25.8125 -0.493861
589.528 23.3103 0.387368
512.968 18.4451 0.404712
276.478 0.887867 -0.343316
585.735 39.2746 -0.356392
564.399 40.2406 -0.456918
508.231 32.7351 0.372138
526.618 0.798361 -0.51189
755.42 19.0487 0.385605
189.067 12.0142 -0.182225
528.054 36.1227 0.440188
598.758 39.0468 0.134418
76.9087 0.946354 0.273019
264.953 4.71177 0.17577
874.259 14.6385 0.233093
861.986 15.1875 -0.515114
881.758 16.4999 -0.429315
319.393 8.54636 -0.228473
806.68 22.0198 0.39303
428.672 41.0531 -0.186136
473.164 0.814147 -0.399367
692.74 34.9697 0.443144
28.7167 30.3812 0.299371
348.245 40.8845 0.559466
265.82 2.84702 0.324252
849.21 42.907 -0.200063
766.739 46.6154 0.22008
302.503 10.9151 0.219993
712.049 28.5017 -0.109346
590.881 2.65901 0.295718
573.957 6.42021 0.417074
101.896 18.2311 -0.492115
319.22 1.03067 -0.223038
361.56 2.26538 -0.362633
14.7385 7.59634 -0.425729
4.63283 30.5467 -0.25615
170.532 18.8441 0.357328
71.9006 41.4348 0.216331
70.2882 28.6372 0.368615
446.488 14.4912 -0.425888
386.841 34.8137 0.472137
826.441 35.1357 0.130699
20.5467 4.03095 0.265987
74.5367 6.89618 0.123447
666.216 37.1586 -0.188223
310.356 0.916152 0.354117
384.612 16.1135 -0.0921591
248.268 4.68657 -0.389311
697.776 20.8067 -0.19073
476.41 8.32874 0.416851
809.735 19.8443 0.403404
673.328 28.4623 0.366755
717.044 17.9395 -0.0955115
443.066 26.4268 0.480988
107.557 44.3633 0.319401
574.961 41.5364 0.0725559
797.211 13.1262 -0.214422
250.656 30.3354 -0.259814
33.9453 16.8804 -0.187961
354.696 13.7197 0.498496
113.548 40.127 -0.480739
282.128 42.0068 -0.202905
448.709 1.09528 -0.230466
850.784 32.4229 0.383283
736.097 0.790442 0.517476
350.269 3.23153 0.524599
316.289 26.3639 -0.150501
488.657 40.6434 0.214394
86.0798 8.04677 0.423141
208.588 44.6374 0.378071
835.283 28.4505 0.515272
523.145 38.6196 -0.081359
211.061 41.1466 -0.264022
169.957 42.1973 0.126682
882.458 34.5953 -0.535569
877.282 12.3167 -0.594563
646.16 3.48269 -0.443305
200.709 24.455 0.0994931
582.501 27.2288 0.111426
584.536 26.9748 -0.269303
431.941 5.66949 -0.136527
508.969 0.92893 -0.285089
824.291 37.7254 -0.473546
89.7301 30.9137 0.220564
703.523 18.0572 -0.430913
289.384 15.5024 -0.337557
10.2849 2.31255 0.349271
132.596 36.8687 -0.190247
70.8265 23.0338 0.48876
755.06 36.0267 -0.324535
855.167 47.8271 0.180733
195.957 28.2169 -0.170496
870.328 12.0633 0.333933
47.637 36.2164 -0.257454
96.0347 28.8861 0.172798
677.769 13.0022 0.469619
436.526 18.1742 -0.482591
549.788 16.4883 0.125846
251.206 28.3507 -0.180588
663.574 4.46092 -0.390928
881.633 10.7714 0.336783
31.4858 31.4795 0.272256
285.029 7.69999 0.19003
234.364 15.0478 0.247117
1.095 35.1421 -0.14676
237.74 14.4536 -0.364405
223.55 11.0204 -0.106339
226.248 26.1354 -0.283043
140.514 27.7689 0.140901
580.86 14.9705 -0.343904
176.456 14.0653 -0.354249
843.458 43.8973 0.275982
183.902 3.82412 0.506406
50.123 37.2882 -0.386595
802.396 46.8842 -0.426463
296.566 31.0651 -0.376116
726.843 23.2504 -0.438103
860.329 32.0253 -0.608049
317.415 9.15835 -0.10859
793.108 28.2942 -0.36254
347.089 2.60002 -0.377248
439.446 23.8173 0.350492
723.324 16.2241 0.420623
111.482 11.9433 -0.441588
510.683 3.89767 -0.479555
813.52 17.424 -0.223207
93.4786 7.64011 -0.206347
297.311 14.657 0.201659
447.289 11.6581 -0.200348
870.92 3.69529 0.602019
420.278 1.9358 -0.52953
186.958 38.5854 -0.282092
799.985 10.6532 -0.298048
135.815 36.2649 -0.196935
277.665 31.1897 -0.384503
422.967 21.5157 0.218477
610.4 13.3783 -0.319785
408.954 9.71472 -0.485807
482.547 27.4446 -0.348885
832.52 47.2989 0.413897
50.3985 10.9577 -0.108493
316.173 38.3194 -0.256366
401.105 26.8766 0.345644
432.59 20.8826 0.263727
552.264 43.8255 0.356356
817.492 36.3426 0.233748
711.179 34.3353 -0.374789
238.611 34.0957 -0.378577
14.711 31.0437 0.166675
703.665 36.0542 -0.15137
538.982 40.7985 0.437055
242.379 39.1992 0.104113
734.133 30.4661 -0.127259
159.751 9.20385 0.215223
387.374 21.2017 0.323105
490.472 41.6881 0.102201
437.621 19.4877 0.210009
827.912 49.3904 -0.290856
450.235 3.4246 0.434824
52.6087 24.961 -0.287509
497.194 31.3088 0.358616
459.655 41.7954 0.349222
846.258 37.5448 -0.265579
790.339 27.4092 0.230267
574.345 18.3289 -0.194305
837.672 38.4725 -0.417969
309.867 2.2058 -0.461107
399.828 29.2581 0.477489
30.7745 38.5592 -0.308695
796.046 29.0835 -0.177571
650.802 19.618 0.506427
489.668 0.778913 -0.473848
133.433 4.5261 0.275528
450.918 39.8423 0.109187
12.7698 0.905526 -0.316439
870.028 5.94025 0.277728
[...]
POINT_DATA 13483
TENSORS Strain_matrix float
-0.126579 -0.110336 0.384738 
0.0668549 -0.0103599 -1.53974 
4.68532e-19 9.37065e-19 1 

-0.248702 -0.057698 2.17754 
0.172409 0.0283867 -4.3874 
-4.38546e-18 1.40683e-17 1 

-0.0926078 0.00676136 -0.235752 
-0.0168131 -0.0449022 0.0927179 
-6.45454e-18 6.6901e-18 1 

-0.66657 -0.0433241 0.482749 
-0.35326 0.152312 0.209285 
0 3.14226e-18 1 

-0.135835 0.00203216 -0.00269253 
-0.0114374 -0.00344556 -0.27997 
3.15901e-18 8.7903e-18 1 

-0.0769799 -0.0122471 -0.516088 
0.00883255 -0.0207164 -0.195139 
-9.28721e-18 7.49728e-18 1 

-0.0745759 -0.0255221 0.00749043 
-0.00290238 -0.0886914 -0.0052814 
-1.40139e-17 -1.13736e-17 1 

-0.0772445 0.0254378 -0.0925251 
0.0212695 -0.0667621 -0.0334011 
3.65867e-18 6.3112e-18 1 

-0.0980726 -0.0359393 -0.0230282 
0.0546687 -0.00125617 -0.0619864 
8.89727e-18 2.20497e-17 1 

-0.134502 -0.00199246 0.0345834 
0.00702711 -0.0829609 -0.335145 
-4.87226e-18 7.53171e-18 1 

-0.0714353 0.0293838 -0.114163 
-0.0052842 -0.0674237 -0.0381991 
-5.18535e-18 -1.26603e-17 1 

-0.0869484 -0.0460785 0.201377 
-0.0728654 -0.0982563 0.0483299 
-4.92651e-18 -6.33408e-18 1 

-0.196508 0.0437792 -0.0439064 
-0.0534796 0.0077106 -0.610297 
1.10075e-17 -7.40563e-18 1 

-0.137902 -0.0280483 -0.297404 
0.0290246 -0.0386107 0.179323 
1.20805e-17 -3.4806e-18 1 

-0.121008 -0.011648 -0.517317 
-0.000998369 -0.0441229 -0.188039 
-2.20049e-17 1.79521e-18 1 

-0.0646697 -0.0158082 0.308295 
-0.0418621 -0.0252424 -0.117164 
-3.64859e-18 9.80854e-18 1 

-0.0630361 -0.0369757 0.0677095 
0.00885979 -0.111777 -0.0540472 
-5.41019e-18 -1.49746e-18 1 

-0.134055 -0.0112694 -0.0509145 
0.0125369 -0.0708846 0.0104695 
-1.01401e-17 1.37382e-17 1 

-0.142696 -0.0247931 0.19751 
-0.0150748 0.0131104 0.177406 
1.10385e-18 -7.13559e-18 1 

-0.0989628 0.0282151 0.114072 
-0.0638929 -0.0772567 0.176381 
3.14827e-18 -6.3715e-19 1 

-0.0509905 -0.0447443 0.0828733 
0.120513 -0.0419963 -0.00501255 
-9.9947e-18 -8.59417e-19 1 

-0.16301 -0.103272 -0.129351 
0.0300857 -0.0136476 0.149316 
-1.03521e-18 1.26108e-17 1 

-0.677318 0.115572 1.96193 
-0.07669 0.245896 0.0936071 
1.04341e-17 1.50647e-17 1 

-0.122226 0.0247556 -0.782054 
-0.00331696 0.000269996 -0.981895 
-4.83908e-18 -9.33029e-18 1 

-0.0520147 -0.0430035 -0.152682 
0.0834005 -0.0471053 -0.0517998 
-1.18713e-18 1.45371e-17 1 

-0.117167 0.105991 -0.101391 
-0.0779265 0.041585 -0.00631058 
1.33153e-17 -5.72929e-18 1 

-0.108892 -0.00506109 -0.581952 
0.014381 -0.0339371 -1.22964 
-2.89042e-18 -8.2127e-19 1 

-0.10755 0.00718207 -0.0283003 
-0.0314941 -0.0209023 -0.0480615 
-5.92549e-19 -5.98786e-18 1 

-0.0817081 0.00918593 -0.245659 
0.0532975 -0.0701603 -0.477018 
2.8708e-18 -1.62713e-18 1 

-0.250246 -0.0388342 0.187007 
0.0325238 0.0698502 -0.236709 
1.30668e-17 4.48265e-17 1 

-0.072548 -0.00774339 -0.260215 
0.00559622 -0.14684 0.385467 
1.36459e-17 6.19847e-18 1 

-0.116673 0.00190558 -0.030064 
0.031853 -0.0557455 -0.0122967 
-8.33951e-18 -1.04308e-17 1 

-0.16569 -0.134231 0.764323 
0.170203 0.0567746 0.914347 
-3.91431e-18 -6.12433e-18 1 

-0.11927 0.0588958 -1.46769 
0.00622629 0.078076 -1.52913 
6.20662e-18 -1.55395e-17 1 

-0.0496257 -0.0274564 -0.0138482 
-0.0291764 -0.108456 0.183246 
-8.268e-18 1.98197e-17 1 

-0.111538 -0.0236406 -0.241459 
0.00960303 -0.0077787 0.297752 
2.12187e-18 3.84968e-18 1 

-0.0830225 0.000452694 -0.104388 
0.011907 -0.0499484 -0.352369 
-3.34099e-18 -6.12901e-18 1 

-0.0249684 -0.0284613 -0.10832 
-0.0138676 -0.114206 -0.0928905 
-8.64446e-18 1.21097e-17 1 

-0.0853739 -0.0271414 0.0618024 
0.0932386 -0.0503508 0.0691951 
-1.05671e-18 1.00639e-18 1 

-0.0757084 -0.0265196 0.284009 
0.0160485 -0.02144 0.657552 
-1.26298e-18 4.05024e-18 1 

-0.0828492 0.0107254 0.0421592 
-0.0728789 -0.0549092 -0.0388363 
2.10683e-18 4.77547e-18 1 

-0.0552922 -0.0343254 -0.111689 
-0.0123958 -0.0477068 0.517112 
1.45184e-18 -2.74236e-18 1 

-0.240316 -0.0542886 -0.0117511 
-0.0284197 0.00828356 0.0457013 
-7.56593e-18 -3.55712e-18 1 

-0.0649815 -0.0142174 0.185433 
-0.000455699 -0.0740755 -0.573163 
-6.87196e-18 7.68617e-18 1 

-0.0655729 0.0255126 -0.00454345 
-0.0353107 -0.103874 0.155635 
-3.37765e-18 -3.3397e-18 1 

-0.0754895 0.00366038 -0.0396356 
-0.00585627 -0.0546549 -0.184465 
4.8555e-18 -1.93258e-17 1 

-0.185655 0.0185983 0.645823 
-0.0405665 -0.0503495 0.119423 
8.04466e-18 -1.61189e-17 1 

-0.0460736 -0.00491267 -0.00555956 
-0.0246733 -0.127272 -0.0100528 
-6.5371e-18 5.69443e-18 1 

-0.125869 0.0397237 -0.233488 
0.0118855 0.026235 -0.129688 
-4.59835e-18 -9.51384e-19 1 

-0.107979 0.0182685 0.100749 
-0.0368788 -0.0378888 -0.14563 
-1.05738e-17 6.54287e-18 1 

-0.063276 -0.0451796 -0.051174 
-0.0126074 -0.0347257 -0.170433 
-2.44006e-17 2.55951e-19 1 

-0.247244 -0.0755336 -0.769021 
0.269237 0.0659776 1.11322 
-4.18771e-18 -7.92815e-18 1 

-0.0974019 -0.00479945 0.0353239 
0.00719407 -0.00360575 -0.00802335 
1.56493e-17 2.08117e-18 1 

-0.10625 0.0393815 0.0755194 
-0.0189572 -0.0542603 -0.00197296 
-2.88065e-18 -1.72039e-18 1 

-0.0959794 0.00113669 0.174637 
-0.00186691 -0.0695587 -0.898505 
1.4011e-17 -7.27447e-18 1 

-0.122226 -0.0320841 -0.858241 
0.00409096 -0.010284 0.108686 
-1.70704e-17 -3.23965e-18 1 

-0.130335 -0.0435935 0.0181998 
0.0367306 -0.0192244 -0.0759035 
-3.47541e-18 -1.40038e-17 1 

-0.0852903 -0.224895 0.148189 
-0.00318969 -0.0493793 0.0881392 
9.75636e-19 1.59203e-17 1 

-0.0478011 0.0185834 0.0195237 
-0.0102181 -0.127295 -0.00834784 
-5.35589e-18 5.03714e-19 1 

-0.0776979 -0.0176971 -0.189351 
-0.0770935 -0.0655074 0.0318037 
1.46358e-17 5.04422e-18 1 

-0.0863056 0.241225 0.0725539 
0.0442658 0.0412206 0.0902532 
-2.3647e-19 4.82001e-18 1 

-0.0880813 -0.0570288 -0.256633 
0.0516475 0.0106813 0.0791577 
-4.75512e-19 -9.74801e-19 1 

-0.0903796 -0.0879631 -0.295178 
-0.0112443 -0.0465364 -0.0913739 
5.57917e-18 -1.62989e-17 1 

-0.114162 0.0319178 0.186752 
-0.00128457 -0.0253208 -0.600869 
-1.14016e-17 -4.54844e-18 1 

-0.0737477 0.00149504 -0.0451488 
0.00153033 0.0121002 -0.0708733 
1.54027e-18 2.33506e-17 1 

-0.116156 -0.00300325 -0.0139043 
0.00810791 0.000561379 0.11934 
-1.07559e-17 8.60474e-18 1 

-0.132278 0.0416557 -0.0891086 
0.0197205 -0.0981985 -0.0577543 
-7.55944e-18 -4.79517e-19 1 

-0.148132 -0.00424447 0.151615 
0.0686188 0.0538636 0.225022 
-3.84631e-18 -6.81301e-18 1 

-0.102755 -0.0048676 -0.584877 
-0.0309132 -0.0778521 -0.951639 
6.13779e-19 -4.50197e-18 1 

-0.13673 -0.0127026 0.055131 
-0.0270775 -0.0892209 0.0709434 
-1.51479e-17 -1.42569e-18 1 

-0.175899 0.0488991 -0.233665 
-0.0755704 -0.016787 0.301133 
1.48094e-17 1.70132e-17 1 

-0.0496351 -0.00293841 0.0451078 
-0.00885975 -0.080894 0.108741 
9.22034e-19 -1.14246e-17 1 

-0.0948771 -0.0132317 0.131422 
0.0136036 -0.0454541 0.204579 
-4.46792e-18 9.80592e-18 1 

-0.080099 -0.0261722 0.141635 
-0.035382 -0.0522991 -0.335736 
-9.00356e-18 8.71261e-18 1 

-0.0934735 -0.00302955 -0.522435 
-0.0150477 -0.047779 -0.173481 
1.18838e-18 -8.77571e-18 1 

-0.0574168 0.0318134 -0.0812208 
-0.0526876 -0.105386 -0.0761942 
9.6188e-19 1.25748e-17 1 

-0.188751 -0.232523 -0.557333 
0.135941 0.0237681 -0.309121 
-6.21576e-18 9.10681e-18 1 

-0.097813 0.0888829 -0.596183 
-0.0762403 -0.039691 0.223995 
4.41743e-19 -1.29652e-18 1 

-0.244129 -0.0544678 -0.116762 
0.103902 -0.0186011 0.472654 
-3.79022e-18 1.07806e-17 1 

-0.133534 0.0120023 0.300151 
0.0203585 -0.0230784 -0.0850482 
5.42862e-19 4.56004e-18 1 

-0.58256 0.0768339 0.49365 
-0.189539 0.227318 -0.123744 
-2.24439e-18 -3.23193e-18 1 

-0.0476299 -0.0433716 -0.029552 
0.0419468 -0.0183158 0.0985616 
1.67313e-17 -1.78335e-17 1 

-0.0393684 0.0318768 -0.16476 
-0.0227892 -0.0170593 0.00677714 
9.17658e-18 7.53354e-18 1 

-0.126838 -0.0732727 -0.149458 
0.0502627 -0.0247771 0.239102 
-5.84443e-18 -1.69105e-17 1 

-0.22187 -0.0877831 -0.106389 
0.116692 0.00545315 -0.286746 
8.33632e-19 1.45886e-18 1 

-0.224554 0.0775114 -0.462581 
-0.0753078 0.0696878 -0.103525 
-2.73386e-18 1.0114e-17 1 

-0.516582 1.63868 -0.0974917 
0.0146178 0.0242669 0.64818 
-4.54053e-18 7.37913e-17 1 

-0.0862538 0.00182041 0.0646483 
0.0527909 -0.0708451 -0.0596154 
1.24446e-17 -1.17788e-18 1 

-0.128877 0.0330889 -0.101828 
-0.00197176 -0.0446081 -0.0575727 
1.36289e-18 6.55891e-18 1 

-0.097207 0.0233521 0.262798 
0.00923355 -0.0808643 1.2115 
3.23786e-18 1.22042e-17 1 

-0.104501 -0.0111357 0.118339 
-0.0564255 -0.0248319 -0.011896 
-1.00482e-17 -1.1269e-18 1 

-0.0876214 -0.0164111 -0.0326004 
0.0382433 -0.0605452 0.223054 
8.40576e-18 -1.43711e-17 1 

-0.286327 -0.20911 -1.22858 
0.140976 0.0358493 1.08618 
-9.71783e-19 8.9573e-19 1 

-0.108335 -0.0394143 0.0626613 
-0.00137886 -0.0603188 -0.0399479 
-1.65241e-17 1.96716e-18 1 

-0.0873506 0.0257183 0.733497 
0.0158238 0.00291659 0.155285 
2.1986e-18 -2.98873e-18 1 

-0.108828 0.110257 -0.0998947 
0.000828851 0.100127 -0.338819 
2.30567e-18 -3.25616e-17 1 

-0.0971237 0.0274204 0.0306964 
-0.0267405 -0.0466676 -0.0894672 
4.0911e-18 -3.39601e-18 1 

-0.184529 0.0950782 -0.117872 
0.00874307 0.0154774 -0.0649986 
-6.9898e-18 2.22863e-18 1 

-0.200056 -0.117957 0.161343 
0.0471077 0.000555342 -0.435104 
-4.31855e-18 -3.90575e-18 1 

-0.0564549 0.0226305 0.0198036 
-0.049184 -0.0470505 -0.130175 
9.0152e-19 -9.34302e-18 1 

-0.0766834 -0.0137306 -1.02895 
0.00612659 -0.0382958 -0.0442325 
-5.2613e-18 1.81403e-18 1 

-0.131065 -0.00688746 -0.19538 
-0.0146109 -0.0128982 0.0275707 
-4.70396e-18 -4.69782e-18 1 

-0.0805634 0.00657496 -1.04894 
-0.0112181 -0.0474564 0.534139 
1.36969e-17 3.94657e-19 1 

-0.0805035 -0.0113803 0.0886056 
-0.000886733 -0.0396345 0.114235 
-1.27636e-17 -1.03967e-17 1 

-0.0862088 -0.0217482 -0.139689 
0.0106153 -0.0826486 0.650196 
6.17027e-18 1.71193e-18 1 

-0.0977359 0.00585654 0.188763 
0.0358125 -0.0510428 0.0407039 
-3.73728e-18 -2.90677e-18 1 

-0.372554 0.117794 0.383711 
-0.175485 0.0375399 0.127572 
-1.59588e-18 -4.81077e-18 1 

-0.0748831 -0.00917369 0.366107 
-0.0278037 -0.0280694 0.577482 
1.58257e-18 2.91664e-18 1 

-0.11191 0.0406413 0.0923271 
0.0221079 -0.099876 -0.0273205 
8.38619e-18 1.01651e-17 1 

-0.123479 0.0160582 -0.375726 
0.0158446 -0.0690013 -0.0652779 
-4.58098e-18 6.05872e-18 1 

-0.10127 0.0314819 1.3884 
0.0284715 -0.0439231 0.669537 
-1.52289e-18 7.64492e-18 1 

-0.0753068 0.0069488 0.772058 
0.00115151 -0.0473118 -3.06681 
-3.95849e-19 -1.97924e-19 1 

-0.0685622 0.0305818 -0.0232338 
-0.01434 -0.114836 -0.01391 
4.77653e-20 4.92513e-18 1 

-0.145232 -0.0178886 0.789404 
0.0329684 -0.00630513 0.319877 
1.1912e-18 7.62368e-20 1 

-0.118301 0.0203687 -0.000404062 
-0.0265395 -0.0427663 0.115468 
-2.83619e-18 -8.89532e-18 1 

-0.0783312 -0.0242566 0.799441 
0.00959836 -0.00159699 -0.904367 
5.33872e-18 1.062e-18 1 

-0.071343 0.00880306 -0.00475576 
-0.039736 -0.0182623 -0.0749948 
-4.09089e-19 9.62563e-19 1 

-0.0749631 0.0232541 -0.035327 
0.05025 -0.055416 -0.0561914 
-1.70214e-17 -5.50693e-18 1 

-0.135552 0.0349213 0.121627 
0.0339731 -0.0307044 -0.0651694 
-5.8098e-18 1.55645e-17 1 

-0.116569 0.0434478 -0.0112543 
0.00818778 0.00271644 0.185615 
1.56478e-17 9.73522e-18 1 

-0.172722 0.031932 -0.108932 
0.0350607 -0.116736 -0.136405 
8.65802e-18 -1.34363e-17 1 

-0.149981 0.0421254 0.021636 
-0.0551608 -0.0292679 0.15362 
-1.35486e-17 5.68558e-18 1 

-0.0673802 0.00961583 0.0295703 
-0.053373 -0.00678207 -0.198836 
-1.14297e-17 7.24505e-18 1 

-0.104378 0.0125262 0.0612006 
0.0117928 -0.0416137 0.107445 
5.24481e-18 7.11796e-18 1 

-0.0762053 -0.00392113 0.802096 
-0.0131892 -0.0605576 -0.69953 
-5.06712e-18 5.71919e-18 1 

-0.0822248 0.0374306 -0.225806 
-0.0193008 -0.12546 -0.0681709 
5.90389e-18 -1.76561e-17 1 

-0.0888175 -0.00597915 0.0337662 
0.0182537 -0.0372821 -0.0678602 
-5.21923e-18 -1.47341e-18 1 

-0.100565 0.024166 -0.0758336 
-0.019348 -0.0113133 -0.00631367 
-1.00688e-18 -1.42473e-17 1 

-0.067156 -0.0456471 0.0293858 
0.000405142 -0.0329252 -0.169058 
1.77504e-18 -7.03676e-18 1 

-0.0866748 0.0274888 0.0210397 
0.00373573 -0.0386554 -0.324966 
-4.55352e-18 3.41514e-18 1 

-0.0956115 -0.0098761 -0.203668 
0.0370006 0.0230583 0.0314582 
2.05629e-17 -9.16995e-18 1 

-0.177102 0.0651518 0.16954 
-0.0243871 0.0872624 -0.0105442 
-1.30346e-17 1.62515e-18 1 

-0.101315 0.0130638 -0.267054 
-0.0180536 -0.0297929 -0.0648139 
4.39544e-18 2.83577e-19 1 

-0.46528 0.566807 -2.59193 
-0.0810759 0.244046 -1.4367 
-1.25862e-17 2.40918e-17 1 

-0.111683 0.0146804 -0.335712 
-0.0360148 -0.000515915 -0.15253 
-7.73773e-18 6.92242e-19 1 

-0.0607902 0.0123605 -0.141021 
-0.0203162 -0.0209288 0.203585 
1.39519e-18 6.04583e-18 1 

-0.172022 0.00777666 0.0143485 
0.032308 0.00326201 0.142348 
-7.06204e-19 1.3512e-17 1 

-0.0878885 -0.015082 0.115208 
-0.000746228 -0.0495188 0.256415 
-4.57506e-18 -3.1055e-18 1 

-0.0974212 -0.0384193 -0.028429 
0.0232038 -0.054298 0.135701 
-3.70349e-18 9.92965e-19 1 

-0.0597619 -0.0439462 0.0171078 
-0.0148057 -0.0798036 -0.0682703 
-7.25558e-18 -4.37323e-18 1 

-0.126758 -0.035608 -0.0163953 
0.036418 -0.0438395 -0.105522 
1.615e-18 1.67457e-17 1 

-0.0690842 -0.041514 0.0884423 
0.0635519 -0.0228298 0.0552116 
-1.45924e-17 -8.23161e-18 1 

-0.0876051 -0.0307548 0.0956921 
-0.0102841 -0.0386294 -0.12859 
-2.23489e-18 -7.54605e-18 1 

-0.0537197 -0.0311641 -0.108221 
0.0316055 -0.0261099 0.0143314 
1.21733e-18 4.64488e-18 1 

-0.0645731 0.0171451 -0.190078 
-0.0273327 -0.0214551 -0.14083 
1.37591e-18 1.34916e-17 1 

-0.25826 -0.215323 0.782313 
-0.0728017 0.179743 -0.601119 
6.51051e-18 1.1993e-18 1 

-0.228951 0.029082 0.245549 
-0.054721 -0.0910958 0.0210251 
-7.27578e-18 -1.8366e-18 1 

-0.0676055 0.00772711 0.354932 
-0.0368011 -0.118508 -0.188196 
-1.55693e-17 1.27468e-18 1 

-0.0983815 0.0314717 -0.0882882 
-0.038554 -0.047438 -0.370048 
-2.29039e-18 3.15677e-18 1 

-0.0832148 0.0235715 0.172827 
-0.0510535 -0.0234243 0.0598442 
1.12338e-18 -4.57648e-18 1 

-0.0745416 -0.0426553 -0.0111033 
0.00506198 -0.0118376 0.0804014 
-1.17747e-17 1.00826e-17 1 

-0.157485 0.0361855 0.0283735 
0.00498954 -0.0427134 0.134814 
-1.55591e-17 -8.74106e-18 1 

-0.0932844 -0.0581927 0.609407 
0.0242605 -0.0525462 0.0382879 
-2.13172e-18 -2.87044e-18 1 

-0.0837671 -0.00629956 0.307682 
-0.000663532 -0.0222052 -0.147368 
2.33604e-18 7.57916e-18 1 

-0.0766866 -0.01871 0.0999235 
0.00189374 -0.0557098 0.0673246 
4.86654e-18 7.73085e-18 1 

-0.152212 -0.0243113 -0.700594 
-0.0105959 0.00441727 3.55778 
3.28462e-19 -4.93275e-18 1 

-0.125273 -0.0114491 1.17138 
0.038589 -0.0112134 -0.241476 
1.87887e-18 -4.20814e-18 1 

-0.100575 -0.0407208 0.241873 
0.00897424 -0.0359377 0.12513 
4.73664e-19 8.40162e-18 1 

-0.150034 0.13012 -1.41193 
0.0101813 0.2365 -1.19362 
3.24838e-20 -1.12881e-18 1 

-0.260758 0.299196 -3.205 
0.0162268 -0.05836 -1.16672 
-7.41296e-18 1.59887e-17 1 

-0.171212 0.000706831 1.25937 
-0.0405594 0.0120877 1.97878 
-1.23656e-18 1.63473e-18 1 

-0.109372 -0.0128228 0.0701967 
0.00235518 -0.0795506 0.0184391 
-9.49198e-18 -1.41803e-17 1 

-0.087062 -0.0498008 0.364727 
0.0239497 -0.0393511 -0.0132227 
2.74847e-18 9.51392e-19 1 

-0.170656 0.0606257 -1.05634 
-0.00164949 0.19135 -1.53749 
6.05432e-19 2.56552e-17 1 

-0.128447 -0.0406067 0.0424496 
0.0452129 -0.0575364 0.336676 
4.61353e-18 9.59912e-18 1 

-0.768423 0.0410962 -0.390136 
-0.0760018 0.167566 0.650641 
1.80072e-17 -7.29504e-18 1 

-0.090261 0.0210794 -0.0163845 
0.0247277 -0.0515332 0.0722486 
1.19984e-17 5.85607e-18 1 

-0.104804 -0.00431059 0.0313886 
-0.0082481 0.00438331 0.146911 
1.12164e-17 2.01271e-18 1 

-0.0413177 -0.0581272 -0.0122978 
0.00379424 -0.0955834 0.0946324 
4.45979e-18 6.41095e-19 1 

-0.0886329 0.00864733 -0.21652 
-0.0134972 -0.0869852 0.201474 
1.06535e-18 -8.75062e-18 1 

-0.057986 -0.00167641 -0.0115476 
-0.0129427 -0.0645549 -0.00303116 
-4.7366e-18 1.68949e-18 1 

-0.0553242 0.0029627 -0.15441 
0.0158438 -0.021232 -0.0573452 
5.32004e-18 3.63501e-18 1 

-0.0968785 0.0177057 0.398909 
0.00288314 -0.0492734 0.265809 
6.27638e-18 7.16584e-18 1 

-0.138179 -0.0237017 -0.235634 
-0.0128352 -0.0113898 0.230826 
2.32971e-18 5.19775e-19 1 

-0.0555514 0.0336493 -0.053736 
-0.0587074 -0.0288105 -0.0706058 
4.71499e-18 3.29046e-18 1 

-0.120024 -0.000690227 0.0886334 
-0.0441665 -0.0792261 0.114548 
3.44463e-18 -1.22476e-17 1 

-0.235845 -0.0292913 0.27295 
0.151725 0.0420152 0.105831 
-2.76804e-18 -7.05588e-18 1 

-0.0978263 -0.0229728 0.0385854 
-0.00662441 -0.048453 -0.165366 
-1.41076e-17 1.53997e-17 1 

-0.143767 -0.0405006 0.242825 
-0.0126787 0.0284198 -0.0369663 
9.8445e-20 3.9378e-18 1 

-0.117051 0.0739483 -0.0429271 
-0.0321044 -0.0837717 -0.050906 
-4.69273e-18 4.58274e-18 1 

-0.0624733 -0.0175488 -0.0607597 
-0.0418998 -0.053115 -0.102039 
-6.20332e-18 -2.79586e-18 1 

-0.10805 0.00625597 -0.0265644 
-0.0525174 -0.124773 0.172197 
9.59879e-18 2.41859e-18 1 

-0.0621063 -0.00744179 -0.0520399 
-0.0353594 -0.0587731 0.0836808 
3.2756e-18 -2.45939e-18 1 

-0.0812833 0.00626174 -0.193621 
0.017163 -0.0661392 0.913211 
-2.93559e-18 -1.20269e-17 1 

-0.183438 -0.048508 0.00917926 
0.119768 0.0354063 -0.238282 
1.95334e-18 2.53407e-18 1 

-0.110684 -0.00723687 0.114053 
-0.0614048 -0.0528944 0.133292 
1.12183e-17 -2.86979e-18 1 

-0.128976 -0.0115221 0.280852 
-0.0202961 -0.0250368 -0.125699 
3.15088e-18 -5.13476e-18 1 

-0.238611 -0.142627 0.182035 
0.169382 0.109599 0.00918986 
9.20047e-19 -1.28379e-18 1 

-0.0923857 0.0106196 -0.508249 
-0.00430037 -0.0635702 -0.159279 
6.82258e-19 -3.08116e-19 1 

-0.187469 -0.112455 0.658763 
0.211017 0.0409883 -0.364818 
4.23818e-19 3.89912e-18 1 

-0.114463 -0.00348146 -0.00344153 
0.019444 -0.0439014 0.0656775 
-2.31844e-18 -3.09125e-18 1 

-0.0875896 -0.0768202 -0.179588 
0.0320843 -0.0628889 -0.0531561 
-4.65337e-19 6.50017e-18 1 

-0.181419 -0.0198299 0.481283 
0.0142683 -0.0551051 -0.0383372 
-6.73346e-18 4.78824e-19 1 

-0.270801 -0.0832688 0.612637 
-0.011313 0.102616 0.0182281 
-7.17511e-18 1.88117e-17 1 

-0.206336 0.0579227 -0.699404 
-0.0304756 -0.0357024 0.220146 
6.66258e-18 -7.86235e-18 1 

-0.117543 0.0121407 0.0845142 
-0.0197376 0.0206606 -0.209312 
-6.71637e-19 4.12767e-18 1 

-0.0943455 0.0821182 0.0304747 
-0.0778205 -0.057796 -0.193736 
-6.79374e-18 -1.087e-17 1 

-0.0529269 0.00330577 -0.142084 
-0.0189945 0.0483823 -0.193758 
7.37118e-18 7.16854e-18 1 

-0.0910049 -0.0421174 -0.0784953 
-0.0490536 -0.0665051 0.290062 
-9.8021e-18 -1.04429e-18 1 

-0.115108 0.064996 -0.273289 
-0.0107564 0.0141453 -0.271778 
-6.85321e-18 3.49009e-18 1 

-0.180041 -0.0859727 0.0196605 
0.0202017 0.0432405 -0.306075 
7.8277e-18 -1.81016e-17 1 

-0.113613 0.00606124 0.263833 
-0.00319 -0.0152757 -0.00162373 
1.35021e-18 5.89829e-18 1 

-0.390761 -0.222069 0.0140664 
0.110315 0.21829 0.147705 
-4.52146e-18 -4.05602e-18 1 

-0.283659 -0.130326 -0.324694 
-0.0347069 0.0453778 0.0349202 
4.85231e-18 -1.27688e-17 1 

-0.106664 0.0206865 0.0609711 
0.0438639 -0.0548791 0.0283043 
-9.6367e-18 9.70094e-18 1 

-0.0779019 -0.00207361 -0.101244 
-0.0334151 -0.0549549 -0.167631 
-1.62882e-18 -7.27553e-18 1 

-0.0679154 -0.0197601 0.0670416 
0.0180689 -0.0445196 0.570768 
5.17079e-18 -1.66787e-17 1 

-0.0678737 0.0225791 -0.131362 
0.0139062 -0.0147368 0.200521 
1.09066e-17 5.90237e-18 1 

-0.250591 -0.2172 -0.416475 
0.230486 0.0167653 0.400665 
-9.85795e-18 1.02371e-17 1 

-0.154559 0.0943439 -0.432986 
-0.0810505 0.0490913 0.0334514 
-1.0051e-17 -1.86661e-18 1 

-0.063883 0.0320444 0.178459 
-0.0500141 -0.045907 0.133911 
1.13933e-17 -7.9225e-19 1 

-0.116886 -0.0196014 0.024713 
0.0301747 -0.0429413 -0.5779 
3.30602e-18 -3.21544e-18 1 

-0.0745022 0.0128361 0.214149 
0.0728614 -0.0581345 0.354016 
-2.40426e-18 -4.44967e-18 1 

-0.0751762 -0.00518396 -1.06531 
-0.0149804 -0.0367584 -0.795169 
-3.50551e-18 6.85675e-20 1 

-0.125712 0.0360912 0.177417 
-0.00498132 -0.0306885 -0.0143379 
6.88518e-19 3.87059e-18 1 

-0.073803 -0.0336573 -0.254666 
0.014695 -0.0387119 0.0437036 