# vtk DataFile Version 3.0
Output file generated by Yade's KinematicLocalisationAnalyser
ASCII
DATASET UNSTRUCTURED_GRID

POINTS 13483 float
558.427 43.0019 -0.421678
683.343 75.2257 -0.0327792
117.968 6.15822 -0.459815
711.871 21.527 -0.265314
479.629 8.59769 0.425062
310.706 37.9673 -0.477801
154.187 7.08887 -0.452501
540.162 10.9584 0.113574
476.595 28.7057 0.165235
649.575 20.0314 0.378395
207.731 9.01815 -0.0864385
253.731 6.29158 0.306638
597.863 48.1933 -0.134463
583.98 29.4815 0.0824018
134.648 17.7532 -0.486959
217.59 35.8046 0.392317
214.947 13.2034 -0.272391
285.423 9.92341 0.397277
335.647 35.5079 0.420491
499.57 9.7344 0.411225
401.324 40.1275 -0.0972026
539.427 60.7698 0.280715
709.785 54.6784 -0.435986
630.535 66.5664 0.473058
445.133 21.1296 0.344199
238.31 45.0123 -0.130047
471.367 33.5221 -0.475741
552.16 23.1236 0.255617
43.9512 17.1859 -0.554315
646.276 51.354 0.350934
464.062 6.10061 0.445834
15.7917 24.7045 0.302234
691.293 70.8051 -0.250834
475.663 2.44777 0.529915
78.0294 46.4113 -0.10029
495.909 35.7135 0.344216
506.64 18.7906 -0.461802
338.351 23.492 -0.179744
508.269 30.1114 0.329422
344.015 37.5609 -0.407472
237.964 14.6491 -0.320972
422.344 38.7855 -0.0791931
616.017 9.76264 0.15061
190.014 6.22191 0.357839
53.3408 7.21002 -0.0959354
66.4023 9.02308 -0.263082
627.995 10.229 -0.605599
22.757 11.9725 -0.304599
559.993 65.3826 -0.339143
614.23 32.8717 -0.361853
169.48 33.1579 0.281173
677.766 49.7882 0.120889
33.4236 29.189 -0.119788
507.849 4.11623 0.450176
139.842 7.16931 0.477453
546.403 50.2387 0.385193
482.68 31.2025 0.12731
172.707 0.956236 -0.277658
32.0075 2.37142 -0.337351
343.108 18.9046 0.260868
566.975 62.1862 -0.139631
445.467 40.2948 0.176508
390.225 1.04144 0.204952
634.695 8.30326 -0.596365
25.9723 45.3751 0.236257
254.157 31.234 0.295205
649.297 15.4745 0.262975
612.117 68.2097 -0.343854
407.955 9.32837 -0.632874
541.112 4.08839 -0.665812
669.046 40.9133 -0.397665
128.777 7.77838 -0.292847
478.186 31.993 -0.1267
460.475 17.8626 -0.101885
292.273 17.3677 -0.344882
19.9622 13.76 -0.239704
694.308 54.2385 0.321182
328.891 42.863 -0.278782
613.168 29.2663 0.326428
628.468 19.5451 -0.222238
710.576 13.5408 0.251622
448.912 41.2947 0.164661
92 38.9414 -0.264887
623.562 52.6516 -0.236178
595.601 59.8749 0.0958447
715.224 61.0447 -0.118962
708.025 0.785172 0.542033
289.09 28.8683 -0.468265
585.09 10.9431 0.122745
23.6951 5.66957 0.496777
131.19 40.3096 -0.138365
491.547 16.3266 0.181541
692.087 39.9349 0.600449
193.559 30.4518 -0.230955
43.3475 37.0758 -0.2677
474.96 1.06381 0.203565
233.455 8.70856 -0.445673
666.29 65.8029 0.240957
685.421 36.2574 -0.271852
355.047 23.9237 0.281612
162.582 27.3224 -0.446719
516.034 51.6033 0.391961
371.605 17.4053 -0.499807
403.618 32.8071 -0.0990578
371.387 5.0741 0.571374
522.116 10.8409 0.129674
717.054 28.2239 -0.14404
79.7574 40.8106 0.387929
330.888 5.09266 -0.178893
534.253 9.22705 -0.447943
356.724 48.5577 -0.44158
24.0317 25.7404 0.480935
30.0182 5.9429 -0.297314
533.703 37.4098 0.448592
483.938 27.4917 0.149935
25.173 38.7013 -0.409411
92.2429 31.2919 -0.214002
321.559 16.8715 -0.331514
563.122 25.5084 -0.132718
461.092 46.0059 0.290695
659.726 7.59439 0.559949
652.568 8.43222 0.250744
382.758 41.266 -0.0984373
585.667 44.9335 -0.107443
236.521 17.504 -0.51309
326.716 4.00649 0.472773
103.005 32.3342 -0.298962
114.95 24.6834 0.290578
514.829 48.343 -0.07756
303.955 20.4917 0.502875
642.912 56.6631 0.112491
616.794 65.3018 0.106458
465.617 22.931 -0.394052
695.634 14.7237 -0.335853
419.359 25.7003 0.217668
276.476 24.6104 -0.306271
614.579 46.2723 0.297708
278.081 30.0507 0.409294
549.196 12.4987 0.260809
330.307 41.4543 0.190146
486.5 13.3582 0.454267
362.37 34.9587 0.0886824
421.926 18.7461 -0.112939
317.757 44.6885 0.439681
189.677 32.2651 0.113311
686.934 78.5192 -0.154842
712.92 31.1896 0.247714
6.71116 12.8023 -0.426076
425.689 24.8745 -0.388948
37.1021 23.6091 0.0858918
372.033 34.479 -0.492949
390.161 26.6725 -0.28897
73.4496 11.8134 -0.492259
51.3296 35.0894 -0.446598
225.235 13.7398 0.439069
572.923 58.1343 0.385043
548.644 24.883 -0.519186
73.7864 20.9452 -0.493995
632.173 64.7885 0.180919
683.285 2.37489 0.573971
603.312 69.8749 0.46003
632.602 2.18129 0.536674
524 33.3212 -0.42864
539.6 62.6095 0.440637
493.728 20.244 -0.397397
719.633 10.4486 -0.316315
223.117 27.0962 -0.115512
126.152 36.969 -0.195331
246.704 6.73044 0.416602
93.3034 4.44416 0.281261
62.6797 10.3216 -0.180633
276.685 37.1771 -0.301085
16.6427 26.2556 -0.357209
528.892 25.1543 0.468719
555.12 62.8965 -0.186491
452.542 28.6562 -0.340768
703.998 66.1366 -0.343747
401.403 8.87418 -0.114791
428.364 42.2042 -0.370913
514.826 3.4752 -0.254609
22.3963 22.9322 -0.410768
552.169 5.66312 0.405165
524.014 4.28267 -0.309605
205.886 11.3641 -0.517975
419.163 16.7777 -0.219641
310.331 6.52948 0.345714
383.517 20.531 -0.338262
662.276 70.3109 0.108353
193.013 27.2727 -0.421537
700.345 6.98246 -0.418676
660.808 62.4247 0.312256
379.557 11.2213 0.200013
647.167 5.2355 0.698632
561.966 39.5947 -0.438754
667.165 23.7725 0.378886
420.957 49.647 -0.127822
481.664 14.4376 0.385705
452.492 51.3336 -0.222681
439.202 10.5464 -0.177785
608.325 63.6748 0.256658
607.902 57.7663 -0.290457
190.571 41.3449 0.330845
708.546 14.1463 0.0924698
539.271 64.2891 -0.24166
10.7664 18.5456 0.189078
401.396 27.1781 0.350612
187.695 25.4572 -0.388808
94.5514 39.7934 0.200741
690.985 36.4144 -0.42064
601.419 72.588 0.222044
319.463 27.5881 0.365625
511.752 10.2668 0.3548
83.2045 45.5762 0.169645
247.707 26.9888 0.46523
531.718 29.0315 0.340874
473.33 24.7274 0.458532
263.237 0.889748 -0.346421
524.208 52.7011 -0.353209
507.796 52.6014 -0.436772
469.516 46.5402 0.383234
484.669 2.29388 -0.629576
639.429 29.8682 0.379028
179.049 13.6745 0.187346
486.667 40.7454 -0.437346
526.417 55.8085 -0.10682
71.6963 0.924957 -0.276644
251.965 4.70217 0.194036
712.138 33.098 -0.181728
709.491 17.8085 -0.46027
718.343 36.4194 0.459915
302.991 8.29813 -0.413685
669.714 28.8136 0.461874
406.148 47.7258 0.324575
442.045 1.0649 0.647356
601.707 56.671 0.470704
26.6463 32.3365 0.313729
331.794 48.9437 -0.464053
252.875 2.85472 0.313939
693.275 65.7451 -0.197421
643.035 73.2664 -0.259645
287.946 11.4904 0.197818
611.067 48.4671 -0.0999503
536.444 2.59299 0.269772
521.892 6.48085 0.457286
96.6145 18.7344 -0.560975
303.058 1.04372 -0.264957
341.803 2.30809 -0.342856
13.6449 7.33398 0.584232
4.64914 33.1695 0.236993
162.206 19.3601 -0.36222
68.4475 44.6138 -0.209036
65.7211 29.7456 -0.305261
419.404 14.9478 -0.433833
365.848 38.3504 -0.472687
675.681 50.6504 -0.120935
19.2655 4.11636 0.283468
69.5098 7.02733 0.141728
577.519 57.9552 -0.135086
294.553 0.874987 0.391841
361.669 16.7383 -0.083138
236.232 4.71657 -0.423138
603.065 35.232 0.181713
444.814 9.87386 0.433855
671.113 23.7259 0.484843
583.444 48.5214 -0.294941
615.38 26.4857 -0.107485
415.057 28.5403 0.486881
102.126 47.0403 -0.302416
511.456 56.6367 -0.0677116
664.446 18.4504 0.203226
237.969 31.7322 0.241613
31.556 17.5976 0.186576
335.773 14.2645 0.504446
108.105 42.7766 -0.462056
269.888 42.7918 -0.204294
421.13 1.35055 -0.265649
692.108 50.3131 -0.404273
625.612 2.11195 0.728092
331.474 3.53598 0.56814
300.98 29.0355 -0.13744
452.35 47.9855 -0.20639
80.9591 7.9859 -0.313423
197.729 47.4506 0.377465
688.027 43.9198 0.382112
482.72 46.7859 -0.0696685
199.66 43.4082 0.252215
160.43 43.4482 -0.402805
719.122 54.6846 0.417329
715.762 26.9438 0.442628
580.466 4.81935 -0.652083
191.171 27.2516 0.0880032
524.749 36.1343 0.114761
526.433 34.9328 0.279463
405.927 5.96003 -0.140891
470.719 0.933913 -0.359268
675.395 53.9377 0.494848
84.5564 31.5303 -0.212465
605.727 27.7233 0.508837
275.431 16.298 -0.384561
9.32216 2.32883 -0.394684
126.428 39.0957 -0.18783
66.7534 24.3865 -0.472982
638.659 53.502 0.321803
699.195 78.3122 0.161585
186.018 30.3398 0.180206
708.647 27.8157 0.334457
44.5287 38.7119 -0.246935
90.8542 29.7448 0.160538
590.376 28.9857 0.429903
410.487 18.0494 -0.561777
503.323 19.4038 0.124746
238.468 29.809 -0.192224
586.322 14.953 0.544951
718.65 26.9993 -0.346747
29.8041 33.9773 -0.260438
271.175 7.80463 0.208976
222.951 15.8005 -0.248049
1.10032 37.7278 0.145692
226.295 14.5994 -0.408305
212.431 11.3558 -0.129613
214.802 26.7614 0.294649
131.821 29.6315 0.115633
527.293 15.82 0.414393
167.691 14.423 0.350958
688.151 69.7471 0.213588
174.7 3.84521 0.509145
47.3366 39.6113 -0.346045
669.072 79.1176 -0.428775
283.604 32.0298 0.377805
619.228 34.3248 0.472105
699.035 50.9278 -0.481412
301.504 9.49906 0.146066
660.289 47.5642 0.343013
328.646 2.40579 -0.494087
411.72 25.7872 0.369905
618.798 21.9731 0.484094
105.462 12.0779 0.437861
472.301 4.12921 -0.417765
674.237 22.9222 -0.217536
87.9019 7.72142 -0.239908
283.154 15.078 0.205484
420.64 12.602 -0.221398
720.417 8.83805 -0.530018
395.048 2.01533 -0.542661
176.017 40.7011 0.266395
666.731 10.4363 0.366376
128.962 38.7514 -0.190982
264.212 32.3969 -0.384586
397.172 22.0993 0.211124
551.663 15.5798 -0.362815
383.368 9.19305 0.50605
447.927 34.3931 -0.438979
683.385 76.7951 0.0594834
46.3382 11.8122 -0.0957681
300.267 41.0908 -0.255075
377.344 28.4274 -0.390515
406.47 21.1107 0.275713
501.449 53.9859 -0.364764
670.998 54.9429 -0.200794
612.504 57.8575 -0.340593
226.44 35.5472 0.406309
12.6466 33.3557 -0.148494
606.455 60.8793 0.122442
491.627 54.0236 -0.443622
230.603 40.3527 0.0922874
625.302 44.7857 0.112423
151.486 9.65213 0.220355
363.796 23.4262 0.288532
453.772 49.552 -0.101674
410.491 19.7356 0.2028
680.699 72.5749 0.295851
422.653 3.32408 0.519224
49.3152 27.2152 -0.303354
461.817 38.9356 0.326745
426.982 48.7826 0.354256
688.726 60.0847 -0.243672
656.6 50.4844 -0.233325
523.1 20.0625 -0.177976
683.356 60.4622 -0.452251
294.222 2.05711 -0.516488
377.9 31.4914 -0.455085
28.2745 40.8303 -0.298618
661.981 46.5032 -0.137899
570.664 31.1199 -0.528425
454.366 0.733393 -0.559542
126.133 4.65359 -0.300091
421.454 44.523 -0.0955892
11.6895 0.910336 0.324232
718.393 8.64038 -0.160927
371.933 42.425 0.395051
[...]
POINT_DATA 13483
TENSORS Strain_matrix float
-0.445712 -0.156618 -2.42513 
-0.173965 0.289629 1.82574 
-6.63805e-19 9.36853e-18 1 

-1.42382 -0.432734 -4.93348 
1.02288 1.01784 -1.55548 
9.11968e-18 1.43318e-18 1 

-0.114245 -0.0430438 1.11487 
0.0173436 -0.0440437 0.447752 
-2.0142e-18 -2.26952e-18 1 

-3.14711 -2.10397 -6.6177 
1.38633 1.72717 2.46334 
3.46274e-18 8.62536e-18 1 

-0.678429 -0.299862 -0.43964 
0.120414 0.305027 -0.186059 
-6.57299e-18 -1.11368e-17 1 

-0.123202 -0.0215891 -1.05689 
-0.0149768 -0.0240468 -2.81419 
1.86433e-18 7.14943e-18 1 

-0.11852 0.00328257 -0.108013 
-0.0239521 -0.0557839 1.33241 
6.19291e-18 -8.74524e-18 1 

-0.137495 -0.366535 -0.564435 
0.121733 -0.05693 -0.482386 
1.02551e-17 2.09289e-18 1 

-0.421346 0.0660355 0.33354 
-0.229072 0.154967 0.605688 
-5.28816e-18 -5.02108e-18 1 

-0.492431 -0.0327098 -0.701157 
0.0536202 -0.0484562 1.12483 
1.86721e-17 8.80608e-18 1 

-0.0763706 -0.0447869 0.0392558 
0.0593516 -0.0559863 0.062669 
1.25483e-17 3.70624e-18 1 

-0.108088 0.0333993 -0.0252918 
-0.113037 -0.0752624 -0.257846 
6.63644e-18 0 1 

0.117178 0.199349 -0.135739 
-0.405177 -0.13123 -0.295072 
4.40996e-18 -6.13149e-18 1 

-1.57972 0.0982839 0.5808 
0.268836 0.683798 0.541119 
-1.06077e-17 -1.86616e-18 1 

-0.183953 -0.0589808 -0.635865 
0.0460343 0.0319587 0.247575 
-4.24036e-18 1.06661e-17 1 

-0.0634959 0.0793673 -0.12844 
-0.0411262 0.0408801 -0.179933 
7.20933e-19 8.41088e-19 1 

-0.0746489 -0.0682946 0.319929 
0.0485789 -0.0819789 -0.0455283 
-3.70671e-18 3.52673e-18 1 

-0.182998 -0.00657325 0.081589 
0.085043 -0.0356332 -0.103653 
5.99562e-18 1.21816e-17 1 

-0.344784 -0.340158 1.14742 
0.0844094 0.136036 -0.814405 
4.24033e-18 1.67883e-17 1 

-0.395542 0.0515588 -0.92226 
0.313502 0.113816 0.23156 
-7.50405e-18 -1.28118e-18 1 

-0.409619 0.0248006 0.0785611 
-0.0530264 0.3166 -0.00587053 
-2.62575e-18 1.11019e-17 1 

-2.36246 -0.289171 9.22903 
0.611882 0.994259 0.471688 
3.79529e-18 -7.0876e-19 1 

-0.398351 -0.013779 2.7626 
-0.225057 0.248943 1.47098 
7.01158e-19 1.08122e-17 1 

-1.04441 0.683267 35.6927 
-0.199755 0.659048 0.0102925 
-2.87872e-18 -3.37486e-18 1 

-0.162468 -0.167646 -2.04922 
0.537023 0.253269 0.713 
6.80591e-18 -4.25369e-19 1 

-0.201796 0.0890952 -0.0380093 
-0.0806577 0.0709603 0.0422056 
4.10198e-18 -5.6027e-18 1 

-0.469139 0.0993254 -10.0822 
0.00430584 0.265032 -3.05929 
-2.48927e-18 7.43393e-18 1 

-0.588427 -0.205075 0.0997029 
-0.378857 0.136335 1.14689 
-5.99511e-18 -2.51647e-18 1 

-0.188119 0.066408 1.10887 
0.0539292 -0.00957825 -1.56462 
-3.1822e-19 5.18554e-18 1 

-1.25503 -0.757262 -0.981551 
0.298861 0.692752 -1.1464 
-2.80527e-18 -5.87771e-18 1 

-0.254999 0.0785345 0.393207 
-0.131168 -0.237258 -0.301272 
-2.62883e-19 7.0102e-18 1 

-0.0363834 0.329509 -0.163468 
-0.251707 -0.13106 -0.0798617 
8.24931e-18 -3.34508e-18 1 

-0.142854 0.765157 -1.88324 
-0.36013 -0.0201573 -0.16796 
5.86665e-18 -1.04584e-17 1 

-0.420749 0.0321669 -0.431751 
-0.0508735 0.323798 -1.41511 
1.42924e-17 1.41805e-17 1 

-0.0711158 0.0871014 0.14085 
0.0177384 -0.00524049 0.112311 
-2.88459e-18 -1.95134e-18 1 

-0.238715 -0.276885 -0.56438 
0.0522859 0.0848269 -0.196324 
9.50905e-19 1.28251e-17 1 

-0.226084 0.0494038 -0.113903 
0.0963562 0.0825223 1.15728 
-9.79714e-19 1.53271e-18 1 

-0.0303778 0.0153187 -0.169793 
0.12858 -0.147476 -0.591696 
6.48408e-18 -2.2885e-18 1 

-0.145395 -0.180918 0.864135 
0.296016 0.16202 0.792844 
8.19094e-18 2.43778e-18 1 

-0.248328 -0.0781068 0.0296543 
0.305127 0.0718287 2.56524 
-5.30405e-18 -1.85978e-18 1 

-0.133319 0.0124585 -0.13083 
-0.138152 -0.0287431 0.0515102 
1.65543e-17 -5.59515e-18 1 

0.0104456 -0.560471 -0.332964 
0.214602 -0.0483904 -1.10106 
4.22409e-18 -2.50506e-18 1 

-0.383397 -0.635291 -0.747285 
0.431737 0.238686 -0.197108 
-1.5543e-18 -2.07672e-17 1 

-0.142207 -0.0214091 -0.10986 
-0.0118352 -0.0849706 -0.0730551 
7.17706e-18 -2.89791e-17 1 

-0.154225 0.0693114 -0.0175553 
-0.108516 -0.0313521 -0.0724335 
-1.16317e-17 -7.3497e-18 1 

-0.0648414 0.0360933 0.0280148 
-0.0312357 -0.0674399 0.0152776 
9.66903e-19 1.68041e-18 1 

-0.996584 -0.0924632 -1.53871 
-0.0137899 0.272717 0.768264 
1.15293e-17 6.1336e-18 1 

-0.0710627 -0.0157414 -0.12223 
0.0316777 -0.11499 -0.0226762 
1.36597e-17 4.33786e-18 1 

-0.64523 -0.611572 -0.921638 
-0.506855 0.513652 -2.73193 
1.365e-18 -1.06167e-17 1 

-1.18365 0.229697 -9.97728 
-0.112019 0.359457 1.50362 
-5.70033e-18 -9.86004e-18 1 

-0.244402 -0.165307 -0.0520863 
0.269117 0.166279 -0.281109 
4.31446e-18 -5.75261e-18 1 

-0.942026 -0.159002 4.85636 
-0.0955306 0.360158 -0.442442 
1.27308e-17 6.79331e-18 1 

-0.138616 0.0535482 0.0557837 
-0.0405013 0.0526066 -0.372659 
-7.52774e-18 3.83966e-18 1 

-0.718485 0.16754 0.932015 
-0.160738 0.145268 -0.768231 
-5.50621e-18 1.79738e-17 1 

-0.162986 -0.0127043 -0.282436 
-0.06912 -0.184091 -0.352047 
1.17987e-17 -1.39471e-17 1 

-1.43452 -0.245943 2.16404 
-0.138608 0.492545 -0.515565 
2.98905e-18 -6.2272e-20 1 

-0.313285 0.615957 -0.520913 
-0.209246 0.195218 0.0881227 
3.07003e-18 7.571e-18 1 

-0.111228 0.209796 0.427137 
-0.00522673 -0.0576578 0.0582488 
-3.49631e-18 3.67265e-18 1 

-0.0967146 0.0405211 -0.151755 
-0.0473373 -0.101266 -0.0623785 
-8.88302e-20 -8.8969e-19 1 

-0.105538 -0.055585 -0.465659 
-0.117875 -0.0234024 0.0748226 
-1.19995e-17 3.35756e-18 1 

-0.0179242 -1.78928 4.34883 
0.420288 1.14675 -1.1656 
1.27809e-18 -1.47436e-17 1 

-0.298961 0.0705633 -1.03537 
-0.0491865 0.233237 -0.991451 
2.31886e-18 -3.7245e-18 1 

-0.123593 -0.214802 0.311883 
-0.0367492 -0.0469195 -0.207117 
2.0288e-17 5.31057e-18 1 

-0.505737 -0.10446 1.23446 
0.0895044 0.0701724 1.0314 
7.1869e-19 1.52579e-18 1 

-0.28282 0.0737164 0.0828972 
-0.0288769 0.0402727 1.07303 
3.4747e-18 -4.41444e-18 1 

-0.130048 0.159721 0.32528 
-0.0604917 0.0298306 0.329682 
6.76086e-18 5.37326e-18 1 

-0.327491 0.149357 -0.259691 
-0.0895512 -0.133164 0.118654 
-3.50824e-18 4.60784e-18 1 

-0.138689 0.382931 -3.13311 
-0.448249 0.225844 -0.838755 
-1.22194e-17 4.61363e-18 1 

-0.199274 -0.121673 17.4114 
-0.0142786 0.105909 -21.8892 
-6.12925e-18 1.79577e-18 1 

-0.352008 0.0461992 0.162904 
-0.0675376 -0.076226 -1.0119 
1.99826e-18 4.45247e-18 1 

-2.05027 -0.0734123 1.09921 
-0.246237 0.564246 0.973188 
8.22831e-18 -7.75429e-18 1 

-0.0903163 0.0551864 0.135541 
-0.0283799 -0.0559419 -0.108236 
-3.49418e-18 -5.73358e-18 1 

-0.682866 -0.0407464 0.709374 
0.17622 0.298222 0.576726 
-1.96715e-17 3.98228e-18 1 

-0.117443 -0.329343 -0.635218 
-0.0926907 0.059108 0.38228 
-1.97631e-17 -5.45962e-18 1 

-0.0771625 0.0509897 -0.182785 
-0.0286268 -0.048671 0.277729 
3.34712e-18 -2.12256e-18 1 

-0.0452348 0.0122386 -0.0988062 
-0.0631253 -0.0968198 -0.0460752 
-1.25063e-17 2.87227e-18 1 

-0.485799 -0.148311 -1.99027 
0.160533 0.395819 0.807387 
-3.59453e-18 -1.08264e-17 1 

-0.338608 0.291263 -0.461063 
0.421269 0.12008 -0.953704 
5.32687e-18 8.6796e-18 1 

-0.969614 -0.361114 -0.322467 
-0.069719 0.566208 0.0957464 
1.09806e-17 7.78154e-19 1 

-0.743431 0.118143 -0.6828 
-0.292837 0.342718 0.167564 
1.1418e-17 -6.23275e-18 1 

-1.21792 -1.37232 -4.79458 
0.431762 0.584218 1.45905 
3.40893e-19 -1.0704e-17 1 

-0.150081 -0.120494 0.0553942 
0.0685998 0.108803 -0.0787644 
-1.86961e-18 -7.12789e-18 1 

0.0272122 0.186803 0.217295 
-0.0858579 -0.0544407 0.273749 
1.06185e-17 4.69099e-18 1 

-1.76676 -0.741022 0.65453 
0.185824 0.534144 0.321871 
1.52404e-17 3.75719e-18 1 

-0.153867 -0.0940484 -1.09716 
-0.201133 0.0172973 0.399299 
8.39885e-18 5.0028e-18 1 

-0.622091 -0.0295723 -2.85066 
0.0942584 0.449686 -0.922156 
2.1002e-18 -6.98136e-18 1 

-0.582449 1.66867 -1.95433 
0.104021 0.25171 0.497275 
5.37867e-18 8.2715e-18 1 

-0.25491 -0.129498 -0.393745 
0.117209 0.0844829 -2.80842 
-2.33495e-18 -4.10195e-18 1 

-1.6351 -0.448701 0.976356 
0.83893 0.776524 -0.714045 
8.33857e-18 2.39234e-18 1 

-0.171797 -0.0171803 -0.433933 
-0.0119133 -0.0508096 -1.08347 
-1.06909e-17 -5.90044e-18 1 

-0.172318 -0.0892878 0.428429 
-0.0967598 0.105321 0.0549323 
1.21385e-17 8.01602e-18 1 

-0.18848 0.302344 -0.287862 
-0.255852 0.0774921 -0.112167 
5.37957e-18 5.89541e-19 1 

-1.1934 -0.915229 -1.25571 
0.289295 0.493087 -1.39019 
2.04035e-18 -1.53399e-18 1 

-0.161223 -0.0930183 -0.692634 
-0.211157 -0.00694545 0.0448688 
2.2318e-18 -6.75571e-18 1 

-0.0952626 0.0827003 -1.76709 
0.110344 0.0424071 1.38328 
-3.37622e-18 -8.44056e-20 1 

-0.446411 0.113065 -0.00123167 
-0.003087 -0.123289 -0.268043 
8.09059e-18 -2.48918e-17 1 

-0.196669 0.0183265 -0.0163259 
0.0312806 -0.00544627 0.0474391 
1.2625e-17 2.06637e-18 1 

-2.25628 0.445692 0.0937628 
0.282942 0.572678 0.571625 
-7.15528e-18 1.64507e-18 1 

-1.45978 -0.461456 2.37478 
-0.00770599 0.451197 0.0280952 
6.40907e-18 -1.42014e-18 1 

-0.143901 -0.072556 0.0445038 
0.0646467 -0.00127055 -0.210706 
4.49536e-18 0 1 

-0.0641466 -0.0766609 0.143372 
0.0256037 0.00357889 0.328723 
-3.94813e-18 -5.28541e-18 1 

-0.324419 -0.808442 3.50347 
0.262774 0.359597 -1.79039 
2.39149e-18 -6.3773e-18 1 

-0.358292 -0.0661362 0.879161 
0.0418716 0.0851363 -0.149715 
-5.64465e-18 9.01417e-18 1 

-0.342776 0.0535317 0.0323467 
-0.354761 0.201001 0.71498 
6.95412e-18 -1.24254e-17 1 

-0.274354 0.0743177 -3.16864 
-0.0413272 -0.0491566 -3.56916 
-1.70148e-17 3.05249e-18 1 

-0.613875 -0.294049 -0.740868 
-0.0724784 0.183607 -0.468258 
2.2018e-18 1.74435e-17 1 

-0.737697 -0.5983 0.200028 
0.204547 0.434522 0.392657 
1.11844e-17 -7.37153e-18 1 

-0.0865645 0.207153 1.23206 
-0.23258 0.0486761 -0.0728699 
2.87563e-20 1.97186e-19 1 

-0.190917 0.0193025 0.0578371 
0.0861409 -0.0861982 -0.124034 
-9.73939e-18 -1.10016e-18 1 

-0.324992 -0.104613 -1.56681 
0.03615 0.125415 -1.06846 
-1.06312e-17 2.49125e-19 1 

-0.169556 0.0226739 4.20457 
0.04856 0.110305 -1.01878 
3.97235e-18 4.6688e-18 1 

-0.222828 0.0749338 2.77071 
0.10388 0.0917059 -5.38683 
-7.08001e-18 -2.05999e-18 1 

-0.0973526 0.06829 -0.0581299 
-0.0358924 -0.0718068 -0.017662 
5.00442e-18 1.97484e-18 1 

-1.49353 0.157528 2.44729 
-0.189283 0.454151 -0.409989 
4.83545e-18 4.05324e-18 1 

-0.273869 0.0919979 -0.595224 
-0.0580102 0.249943 0.119481 
-6.15758e-18 -4.75102e-18 1 

-0.0965624 -0.101045 -0.787736 
0.101881 0.0328576 -1.02233 
-3.59127e-19 1.03517e-17 1 

-0.0140318 0.111679 -0.145652 
-0.13362 -0.0271042 0.201799 
8.26125e-18 -9.21644e-18 1 

-0.128344 0.0664066 0.450779 
0.0255065 0.0107769 0.078302 
4.52548e-18 8.84242e-18 1 

-1.60042 -0.177151 -3.30509 
-0.741317 0.399271 -2.62984 
-9.50676e-18 1.2609e-17 1 

-0.293646 -0.332543 -0.836725 
0.237838 0.32913 0.874495 
-1.42164e-17 -4.09034e-18 1 

-0.682575 0.160814 -0.127705 
-0.090442 0.011546 1.18362 
-3.2539e-19 -1.04938e-17 1 

-1.20032 0.985456 -1.63453 
-0.963223 1.01571 -1.29231 
-3.21681e-18 1.65062e-17 1 

-0.191262 0.563099 -0.180598 
-0.415158 0.291783 0.543638 
-3.19875e-18 -6.44827e-18 1 

-0.196988 -0.73189 -1.53441 
0.281461 0.230351 -0.732522 
-1.33603e-19 2.7834e-18 1 

-0.135392 -0.00897786 -2.01716 
-0.0351665 -0.0169275 -2.52479 
2.96977e-18 -2.22371e-18 1 

-0.177455 -0.0841437 -0.142838 
0.019096 -0.102529 -0.260421 
-1.42107e-17 1.37865e-18 1 

-0.197511 -0.0163207 0.117336 
0.147999 0.132013 0.075365 
1.53481e-17 -8.69432e-18 1 

-0.183748 0.158394 2.28166 
-0.271636 0.114321 1.02164 
-2.24764e-18 2.01338e-18 1 

-0.828075 -0.704697 0.126989 
0.319939 0.514173 1.05261 
-8.24886e-18 -1.3482e-17 1 

-0.161909 0.0897272 -3.89183 
0.0165389 0.0222447 -8.22391 
4.38169e-18 -1.55791e-18 1 

-1.97318 -0.122814 0.977062 
0.712415 0.685273 -0.999169 
1.21182e-17 -3.15491e-18 1 

-0.145805 0.302763 0.470339 
0.0172922 0.078925 -0.28697 
-5.13923e-19 1.09637e-17 1 

-0.462974 -0.319176 -0.851357 
0.416654 0.258138 1.52049 
-3.50682e-18 1.11192e-18 1 

-0.76282 0.199358 0.753812 
0.0550256 0.33808 -0.27029 
8.42465e-18 7.08072e-18 1 

-0.299535 -0.0488448 -0.281161 
-0.0860859 0.213578 0.382396 
-1.28557e-17 1.25422e-17 1 

-0.0769334 0.0135808 0.218523 
-0.0671466 0.01639 0.213614 
8.41597e-18 4.50254e-18 1 

-0.28369 0.531775 0.935112 
-0.402884 0.259713 -0.231225 
-5.25866e-18 2.24337e-18 1 

-0.10992 0.0645081 0.34454 
0.0717073 0.0216073 -1.27551 
3.4722e-18 3.30534e-18 1 

-0.240024 0.033453 0.743869 
0.261901 0.0603409 0.0276459 
-2.01411e-18 -4.91866e-18 1 

-0.304902 0.120971 1.55293 
0.0716165 0.318831 -0.38757 
1.37335e-17 6.0694e-18 1 

-0.604835 -0.0803469 -1.17669 
0.140094 0.249633 -0.752883 
-1.61504e-18 1.60202e-17 1 

-0.0483381 0.0646225 -0.0998915 
0.00135528 -0.0447616 0.0785972 
1.24143e-18 -5.3204e-18 1 

-0.0559459 -0.3289 -0.391417 
0.499633 0.144477 0.0759613 
2.07974e-17 -7.88114e-19 1 

-0.0355118 -0.0371104 -1.25209 
0.159069 0.314659 6.25389 
2.36394e-18 -1.57186e-17 1 

-0.0505853 0.00424347 -0.222024 
0.00125892 -0.0218639 -0.449423 
8.39302e-18 4.15325e-18 1 

-0.360048 0.0170903 -1.35281 
-0.078098 0.463679 1.57003 
4.09379e-18 9.84459e-18 1 

-0.87885 -0.0770229 -1.97338 
0.00342255 0.325751 -1.08607 
-1.13952e-17 1.30291e-17 1 

-0.0218948 0.067259 -0.0438884 
-0.0362701 -0.142902 0.228043 
2.44132e-18 2.74649e-18 1 

-0.120197 0.0231318 0.372194 
0.0858596 0.0166587 1.08652 
3.27566e-18 1.19731e-17 1 

-0.0652199 -0.0355277 0.0639759 
-0.00180783 -0.05302 0.0147869 
-2.26342e-18 5.47985e-18 1 

-0.222362 0.170147 -8.93437 
0.03753 0.143585 -5.20731 
1.99025e-18 -1.18727e-17 1 

-0.293478 -0.00291952 0.548647 
-0.0285457 0.104878 -0.239676 
6.82088e-18 -4.97286e-18 1 

-0.1398 -0.0273281 -0.224632 
0.0222497 -0.0300662 -0.0527823 
-1.82414e-17 -5.53169e-18 1 

-0.132396 0.0904343 0.769564 
0.0596893 -0.000224683 0.108794 
-3.29588e-18 -5.98937e-18 1 

-0.0908718 0.0949901 -0.0782696 
-0.0696329 -0.0805877 0.0511129 
-3.60358e-18 7.14058e-18 1 

-0.569098 0.656925 -6.76421 
0.537583 0.201225 -0.676824 
2.17788e-18 -6.32952e-18 1 

-0.586272 -0.48908 5.54279 
0.174682 0.33063 -2.17571 
-3.40518e-18 7.10912e-18 1 

-0.169779 0.0462059 -1.43154 
-0.104266 0.085975 -3.27692 
7.16905e-19 -3.42937e-18 1 

-1.71769 0.904075 -3.53056 
-1.61734 1.25443 -0.0617373 
-5.72741e-18 6.66887e-19 1 

-1.69408 0.46836 3.32624 
0.235457 0.541949 -0.432726 
-1.59502e-18 8.8594e-18 1 

-0.364763 -0.199654 4.21998 
0.0385264 0.461982 -9.2048 
7.90382e-18 -2.62841e-18 1 

-0.449976 0.0382258 -0.288642 
0.419937 0.173423 -0.0117182 
-9.17144e-18 -6.37298e-18 1 

-0.692906 0.0648908 -1.96464 
-0.181583 0.253844 -0.613667 
2.35225e-18 1.32294e-17 1 

-1.23743 -0.110653 59.8128 
0.362827 0.766044 5.97285 
-9.78639e-18 -3.6206e-18 1 

-0.292577 -0.291369 -0.919894 
0.115404 0.187925 -0.686045 
-4.44483e-18 8.50989e-18 1 

-0.531123 -1.79332 -3.93098 
1.1743 1.09227 -0.391103 
-3.18468e-17 -1.2807e-18 1 

-0.250581 -0.0136767 0.421671 
0.148355 0.165369 0.00431837 
5.60167e-18 -3.21162e-18 1 

-0.188146 0.244293 0.204649 
0.227201 0.156596 0.225612 
3.72892e-18 1.33456e-17 1 

-0.1056 -0.0347685 0.27594 
-0.0113118 -0.0702879 -0.850199 
4.23542e-18 4.45834e-19 1 

-0.193277 0.00362221 -0.180547 
0.0169851 -0.0272517 -0.551315 
-9.6602e-18 2.91068e-18 1 

-0.0663318 0.0268352 0.0474641 
-0.00274572 -0.0577588 0.132162 
2.69778e-18 1.96202e-18 1 

0.0742364 0.0882005 -0.010771 
0.128004 -0.138538 0.227723 
1.2423e-18 7.49665e-18 1 

-0.183022 0.234687 0.386482 
-0.149963 0.00733696 -0.76293 
4.45531e-18 -5.1806e-18 1 

-0.401212 -0.327336 4.5167 
-0.0508239 0.225705 -3.57535 
7.23288e-18 5.76108e-18 1 

-0.0932275 0.525997 -2.39873 
-0.102464 0.319572 1.58317 
4.7216e-18 -7.7035e-18 1 

-0.200925 0.0557559 0.0539668 
-0.146466 0.144978 0.602121 
-4.25696e-18 -2.64225e-18 1 

-1.01289 0.405166 2.11138 
-0.212753 0.469154 1.17989 
-7.74142e-18 1.37625e-18 1 

-0.129727 -0.0293206 0.00580332 
-0.00152149 -0.0500092 -0.140861 
2.98739e-18 2.37391e-18 1 

-0.385111 -0.259552 -0.882535 
0.219416 0.266324 0.947315 
-1.13375e-18 5.23852e-19 1 

-0.253576 -0.0514431 -0.712202 
0.093554 -0.0403971 -0.193271 
1.22093e-17 -7.13773e-18 1 

-0.240306 0.160224 1.39292 
-0.0419425 0.238806 -1.42204 
1.04641e-17 -1.89964e-17 1 

-0.466536 -0.132417 -0.052989 
-0.133635 0.0954542 0.504512 
-1.53682e-18 -1.37625e-19 1 

-0.145871 -0.000351413 -0.0965918 
-0.0618197 -0.044799 0.184523 
-2.05598e-18 -1.29451e-18 1 

-0.127338 -0.039334 -0.141705 
0.0687062 -0.0532402 1.64171 
9.288e-18 -8.15435e-19 1 

-0.195542 -0.580608 0.0582647 
0.318848 0.0937215 -0.399005 
-2.80786e-17 1.18566e-17 1 

-0.17011 -0.0342203 -0.0293054 
-0.0219346 -0.0358346 0.0425534 
-3.69003e-18 4.95306e-18 1 

-0.220688 0.139526 0.936345 
-0.154137 0.0833516 0.0644229 
-3.22498e-18 2.66249e-18 1 

-1.03754 0.131238 -1.56942 
0.294947 0.183788 2.36253 
-1.7928e-18 1.05095e-18 1 

-0.19982 0.0064207 0.354307 
-0.329845 0.0963662 -1.13065 
-3.36784e-18 7.4662e-18 1 

-0.420084 0.216178 0.995092 
-0.0722685 0.0529129 -1.6492 
-2.58407e-18 7.71364e-18 1 

-1.69362 -0.895023 1.33819 
-0.142315 0.43268 -1.06657 
1.28507e-18 -5.73339e-18 1 

-0.407388 -0.0199524 -1.63926 
-0.212716 0.247161 -0.762372 
2.78345e-18 2.61528e-18 1 

-1.66715 0.776931 26.5014 
-0.178464 0.487245 -45.9236 
-4.61207e-18 -1.81817e-17 1 

-0.785974 -0.470587 -6.51908 
-0.231184 0.366606 2.69342 
-1.29666e-17 -1.04035e-17 1 

-1.58405 -0.173139 -1.85292 
-0.599523 0.485431 -0.866373 
1.8913e-17 -1.10147e-17 1 

0.0778898 -0.349261 -1.68965 
-0.160153 -0.0115898 0.311011 
7.43163e-18 -1.25164e-17 1 

-0.293424 -0.394122 -0.933218 
-0.105823 -0.0906205 0.709657 
-2.59019e-17 -1.80958e-17 1 

-0.29128 -0.250469 0.0495566 
0.388926 0.125396 -0.272037 
1.16664e-17 6.86259e-18 1 

-0.184643 -0.0159444 0.21373 
-0.0160144 -0.0576661 0.243588 
5.1575e-19 6.23198e-19 1 

-0.386511 -0.227393 0.367948 
-0.293844 0.185005 1.2294 
-2.18194e-18 5.58171e-18 1 

-0.670929 0.0264275 -0.256208 
-0.423328 0.238652 0.236218 
5.67956e-18 4.39708e-18 1 

-0.08166 -0.0520879 0.0257076 
-0.0631164 -0.0265841 0.317705 
-1.10176e-17 6.2099e-18 1 

-0.571747 -0.61378 -1.41171 
0.199555 0.471148 -0.434896 
-8.08987e-18 -7.15192e-18 1 

-3.61828 0.386737 5.44266 
0.145797 0.889681 -0.992244 
-2.26504e-18 9.52588e-18 1 

-0.0683198 -0.0429388 -0.228398 
0.0856258 -0.20372 0.178748 
8.76706e-18 -1.54168e-17 1 

-0.449879 -0.213976 0.920823 
0.0350436 0.207181 1.60958 
3.2452e-18 2.30763e-18 1 

-0.153337 -0.0787483 -0.120183 
0.127364 0.0530828 0.381039 
-1.86734e-18 1.4136e-18 1 

-0.139758 0.143211 -0.167232 
0.0391404 0.158801 -0.281215 
2.02261e-18 -1.18113e-17 1 

-0.937506 -1.01664 0.616221 
0.309633 0.695401 -0.744722 
-6.94891e-18 -1.82739e-18 1 

-0.437779 -0.0469169 -1.75686 
-0.161892 0.149533 1.52515 
1.11367e-18 -2.36875e-18 1 

-0.143803 -0.0767014 1.78712 
-0.109883 0.122598 0.204956 
7.55733e-18 -6.10693e-19 1 

-0.536685 0.11121 -0.278206 
-0.253529 0.185551 -1.17538 
-3.88852e-18 2.92703e-18 1 

-0.121922 -0.219247 -1.54224 
-0.0412451 0.444233 1.41733 
2.12426e-18 2.98826e-18 1 

-0.0942176 0.0478751 1.28603 
-0.0121689 0.0206922 -0.713069 
-1.83917e-18 -3.12831e-18 1 

-0.460638 -0.0790212 -0.118158 
-0.340733 0.13438 0.664916 
6.20967e-18 4.23216e-18 1 

-0.18219 -0.0682985 -0.422236 
-0.0327524 0.147512 -0.363891 
-6.69848e-18 -6.57779e-18 1 

-0.15706 0.0739685 0.0767331 
0.00793689 -0.0741969 -0.207732 
-3.54726e-18 -2.29467e-17 1 

-1.11346 -0.529007 6.3698 
-0.217184 0.497793 3.39613 
-8.26099e-18 2.83081e-18 1 

-0.657498 -1.72331 -0.21012 
0.580758 0.716464 0.731889 
-3.78513e-18 -8.29586e-18 1 

-0.161527 0.275264 0.923874 
-0.0542592 0.380892 -0.748922 
6.11172e-19 2.66693e-18 1 

-0.467734 0.0540103 0.350021 
0.0439855 0.0677108 0.608672 
-1.23231e-17 4.19176e-18 1 

-1.12472 0.164975 -0.190934 
0.995174 0.49614 2.03467 
-4.6243e-19 6.95046e-18 1 

-0.0599532 0.0684062 1.02513 
0.00755044 0.150282 -0.587093 
-5.52674e-18 -3.76823e-18 1 

-0.31207 0.391067 -0.0133923 
0.120259 0.268445 -0.287138 
4.30742e-18 -1.0159e-18 1 

-2.4701 -0.526646 -3.53076 
0.0717069 0.62013 0.531033 
9.91609e-19 -4.46224e-18 1 

-0.0857672 -0.0535654 -0.123036 