# vtk DataFile Version 3.0
Output file generated by Yade's KinematicLocalisationAnalyser
ASCII
DATASET UNSTRUCTURED_GRID

POINTS 13483 float
618.27 34.2937 -0.444447
760.758 69.1329 -0.450007
124.393 6.15831 -0.459504
793.629 17.3826 -0.223886
513.561 7.68197 0.350656
325.407 35.4833 -0.461391
161.971 6.85653 -0.42917
584.248 10.6708 0.135199
511.354 24.8827 -0.142035
720.889 19.8525 0.39533
217.449 8.98744 -0.0962055
265.243 6.25939 0.298287
660.539 36.1955 0.135399
643.065 21.9833 0.0686153
141.92 17.2848 -0.466436
228.388 34.8218 0.396437
224.87 13.0353 -0.272334
298.405 9.53564 0.387979
351.595 32.2052 0.444883
538.249 8.49683 0.405416
425.01 37.2152 -0.0979235
599.736 51.6105 0.261875
791.563 49.9967 -0.492935
701.726 59.9334 0.428692
473.074 17.4338 0.303154
248.538 44.7253 -0.12762
505.976 29.1362 -0.534434
600.749 21.8583 0.231093
46.5332 15.3863 -0.456035
718.769 45.1343 0.333171
496.407 5.20659 0.376175
16.6682 23.3951 0.299277
770.98 65.4768 -0.239745
509.496 2.57186 0.49814
81.4346 44.5972 0.101309
536.175 31.8466 0.328694
545.352 15.6153 -0.468701
355.116 21.9547 -0.196808
548.134 26.21 -0.32926
362.831 33.5517 -0.391634
249.012 14.4972 -0.313611
448.429 37.9064 -0.0670557
684.312 7.28837 0.0953859
199.301 6.18266 0.37626
57.33 7.02407 0.0770517
70.832 8.95789 -0.264913
698.268 9.76056 -0.632488
24.479 11.648 -0.293175
622.328 55.7861 -0.306578
682.179 28.1576 -0.326735
177.835 32.6175 0.282214
758.731 44.4152 0.12364
36.0286 28.0818 -0.114702
548.585 2.96355 0.370459
147.08 7.21199 0.480194
604.986 40.5313 0.41277
518.958 28.0173 0.119092
181.221 0.937782 -0.263453
33.7647 2.35271 -0.333944
361.058 18.0465 0.277158
630.621 54.1531 -0.142675
476.85 34.871 -0.175548
413.199 1.03715 0.197029
706.225 8.26606 -0.596994
27.6409 43.0614 0.235281
265.401 30.234 0.290098
721.242 15.3556 0.234521
676.859 56.1077 0.348187
432.062 8.59839 -0.502453
584.939 3.97255 -0.339765
744.156 37.5498 -0.37762
135.48 7.65105 -0.282636
514.124 27.085 -0.144396
492.688 16.091 -0.125953
304.948 16.7243 -0.338866
21.5953 13.2242 -0.243635
775.233 49.4082 0.330647
345.032 40.8015 -0.283337
681.539 25.2285 0.34472
696.444 16.9227 -0.27365
790.262 12.4755 0.172214
479.895 35.568 0.160793
96.6225 38.1386 -0.266761
691.305 46.417 -0.22091
659.374 46.9433 -0.0957115
797.307 55.92 -0.121435
785.427 0.782107 0.501362
301.684 28.5018 -0.448942
637.435 8.0064 0.086565
25.0101 5.2928 0.483888
137.568 38.7129 -0.144254
528.898 14.5481 0.203409
773.879 36.5406 0.522115
202.2 29.2929 -0.24255
45.8524 35.1728 -0.259866
508.296 1.39041 0.137557
244.051 8.82002 -0.400528
745.585 58.1728 0.258832
764.868 32.8839 -0.247176
375.066 20.7665 -0.266273
170.786 26.8689 -0.454105
563.191 41.4105 0.405052
393.993 15.3302 -0.467752
428.36 30.3524 -0.120232
392.328 4.49594 0.408795
564 10.7994 0.130899
798.975 23.9267 -0.156146
83.7464 39.5093 0.387549
348.217 4.80948 -0.181118
577.597 9.64451 -0.351494
374.449 44.6534 -0.44224
26.1666 24.7314 0.463645
31.5185 5.75684 -0.34379
584.716 34.541 0.452676
521.728 24.9935 0.14703
27.1802 37.0213 -0.410362
97.0134 30.3039 -0.228048
337.821 15.8268 -0.322238
615.688 21.6351 -0.105193
492.762 39.0503 0.302878
732.702 7.70436 0.580689
724.624 8.46649 0.256675
403.449 37.738 -0.0945501
647.637 34.4925 -0.0992631
247.178 17.1694 -0.522672
343.274 3.70944 0.463846
107.883 31.488 -0.310793
121.241 23.9012 0.300251
559.635 39.571 0.0679196
318.416 18.6877 0.466972
716.863 51.828 0.105511
681.683 53.854 0.105353
499.115 21.0546 -0.414517
771.147 13.7792 -0.30664
445.147 25.2069 0.216541
288.953 24.1374 -0.30296
682.864 38.5681 0.3106
290.467 29.3696 0.425064
595.266 12.2918 0.183308
346.192 37.1972 0.193804
522.512 11.2573 0.516288
382.874 31.2112 0.0847286
447.211 18.1904 -0.101829
332.439 42.4115 0.441326
198.134 31.2771 0.11371
764.949 72.4305 -0.151331
794.774 26.6684 0.27761
6.16442 11.9848 -0.433797
451.668 23.6123 -0.409641
39.4732 22.2466 0.0938374
393.382 32.2609 -0.487846
412.766 25.4475 -0.260906
77.7439 11.818 -0.482329
54.0459 33.5162 -0.438978
235.454 13.5588 0.424874
635.229 48.031 0.388192
597.498 22.0269 -0.467041
78.3477 21.0134 -0.498293
704.483 60.24 0.459072
759.025 2.3525 0.516097
668.8 58.0941 0.451378
703.714 2.29344 0.408547
569.982 28.6581 -0.411805
601.585 51.7251 0.447333
532.347 19.0115 -0.382211
801.462 6.32972 -0.308442
233.108 25.2916 -0.135016
133.204 35.2319 -0.201731
257.988 6.66792 0.386824
98.8856 4.19509 0.277753
67.0673 10.1205 -0.195805
288.385 36.3205 -0.303284
17.5031 25.2765 -0.348186
575.62 22.0626 0.457473
619.961 50.6754 -0.189479
482.151 22.4985 -0.430239
786.029 61.3988 -0.353669
425.074 8.59708 -0.105394
455.701 39.0094 -0.375377
556.623 3.48482 -0.252864
23.3323 24.0167 -0.381651
597.325 4.51551 0.516159
566.276 4.35756 -0.286306
215.437 11.3046 -0.510666
443.963 16.6836 -0.190396
325.671 6.29153 0.335605
406.462 19.2849 -0.351897
740.57 61.2407 0.10087
201.323 26.3324 -0.431682
776.993 6.68134 -0.450661
739.332 54.0436 0.313561
401.08 10.6457 0.170792
719.586 4.66393 0.67394
619.599 29.7035 -0.436788
740.923 22.8347 0.348615
451.215 47.1732 0.26496
516.698 12.6436 0.38174
485.704 46.1801 -0.2221
465.634 8.78889 -0.138418
673.496 51.1022 0.270055
672.253 46.7244 -0.288371
199.582 40.0589 0.334533
788.073 12.6838 0.103334
603.722 51.7929 -0.25075
11.6051 16.8991 0.163851
426.525 25.5771 0.370573
195.842 24.6218 -0.418509
98.4377 38.6636 0.200411
771.521 32.9795 -0.398557
666.397 61.0806 0.219657
334.189 25.7336 0.347569
553.687 10.2301 0.343302
86.7256 43.8481 -0.162701
259.101 25.831 0.472425
579.007 27.1248 0.387871
507.446 20.7592 0.432069
274.944 0.898256 -0.344725
573.732 43.745 -0.353417
552.537 44.557 -0.442316
504.289 36.0884 0.379864
520.552 1.8114 -0.664614
708.572 27.749 0.398284
188.39 12.3941 -0.16966
523.572 38.1974 -0.417786
582.232 46.6298 -0.110502
76.2064 0.921718 -0.277072
263.417 4.63847 0.182727
793.905 28.4863 -0.186835
789.31 15.89 -0.410067
800.192 32.005 0.462871
318.091 8.52096 -0.234314
744.035 26.5835 0.426475
426.949 42.6656 0.315813
470.17 0.854225 0.482369
664.965 43.8057 0.451215
28.0027 30.5944 0.30699
347.172 42.5108 -0.459365
264.365 2.81267 0.304883
774.602 61.3475 -0.187092
718.306 64.4795 -0.24676
301.077 10.8908 0.195143
676.487 38.5015 0.0798336
579.738 2.62328 0.24323
564.007 6.36562 0.446146
101.721 17.9314 -0.564327
317.861 1.02343 -0.227751
360.042 2.29155 -0.343683
14.4276 7.80875 0.480819
4.82496 31.2572 0.241319
170.138 18.9236 -0.357228
71.8228 42.1862 -0.206261
69.8356 28.865 -0.319476
444.168 14.845 -0.394884
385.692 35.1446 -0.466605
756.71 45.3511 -0.112631
20.4539 4.01868 0.268903
73.9659 6.96628 0.140175
641.296 47.5427 0.128167
308.988 0.947575 0.307909
383.658 16.4435 -0.105307
247.088 4.64852 -0.387497
667.422 26.1879 0.217696
472.944 8.37739 0.512441
746.013 22.7966 0.360668
646.213 38.5031 -0.295705
682.136 23.3552 -0.118307
440.696 27.9299 0.477351
107.641 44.8837 -0.303531
560.475 45.1077 -0.0665043
739.14 17.9495 0.235694
249.32 30.8655 0.24883
33.4042 16.9304 0.172483
353.278 13.787 0.498654
113.861 40.6213 -0.473213
281.16 42.171 -0.188282
446.255 1.12066 -0.237595
773.932 45.1747 -0.439137
696.551 0.823558 0.584942
348.794 3.19354 0.524595
315.242 26.8858 -0.147113
484.329 43.1013 -0.199551
85.6655 7.83635 -0.494794
207.139 45.8745 0.37753
766.039 39.236 0.356586
518.741 41.8749 -0.0638555
208.734 41.8309 0.248384
168.531 42.989 -0.388856
800.984 49.4664 0.385382
797.533 22.8308 0.461891
629.366 3.44981 -0.633553
199.451 26.096 -0.0869917
571.808 30.8061 -0.100943
573.853 30.4335 0.270356
429.682 5.66426 -0.142369
503.665 0.941639 -0.329121
755.466 46.7063 0.469974
89.6775 31.0237 -0.215862
671.353 20.9206 0.489121
287.99 15.7986 -0.352103
10.3283 2.29377 -0.369845
132.105 37.0686 -0.186643
70.3319 23.2739 -0.444475
711.2 50.4268 0.293722
780.498 70.7085 0.16465
194.424 29.4893 0.174467
789.686 23.3167 -0.289428
47.0276 36.7981 -0.250819
95.8702 28.6998 0.162163
651.538 19.5098 0.450342
435.397 17.4891 -0.474297
542.109 16.4793 -0.116064
249.691 28.9191 -0.193019
642.626 8.66033 0.508306
800.6 22.7314 -0.342424
31.1949 31.5721 -0.26561
283.588 7.59623 0.1955
232.997 15.4363 -0.24488
1.09243 35.6338 0.151306
236.472 14.5426 -0.374656
222.343 11.1846 -0.134817
224.775 26.3979 0.282683
139.79 27.6993 0.117852
570.167 15.4336 0.355462
175.981 14.0818 0.354279
767.741 63.6822 0.213495
183.34 3.76904 0.502289
49.8153 37.6853 -0.348754
745.639 70.9891 -0.426454
295.861 31.6251 0.379417
688.08 31.0089 0.461939
780.665 46.4386 -0.479301
316.167 9.13352 0.115777
735.836 43.5557 0.331624
345.604 2.59872 -0.377224
437.288 24.7191 0.352853
686.433 19.5943 0.422213
110.995 11.9506 0.414426
505.14 4.0493 -0.491171
749.793 21.5494 -0.18475
92.957 7.60398 -0.2114
295.872 14.7172 0.197541
445.552 12.4469 -0.220981
801.133 4.60186 -0.474442
418.171 1.92468 -0.541696
184.423 39.9653 0.275944
739.894 10.3701 0.39081
135.15 36.5513 -0.188317
276.363 31.6038 -0.379809
421.323 21.4089 0.212548
597.779 14.2324 -0.300542
406.717 9.69484 0.416381
478.213 28.6284 -0.457406
760.594 70.5685 0.118945
50.0319 11.1755 -0.105584
314.842 37.8015 -0.265773
399.73 26.6976 -0.395938
431.046 20.8351 0.261647
544.739 47.7862 -0.36939
751.608 48.0062 -0.200744
676.64 46.3327 -0.341484
237.2 34.5914 0.381131
13.8226 31.6213 -0.152621
670.553 49.7875 -0.116938
533.768 45.8678 -0.445017
240.948 39.9771 0.095977
694.055 41.2981 -0.106378
159.144 9.30439 0.213471
386.219 21.8748 0.302796
486.228 44.0535 -0.101856
435.058 19.2381 0.185879
758.68 66.0674 0.301083
447.765 3.30671 0.479599
52.4153 25.5562 -0.301249
492.75 33.0809 0.351062
456.274 44.4191 0.354936
769.542 55.0012 -0.244383
731.519 45.1261 -0.226336
565.881 19.0444 -0.167885
764.147 55.1883 -0.447072
308.271 2.17122 -0.450726
400.068 29.782 -0.450177
30.5655 38.7211 -0.293426
737.669 42.8225 -0.153452
628.511 24.2453 -0.483437
485.051 0.772457 -0.466873
132.822 4.53266 -0.288443
448.933 42.2227 0.0954782
12.765 0.934906 0.322894
799.393 6.99437 -0.121549
390.185 39.5114 0.398112
[...]
POINT_DATA 13483
TENSORS Strain_matrix float
-0.286419 0.184362 2.93604 
-0.0633662 0.142603 1.83395 
3.08168e-18 2.44052e-18 1 

-1.66071 0.976227 -44.6543 
0.247195 0.937434 -6.11044 
4.97564e-18 4.71223e-18 1 

-0.0872686 -0.0210963 -0.00438434 
0.0108725 -0.0448461 2.09118 
-6.82032e-18 3.13366e-18 1 

-2.87287 -1.2777 -4.25927 
1.36298 1.35451 1.62134 
2.82826e-18 -8.40106e-18 1 

-0.40703 -0.247849 0.383108 
0.064318 0.0836117 -0.32538 
2.57285e-17 1.37158e-18 1 

-0.0903962 -0.102645 4.30854 
0.0394544 -0.00257213 0.60342 
7.45746e-18 9.02012e-18 1 

-0.0666199 -0.0201221 -0.706158 
-0.00991687 -0.0736667 0.463893 
-2.66587e-18 -7.56364e-18 1 

-0.0812025 -0.0709287 -0.348647 
0.00114971 -0.0964049 -0.256087 
-3.40315e-18 -5.69015e-19 1 

-0.204281 0.143888 1.09348 
-0.250338 0.0969581 1.36551 
5.57159e-18 2.61404e-17 1 

-0.23957 -0.0573269 0.567836 
-0.126089 -0.151335 0.587401 
3.3444e-19 -7.9095e-18 1 

-0.0328172 -0.066087 -0.0016014 
0.0268476 -0.0647 0.0710148 
1.2346e-17 8.78465e-18 1 

-0.0744966 -0.00484112 -0.0785896 
-0.0653233 -0.0939691 -0.226791 
-2.16873e-17 -1.95381e-18 1 

-0.047736 -0.0165492 -0.263773 
-0.426972 -0.0181621 0.660315 
1.84451e-17 -6.67451e-18 1 

-0.288324 -0.0137418 -0.665379 
0.295968 0.184085 -0.456799 
-1.6578e-17 2.40649e-18 1 

-0.0831296 -0.00407852 0.530604 
0.00297973 -0.0461769 0.886712 
-4.32845e-18 2.1781e-18 1 

-0.0565881 -0.0611166 0.142335 
-0.035709 -0.0239643 0.855759 
1.43367e-17 -4.74499e-19 1 

-0.0638462 -0.0717524 0.328726 
0.0493249 -0.0928308 0.0308905 
-1.06636e-17 -2.51277e-18 1 

-0.123675 -0.0248281 0.000897446 
0.0045031 -0.0602048 0.0684282 
-3.24739e-18 -4.42608e-18 1 

-0.0773126 -0.0753856 1.24043 
-0.0910934 -0.046122 0.179457 
1.74744e-17 -5.07414e-18 1 

-0.181062 0.131304 0.227557 
-0.0424847 -0.0344566 -0.19224 
6.4263e-18 1.84054e-18 1 

-0.10715 0.136179 -0.619701 
-0.0235599 0.0489741 -0.316423 
3.59116e-18 5.11284e-18 1 

-0.0406154 -0.209259 0.150985 
0.112599 -0.133846 -0.638503 
-1.14599e-17 -2.55244e-17 1 

-0.472053 0.10145 1.95317 
-0.261297 0.293947 1.46127 
1.12775e-17 1.78406e-18 1 

-0.450551 0.508657 1.37767 
-0.328565 0.350223 -12.3138 
-4.91237e-18 3.66277e-18 1 

-0.0746467 -0.166908 0.261056 
0.0812473 0.0381018 -0.0711475 
-3.67548e-18 8.50783e-18 1 

-0.145406 0.125996 -0.0436397 
-0.137314 0.0439268 0.0199468 
7.74143e-18 -1.11146e-17 1 

-0.164351 -0.00236981 5.91004 
0.00968067 0.0537577 3.8933 
-1.5464e-18 -6.9168e-18 1 

-0.295065 0.156198 -1.00355 
-0.211494 0.144192 0.454603 
3.48082e-18 -1.02842e-18 1 

-0.100178 0.0233343 0.878609 
0.0519978 -0.0759366 -2.88044 
1.02419e-17 1.30335e-18 1 

-0.434637 0.0600549 -1.89785 
0.0565718 0.207412 -0.647336 
2.81544e-18 -5.4086e-18 1 

-0.181925 0.0129717 -0.26556 
-0.12359 -0.105994 -0.14973 
7.27954e-18 5.41299e-18 1 

-0.123011 0.151974 0.546369 
-0.090042 0.0111744 -0.540017 
9.20299e-18 6.25339e-18 1 

-0.110306 0.475768 -0.959165 
-0.0172279 -0.070024 -0.262692 
4.90643e-19 1.08399e-17 1 

-0.167854 0.108223 -0.745509 
-0.061242 0.0330452 -0.062687 
-2.62613e-18 1.18894e-17 1 

-0.0648535 0.0042161 -0.0717466 
-0.076981 0.0360768 -0.322608 
1.23166e-17 5.83178e-18 1 

-0.0995768 0.170188 0.0832314 
-0.0244014 0.00448375 -0.900842 
-5.8526e-19 -3.13114e-18 1 

-0.195084 0.0781884 -1.21728 
0.0357909 0.0445341 -1.0575 
-1.06023e-18 -6.7871e-18 1 

0.0647667 -0.117253 -0.286965 
-0.00677747 -0.222877 -0.338916 
-8.16188e-18 3.07595e-17 1 

-0.181935 0.132384 -0.292275 
0.0987446 0.0132401 -0.192413 
-1.81488e-18 2.0017e-18 1 

-0.0273684 0.0170266 -0.0505212 
0.160319 -0.0258902 0.947022 
9.82025e-18 1.05798e-17 1 

-0.0838191 -0.0157181 -0.140939 
-0.142574 -0.0515344 0.0603105 
5.1289e-18 8.6109e-18 1 

-0.0557862 -0.0958582 0.449969 
-0.228302 -0.0291119 -0.693746 
2.63253e-18 3.18005e-18 1 

-0.586682 -0.233399 -0.592337 
0.0437383 0.17744 0.133818 
6.07364e-17 -4.74944e-18 1 

-0.11066 0.04426 0.0463609 
-0.0168177 -0.113663 -0.196917 
1.51718e-17 9.36531e-20 1 

-0.0609547 0.0713592 -0.0209203 
-0.0604513 -0.0775382 0.0355344 
-4.39139e-19 -5.74174e-18 1 

-0.0537067 0.0226171 0.110495 
-0.00730229 -0.0631499 -0.0706652 
3.40633e-18 -2.88672e-18 1 

-0.699711 -0.287942 -5.633 
0.0512977 0.225652 -2.65861 
-6.44685e-18 1.04076e-17 1 

-0.0969578 -0.0815404 -0.0633487 
0.107328 -0.0427369 -0.181801 
-4.66405e-18 2.70682e-19 1 

-0.00045609 -0.561629 3.89962 
-0.291114 0.504543 -1.67976 
1.71868e-17 -1.87359e-17 1 

-0.394955 -0.419784 -3.41043 
-0.0733059 0.232262 -0.182342 
-1.35315e-18 7.559e-18 1 

-0.221224 -0.129283 -0.00292065 
0.231599 0.143139 -0.298905 
-1.10603e-19 -1.06732e-17 1 

-0.599016 -0.0840293 2.40742 
0.0572873 0.150808 -1.136 
-2.69246e-18 -3.32424e-18 1 

-0.110587 0.0430925 0.0980142 
-0.0306027 -0.00182756 -0.123227 
1.80102e-17 2.03889e-18 1 

-0.176546 0.141787 0.190888 
-0.0705565 -0.0384535 0.404215 
-5.76975e-18 -5.22543e-19 1 

-0.108483 -0.00013555 -0.107672 
-0.0297674 -0.118708 0.266011 
-1.1462e-17 1.47271e-18 1 

-0.32145 -0.148965 -5.18527 
0.0147622 0.1765 -0.0445284 
-1.00092e-18 4.08052e-18 1 

-0.265601 0.259752 -0.155152 
0.09921 0.157458 -0.0574206 
-1.76623e-18 -5.91229e-18 1 

-0.077272 -0.0133717 0.298282 
-0.00848441 -0.0751638 0.166898 
3.44217e-18 -1.96195e-17 1 

-0.0619345 0.00826973 -0.0400836 
-0.0361045 -0.132962 0.0699333 
-3.98241e-18 1.57444e-18 1 

-0.0781181 -0.0125332 -0.270599 
-0.0655184 -0.0755333 0.411757 
-9.91601e-19 -1.08076e-17 1 

-0.582747 -1.03759 2.71538 
0.464354 0.916255 -0.986618 
4.47544e-18 9.72251e-18 1 

-0.215346 -0.127391 -0.0268076 
0.0245891 0.100518 -0.811406 
-1.14265e-17 -5.07845e-18 1 

-0.0994478 -0.119702 -0.335074 
-0.0222734 -0.0527356 -0.103904 
1.00147e-17 1.88118e-17 1 

-0.533216 -0.0915003 -3.18115 
0.103868 0.205731 -4.95742 
-7.17409e-18 3.97824e-18 1 

-0.102572 0.0511289 0.258311 
-0.0412789 -0.000821002 0.177287 
6.15755e-18 1.35401e-17 1 

-0.0811945 0.0247236 0.252225 
-0.0220366 -0.0151432 0.190021 
-1.77532e-18 1.09817e-17 1 

-0.160081 0.244353 -0.0966995 
-0.147886 -0.139833 0.0918897 
2.12833e-18 -3.9805e-18 1 

0.0547001 0.497208 -0.198169 
-0.557459 0.043275 -0.254785 
-2.34401e-18 -5.70797e-18 1 

-0.111922 0.004034 -0.677166 
-0.0535049 -0.0824708 1.70339 
8.03464e-18 -6.80547e-18 1 

-0.242281 0.0763535 0.0630778 
-0.13211 -0.0561788 -0.149929 
-1.38847e-18 3.44725e-18 1 

-0.717602 0.138399 1.09853 
-0.409494 0.362494 0.287296 
-7.77986e-19 -1.34922e-17 1 

-0.0641471 0.0469338 0.0947312 
-0.0220083 -0.0614357 -0.100082 
1.59592e-17 -2.46008e-18 1 

-0.242889 0.132288 0.366806 
-0.122922 0.140397 0.505898 
-2.6079e-18 1.80621e-18 1 

-0.0213642 0.0405829 -0.710417 
-0.152591 -0.0971397 0.535636 
1.47306e-18 -3.93489e-18 1 

-0.0665379 0.0452552 -0.201585 
-0.0366975 -0.0399446 -0.373976 
-5.21579e-19 -2.70405e-18 1 

-0.0871606 -0.0902353 -0.187105 
-0.0268662 -0.0623416 0.0480903 
9.24069e-18 -6.30047e-19 1 

-0.400175 -0.297301 -2.05892 
0.244167 0.394988 0.921534 
-2.20685e-18 -7.03908e-19 1 

-0.0781339 0.00449595 -0.254445 
0.0332295 -0.0216218 0.796407 
1.62987e-18 -7.45743e-19 1 

-0.309126 -0.470349 1.61747 
0.0951116 0.248409 0.328506 
1.38717e-17 -6.6409e-18 1 

-0.810582 0.1697 0.158061 
-0.228288 0.360348 1.20533 
-6.09098e-18 -9.0403e-18 1 

-1.05789 -0.873643 0.331721 
0.267517 0.403594 -0.408924 
-5.92077e-18 2.93587e-18 1 

-0.079247 -0.18466 0.30522 
0.13493 0.131199 -0.257158 
6.41184e-18 -1.24502e-17 1 

-0.0251078 0.0951322 -0.0523751 
-0.139076 -0.0162185 0.186704 
-5.54282e-19 8.66255e-18 1 

-1.00164 -0.549493 1.53582 
0.258369 0.496081 0.389122 
8.37046e-18 4.2264e-18 1 

-0.220378 -0.168801 -0.422079 
-0.399356 0.133686 0.162515 
4.50393e-19 -1.12598e-17 1 

-0.715109 -0.206868 0.160818 
0.128438 0.411498 -1.4228 
7.63743e-18 -3.66178e-18 1 

-0.437711 2.79814 -2.80435 
0.0497879 0.120865 -1.04506 
-8.9899e-18 -1.81181e-17 1 

-0.180839 -0.0287745 -0.20926 
0.00228544 -0.00249415 0.436294 
1.50751e-17 -5.68687e-18 1 

-0.604092 -0.506706 -0.389791 
0.629779 0.366591 0.0161182 
-1.10424e-19 8.02214e-18 1 

-0.118261 0.0134624 0.800372 
-0.00970477 -0.0545706 -0.604932 
1.15324e-17 -2.77333e-18 1 

-0.0914727 -0.0495961 -0.145184 
-0.0597938 0.00812987 -0.176116 
7.97423e-18 5.91348e-18 1 

-0.132959 0.230198 -0.711909 
0.0317522 0.0411791 -0.228542 
-2.02858e-18 -1.17657e-17 1 

-1.29012 -0.668317 -4.96547 
0.0772189 0.488059 -2.09467 
1.29792e-17 9.18041e-18 1 

-0.124626 -0.0379896 -0.559381 
-0.196695 -0.0955396 0.219287 
1.71622e-17 3.05992e-18 1 

-0.0934665 0.0340075 -1.41779 
0.0647651 0.0313246 2.78796 
1.1386e-17 -1.89903e-18 1 

-0.180659 0.0139568 0.164525 
-0.0368801 0.00501868 0.15462 
1.57076e-17 -2.36335e-17 1 

-0.124192 0.0430461 -0.232883 
0.00799205 -0.0263243 0.322118 
-1.77858e-17 -5.87614e-18 1 

-2.22502 -0.349535 2.29817 
0.37137 0.605496 -0.0537734 
-2.30884e-18 -6.59669e-18 1 

-0.391018 -0.287575 0.696331 
0.208029 0.102991 0.715713 
1.80426e-18 -1.55166e-17 1 

-0.0447111 0.0274589 -0.0794912 
-0.0584946 -0.071149 0.1048 
1.46569e-17 -1.38608e-17 1 

-0.0612401 -0.0611609 -0.233447 
-0.00224157 0.00430144 -0.500293 
-6.16264e-18 -2.29499e-18 1 

-0.261628 -0.482865 -5.24216 
-0.119974 0.232598 -2.52919 
-6.1607e-19 -1.11696e-17 1 

-0.175915 0.0960825 -1.96662 
0.113864 0.00831821 1.27698 
9.86538e-18 -1.03713e-17 1 

-0.116208 -0.0858909 -0.442525 
0.0648453 0.00381605 -0.138298 
2.43451e-18 1.34523e-17 1 

-0.10116 -0.0191085 0.29109 
-0.010587 -0.0916343 -1.45242 
-2.3486e-18 2.11736e-17 1 

-0.342382 0.282836 0.343578 
-0.175466 0.156327 -0.0663689 
7.20667e-19 2.74754e-18 1 

-0.703333 -0.588408 0.0126281 
0.187639 0.3955 0.311525 
6.30027e-18 -1.03389e-17 1 

-0.0023616 0.0798586 0.935962 
-0.1496 -0.080548 -1.23263 
1.53583e-18 2.03733e-18 1 

-0.112541 0.0352865 0.0988165 
0.0186687 -0.102358 -0.0171137 
2.05867e-17 -1.35245e-17 1 

-0.245972 0.00614485 -1.15084 
0.0479143 -0.0133582 -1.72784 
-1.0175e-18 1.38844e-17 1 

-0.151034 -0.077719 1.55042 
0.0624433 0.0313288 4.43553 
-1.14749e-17 -8.02496e-18 1 

-0.0553467 0.0138766 0.840654 
-0.0115708 -0.0455691 -0.237617 
2.43254e-18 -2.39802e-18 1 

-0.0596507 0.0342443 0.00476685 
-0.0273162 -0.112183 0.0252544 
-1.0414e-17 5.61235e-18 1 

-0.663291 -0.1287 -0.58111 
-0.216358 0.173542 -0.939238 
1.80698e-18 -2.44913e-18 1 

-0.284471 -0.053441 -0.336088 
0.0345687 0.185048 -0.288679 
-6.3155e-18 -2.01559e-18 1 

-0.0592882 -0.00990388 -0.341917 
0.017518 0.000979237 0.502984 
-2.1899e-18 -5.58425e-18 1 

-0.0909719 0.00991545 -0.1132 
-0.186432 -0.00162208 0.0995335 
1.5369e-17 1.04055e-17 1 

-0.114062 -0.0135219 -0.0838872 
0.070317 0.0122397 0.110995 
-1.58205e-17 -1.51805e-17 1 

-0.645561 -0.0439184 0.0559327 
-0.584132 0.235045 -0.896677 
4.19523e-18 7.06216e-18 1 

-0.0770057 -0.0106887 -0.118547 
-0.0152385 0.0590882 0.170589 
-8.30938e-18 -3.38726e-18 1 

-0.628644 0.227007 1.65991 
-0.13223 0.0300848 4.26917 
-7.20128e-18 2.19741e-17 1 

-1.05729 0.625231 -0.809404 
-0.784206 0.78844 -0.631305 
2.0307e-18 4.44077e-18 1 

-0.017183 0.0721857 0.0583797 
-0.0971196 -0.0262801 0.138831 
-8.2344e-18 5.24783e-18 1 

-0.325622 -0.440547 -0.825698 
0.106696 0.139086 -0.482425 
1.26013e-17 -5.39749e-18 1 

-0.0703789 -0.0159988 -2.97206 
-0.0207906 -0.0550379 -1.37408 
-1.89185e-19 9.40622e-19 1 

-0.0830769 0.0405999 -0.307801 
-0.0232586 -0.122205 0.0760209 
9.97171e-18 9.49687e-18 1 

-0.148304 -0.0926034 -0.0831688 
0.0875476 0.0793356 0.182394 
6.95628e-18 3.06895e-18 1 

-0.133813 0.081028 -0.358063 
-0.0999776 -0.0241489 -0.642259 
5.52969e-18 -7.42623e-18 1 

-0.67105 -0.0517379 0.615788 
-0.154712 0.43064 1.26284 
1.07146e-17 4.88816e-18 1 

-0.124099 0.0945155 -0.134374 
0.0332516 0.0177715 -0.0269396 
-8.04863e-19 1.18047e-17 1 

-0.727771 0.371058 -1.99649 
0.178533 0.571462 -0.619027 
-3.54025e-19 -3.61423e-18 1 

-0.144115 0.13252 0.665226 
0.18059 0.148211 -0.489429 
-1.04185e-17 1.91098e-18 1 

-0.31178 -0.138512 -1.31118 
0.120144 0.168921 1.87573 
-2.14597e-18 5.69903e-18 1 

-0.382068 -0.0490532 0.632123 
0.22296 0.147596 -0.242891 
3.28134e-18 -1.91753e-17 1 

-0.269911 -0.0332362 -0.369298 
-0.0756509 0.191646 0.310968 
-5.33889e-18 -1.65708e-17 1 

-0.0817567 -0.0187118 0.091455 
-0.0402392 0.0201579 -0.135198 
-1.473e-17 -5.24651e-18 1 

-0.305563 0.22507 -1.01817 
-0.0600397 0.159967 -0.532241 
-3.77792e-18 1.44231e-17 1 

-0.088608 0.0177635 0.217766 
0.0939274 -0.00346053 -1.21239 
1.211e-18 6.92542e-18 1 

-0.057764 -0.0257019 -0.0192615 
-0.0345397 -0.0975739 -0.0765089 
-2.35576e-18 6.55686e-18 1 

-0.189185 -0.0263517 -0.0864244 
-0.313109 0.113873 -0.461504 
1.23072e-17 -2.88079e-18 1 

-0.177925 0.0882985 -0.178405 
0.0149582 0.00465166 1.82849 
-6.67764e-18 -3.94867e-19 1 

-0.0358055 -0.171192 0.0513858 
0.181362 -0.0245486 -0.0232347 
2.47281e-18 5.2666e-18 1 

-0.0719565 -0.19183 -0.408712 
0.397839 0.0607724 -0.0151326 
-1.35653e-17 -4.33698e-19 1 

-0.023246 -0.0665783 -1.88007 
0.0640335 -0.0538111 0.716365 
-1.22711e-18 -4.40927e-18 1 

-0.0336549 -0.0525152 -0.421941 
-0.063114 -0.0205338 -0.40476 
-3.03053e-19 7.1001e-18 1 

-0.528964 -0.0849463 2.01397 
-0.18027 0.834981 0.513919 
5.57146e-18 1.89992e-17 1 

-0.810096 -0.0994712 -1.81557 
0.0698973 0.29288 -1.1136 
-7.30246e-18 -1.12209e-17 1 

-0.109566 -0.0610246 0.0340974 
0.0581291 -0.0742259 -0.0311745 
-5.58917e-18 -4.0448e-18 1 

-0.0792732 0.106442 0.438458 
-0.0720539 -0.0290182 0.150551 
-5.11088e-18 -9.96263e-18 1 

-0.023404 0.00709194 -0.100633 
-0.0288203 -0.072791 0.122229 
-6.11395e-18 2.75128e-18 1 

-0.0806585 -0.0926149 13.7187 
0.0628821 -0.0129425 6.789 
2.08942e-18 -2.96318e-18 1 

-0.139175 0.0800225 -0.0198849 
-0.0170607 -0.0381522 0.0211811 
3.86123e-18 -3.57949e-18 1 

-0.128205 -0.0433732 0.751413 
0.00519865 -0.0434972 0.230042 
8.93978e-18 -4.77968e-18 1 

-0.117691 0.0429378 -1.59118 
0.077997 0.00103015 -1.79663 
4.04891e-18 -2.28752e-20 1 

-0.0764094 0.0208527 -0.128403 
-0.030885 -0.047863 0.813072 
1.39714e-18 -1.87616e-18 1 

-0.712905 0.418913 -7.47068 
0.416434 0.298583 0.432204 
9.72758e-18 -1.59619e-17 1 

-0.37875 -0.0446614 -2.19613 
0.277571 0.156891 -2.02036 
1.01261e-17 1.57317e-18 1 

-0.0823702 -0.0101692 -0.95262 
-0.00953803 0.000284253 -0.66105 
7.69274e-19 -9.24781e-19 1 

-0.613957 0.168503 7.41874 
-0.135393 0.555849 -5.83353 
9.86885e-19 3.11867e-18 1 

-1.4259 -0.0567637 2.27633 
0.354928 0.496064 -0.334222 
-2.38256e-19 2.85907e-18 1 

-0.554006 -0.143489 5.55035 
-0.0482289 0.455614 -12.1584 
-5.79569e-18 2.01273e-18 1 

-0.269616 -0.364548 0.421644 
0.304058 0.0667986 0.289419 
-1.64124e-18 5.04584e-18 1 

-0.253183 0.170473 1.36969 
0.113422 0.145365 1.63995 
-2.02e-18 1.2625e-18 1 

-0.239916 0.145389 -0.221626 
0.0671741 0.317801 -11.4315 
-1.75785e-18 6.56344e-18 1 

-0.139512 -0.16018 -0.428119 
0.059242 -0.0129267 -0.859196 
2.0416e-19 -1.18413e-17 1 

-0.637522 -1.36629 4.14229 
0.576321 0.758477 -2.4285 
-1.42792e-17 1.66208e-17 1 

-0.0863077 -0.0261292 0.17845 
0.0286504 -0.0400435 0.0299788 
7.71122e-18 5.18098e-18 1 

-0.0990725 0.00106831 -0.0595087 
0.0294778 -0.0121294 -0.129742 
6.032e-18 -5.63573e-18 1 

-0.0537394 -0.0416005 0.148934 
-0.000420896 -0.0865546 -0.460163 
-1.09629e-18 -5.0908e-18 1 

-0.0827413 0.0131123 -0.219978 
0.0293827 -0.0718542 -0.124102 
-6.24115e-19 5.79854e-18 1 

-0.0525519 0.0179243 0.0651866 
-0.0103461 -0.0657139 0.00579277 
-7.96308e-19 -7.80896e-18 1 

0.0169855 -0.00831638 0.0431374 
0.164685 -0.0612156 0.160068 
2.69783e-18 -3.62378e-18 1 

-0.230971 0.167261 0.220028 
-0.0760219 0.0419126 -0.607193 
-1.04757e-17 1.26682e-17 1 

-0.345963 0.0594994 -1.77169 
-0.0804545 0.205404 -4.63506 
-4.24984e-18 8.04715e-18 1 

-0.344697 0.122134 -0.397493 
0.139935 0.2735 1.53173 
4.72808e-18 -1.69871e-18 1 

-0.15731 -0.0458156 0.313239 
0.0262873 0.0584444 1.35886 
-1.25496e-17 2.63724e-18 1 

-0.762751 0.670578 0.803346 
-0.136116 0.587442 0.108602 
-1.54535e-19 -1.7514e-18 1 

-0.101832 -0.0103048 -0.0133338 
0.00222015 -0.0583436 -0.140609 
2.67074e-18 1.25941e-17 1 

-0.164494 -0.105436 -0.200181 
0.0839326 0.0453299 1.94324 
5.20114e-18 3.11295e-18 1 

-0.22073 -0.0649912 -0.760479 
0.0768637 -0.0438188 -0.192323 
1.27646e-17 -5.26158e-18 1 

-0.059773 0.0247377 0.183374 
-0.0943051 -0.0214751 -0.116515 
7.95901e-18 1.00801e-17 1 

-0.341216 0.125267 0.0121295 
-0.219264 0.0117849 0.365204 
1.59664e-17 1.32835e-17 1 

-0.100914 -0.0207496 -0.0935922 
-0.02436 -0.0530218 0.247198 
1.17572e-17 -3.78515e-18 1 

-0.092405 -0.0506524 -0.386233 
0.045638 -0.0632196 1.3547 
-3.87924e-18 6.86105e-18 1 

-0.13124 -0.503117 -0.261551 
0.276003 0.0262486 -0.38619 
7.9264e-18 -4.35952e-18 1 

-0.116714 -0.0139312 0.13162 
-0.0443991 -0.0521464 0.121742 
8.06143e-18 -6.44914e-18 1 

-0.0903731 -0.0316627 0.772126 
0.0554285 -0.0463901 -0.0569447 
1.99511e-19 -2.77985e-18 1 

-0.938392 0.0959606 -0.315372 
0.448302 0.287428 1.24777 
8.40341e-19 1.88564e-18 1 

-0.107367 0.0520996 0.558838 
-0.276202 0.0332536 -1.61367 
3.33849e-18 -2.06759e-18 1 

-0.44413 0.218699 1.90498 
-0.165731 0.126893 -1.55788 
-4.66207e-18 -2.02699e-18 1 

-0.750807 0.205917 -1.12527 
-0.160336 0.260331 -0.709562 
-4.53941e-18 1.83613e-17 1 

-0.175085 -0.122151 0.424132 
0.059741 0.0506817 -0.51183 
-6.64395e-18 -5.57963e-18 1 

-2.14218 1.1462 2.32087 
-0.298939 0.850716 -1.37997 
-1.40543e-17 -1.549e-17 1 

-0.673515 0.0450551 -0.790071 
-0.05376 0.358265 -0.0740257 
4.17515e-19 -2.44544e-18 1 

-0.811163 0.0120898 -0.960376 
-0.495097 0.330859 -0.448364 
-8.33352e-18 3.60942e-18 1 

-0.168431 0.255333 -2.02035 
-0.561434 0.130141 0.223481 
1.40468e-17 -1.64611e-17 1 

-0.120353 0.10505 -0.333034 
-0.144701 0.0272499 -0.693632 
1.66978e-18 -8.70759e-18 1 

-0.0993655 -0.0575657 -0.195485 
0.0964837 -0.0488329 -0.226307 
-7.32227e-18 -3.09318e-18 1 

-0.140401 -0.155994 -0.0925656 
-0.00651217 -0.0571568 0.146444 
4.15595e-18 -3.1903e-18 1 

-0.282082 -0.199083 -1.44578 
-0.249605 0.236725 -0.420004 
-1.3566e-18 -6.34614e-18 1 

-0.460656 -0.308808 -0.581662 
-0.368268 0.164256 0.941957 
-6.24951e-18 7.57753e-18 1 

-0.0672814 0.00894441 -0.0484526 
-0.0807401 -0.0407714 0.137958 
6.99944e-18 4.62099e-18 1 

-0.59472 -0.234943 -0.569516 
0.189691 0.198205 -0.698661 
-1.51706e-17 -1.48271e-17 1 

-0.183063 -0.283863 0.22248 
-0.0904832 0.136531 -1.17233 
1.1013e-18 8.92055e-18 1 

-0.0782265 0.00663971 0.156475 
0.0305277 -0.0422459 0.17264 
-1.66615e-17 4.90381e-18 1 

-0.131729 -0.152382 -0.903264 
0.0977194 0.05973 0.479863 
-4.5448e-19 -6.51141e-18 1 

-0.133378 -0.0602392 0.656617 
0.143532 0.0240419 0.682118 
-9.60506e-18 6.93928e-18 1 

-0.117533 0.096433 -0.295689 
-0.0840018 0.075404 0.75584 
-2.79789e-18 1.10332e-17 1 

-1.24633 -0.529283 8.64703 
0.252219 0.645381 -4.22773 
6.47158e-19 1.49718e-17 1 

-0.465147 0.0342173 0.0582205 
-0.29399 0.152761 1.60094 
-1.58471e-17 -5.93603e-18 1 

-0.067424 0.0424598 0.433108 
-0.0289099 0.0379947 0.404226 
4.81493e-18 3.5186e-18 1 

-0.203467 -0.0568174 -0.300675 
0.155078 0.0200052 -0.0136505 
-1.01894e-18 -2.73345e-18 1 

-0.0276361 0.0313004 -0.184465 
0.130911 -0.141224 0.06501 
-6.24909e-18 -8.13835e-18 1 

-0.0598004 0.0278436 0.217245 
-0.0291833 -0.010859 0.608789 
-6.73629e-18 -3.3792e-18 1 

-0.302875 0.228613 -0.571403 
-0.193783 0.152802 -0.585746 
-1.18364e-17 5.3838e-18 1 

-0.10376 0.00700235 -0.0284278 
0.131339 0.00959787 0.652668 
3.5626e-18 1.14922e-17 1 

-0.102651 -0.1078 0.054598 
-0.0129109 -0.119727 0.196393 
-2.15337e-17 -1.72542e-17 1 

-0.00841543 -0.462848 2.66382 
0.323567 0.0635909 1.66427 
6.50039e-18 1.22491e-18 1 

-0.795247 -0.0486107 -5.83614 
0.148084 0.412354 1.86939 
-4.77065e-18 -2.22537e-18 1 

-0.17605 0.236935 -0.0458344 
0.0973813 0.11587 -0.961443 
-1.73472e-18 3.7405e-18 1 

-0.147313 0.247011 67.9936 
0.00353231 -0.0179137 0.315468 
1.05079e-18 4.87333e-18 1 

-0.744573 -0.269462 0.425409 
1.07472 0.498004 1.04815 
-7.4795e-18 -6.56836e-18 1 

-0.0867483 0.0286871 0.17993 