# vtk DataFile Version 3.0
Output file generated by Yade's KinematicLocalisationAnalyser
ASCII
DATASET UNSTRUCTURED_GRID

POINTS 13483 float
688.779 26.9491 -0.412341
903.26 43.3132 -0.457244
134.872 6.11006 -0.442511
954.831 4.26096 -0.296707
560.938 7.4444 -0.286423
352.55 33.7464 -0.457829
175.219 6.7768 -0.392691
642.637 10.066 0.124305
557.556 21.7423 0.134583
834.536 12.0967 0.359771
236.162 8.62208 -0.105933
287.892 6.17159 0.288675
744.836 27.5904 -0.13727
719.938 13.86 0.0924303
153.598 16.75 -0.454662
248.075 33.3859 0.394127
244.244 12.8119 -0.259762
323.048 9.27148 0.421882
381.113 30.8995 0.42822
590.064 8.47056 0.34722
461.176 34.9418 0.100597
669.123 42.4782 0.254338
949.963 29.3743 -0.433444
803.916 41.6815 -0.423426
515.133 15.6807 0.293775
269.63 42.2712 0.122219
552.25 26.3401 -0.466743
663.005 18.2081 0.226218
49.8162 14.9964 -0.461801
828.729 29.4311 0.326696
541.665 4.7691 0.324079
18.5774 22.0893 0.305596
919.658 40.8322 -0.240002
556.28 2.47453 0.457975
88.6543 41.8511 0.102509
586.743 29.1767 0.328019
597.203 16.2644 -0.416547
384.81 21.2986 -0.184086
600.462 24.7596 -0.324525
393.378 31.9811 -0.398386
270.475 14.3829 -0.312683
487.287 34.0731 -0.0640331
776.933 6.5807 -0.0946333
216.605 6.25612 0.335692
61.8275 6.83596 0.0909423
76.1588 8.6347 -0.258664
796.338 8.36268 0.501805
26.4013 11.3597 -0.293055
693.118 43.1137 0.352836
778.428 21.7725 -0.342695
193.911 30.7997 0.290992
896.524 32.5974 0.118707
39.1686 27.4271 -0.114377
601.396 2.92508 0.315627
159.36 7.12463 0.463512
671.834 32.5056 0.358727
567.274 25.1574 -0.118381
195.741 0.912329 -0.255532
36.4722 2.4129 -0.281258
390.598 16.9835 0.265904
705.65 43.2441 -0.131612
519.384 32.4237 -0.171644
447.812 1.03608 0.186121
809.31 7.49521 -0.317312
29.2116 41.3047 0.235794
287.716 29.5534 0.294297
834.653 7.2457 0.183052
770.509 42.3189 -0.342892
468.652 8.54949 -0.415657
643.495 3.51865 -0.324747
871.312 28.1042 -0.379678
146.824 7.41336 -0.271483
560.73 24.2828 -0.130159
536.794 14.8364 -0.102241
330.071 16.2143 -0.352433
23.2292 13.0751 -0.229173
925.207 30.0012 0.320881
373.512 37.1666 -0.278291
775.727 18.9308 0.338432
796.008 12.1071 -0.23563
936.475 10.5884 0.181477
523.153 33.3723 0.168156
103.888 35.4908 -0.261374
789.146 32.3359 -0.210453
741.65 36.3925 0.0965405
958.603 34.8092 0.100274
928.052 1.27376 0.490837
326.639 27.7819 -0.424071
707.967 6.3004 0.0885115
27.2039 5.26298 0.399717
148.961 36.63 0.139947
578.11 13.8676 0.18048
915.046 22.8342 0.501226
219.53 26.9092 -0.228785
50.0002 33.4095 -0.261815
555.098 1.15839 -0.0319906
265.249 8.70864 -0.351393
874.572 36.8572 0.235622
900.668 24.6225 -0.24787
405.948 19.8152 -0.248866
184.837 25.7513 -0.438791
621.465 36.7684 0.40156
428.179 14.6084 -0.470986
465.888 28.2498 -0.0980375
425.554 4.43642 0.405064
619.311 10.6649 -0.0967495
959.942 11.139 -0.157861
91.2061 37.579 0.388462
377.205 4.66247 -0.177552
635.333 9.22142 -0.314914
405.266 42.2308 -0.44121
29.0294 23.6973 0.469847
34.1615 5.69155 -0.336289
645.079 29.9392 0.402227
570.765 23.0748 0.141048
29.3409 35.6313 -0.407122
104.676 28.0271 -0.219881
365.67 15.2341 -0.313869
683.171 18.1091 -0.129719
536.711 36.0368 0.294877
855.391 7.50166 0.362832
845.556 6.05572 0.180927
436.153 35.2354 -0.0945716
726.901 23.8849 -0.0960541
268.394 15.8963 -0.484441
371.816 3.57093 0.465207
116.618 29.9928 -0.309855
130.875 23.0956 0.268575
616.572 37.1728 -0.0667433
344.677 18.4489 0.471134
823.683 32.9621 0.107243
775.468 41.1236 0.105648
543.661 19.7133 -0.385736
905.483 8.56562 -0.294399
484.627 22.3076 0.216998
312.473 23.5599 -0.313169
777.23 29.3493 0.278243
314.454 27.7547 0.391761
655.906 11.0902 0.168811
374.395 33.7009 0.189111
571.718 11.0889 0.435872
414.243 29.8011 0.0862515
487.302 15.9492 -0.106029
359.619 40.2132 0.440259
215.634 28.0648 0.114908
909.126 41.1864 -0.151308
955.114 11.6493 0.209299
7.01361 11.9874 -0.419213
491.522 21.6305 -0.404471
42.9308 21.7253 0.0907501
424.932 29.7435 -0.468431
447.392 23.4924 -0.25152
83.7304 11.5455 -0.466762
58.0432 32.0183 -0.442786
256.212 12.9927 0.425333
707.268 37.165 0.376178
658.703 19.2469 -0.429042
84.3212 20.2407 -0.461487
807.556 44.4013 0.40886
889.886 2.41421 0.41296
762.237 39.1779 0.452491
804.181 2.33516 0.370641
626.549 25.128 -0.388306
670.752 42.8934 -0.436802
582.452 17.589 -0.372862
951.603 2.92006 -0.224433
253.282 23.6968 -0.110646
144.614 33.5087 -0.196848
280.105 6.50107 0.358354
106.861 3.96608 0.217474
72.2535 9.76671 -0.187304
312.358 34.6788 -0.293617
19.1989 23.6996 -0.365438
632.597 18.5071 0.380431
692.621 38.0489 -0.18682
525.185 20.3362 -0.336118
940.229 35.8658 -0.35172
461.218 8.19255 0.109835
494.593 34.4904 0.360949
610.805 3.40017 -0.17861
25.8172 23.0323 -0.372479
658.861 4.14889 -0.397659
621.585 4.31978 -0.281248
233.871 10.8061 -0.488819
482.94 15.9112 0.189007
352.743 6.12907 0.296356
440.064 18.1221 -0.345686
860.253 40.4548 0.107734
218.165 23.7495 -0.412541
918.995 6.68581 -0.326345
859.188 36.7983 0.314034
434.828 9.85882 -0.190038
831.226 2.37616 0.376543
692.839 23.9889 -0.409661
864.366 17.8151 0.35907
489.191 40.6946 -0.264035
565.404 12.0088 0.387123
529.241 42.2883 -0.218276
506.372 8.521 0.144212
765.804 38.0395 0.254513
763.053 33.9583 -0.290527
217.873 36.7243 0.33564
934.207 10.5236 0.11838
673.23 43.4539 0.241657
12.9301 16.6486 0.168524
463.156 24.1301 0.326462
212.844 21.702 -0.406795
105.655 36.163 0.202886
912.631 20.3357 -0.398149
758.969 42.0749 -0.228833
361.944 24.447 0.362958
607.187 9.91455 0.319466
94.0083 41.562 0.161875
281.466 25.1715 0.475757
635.856 22.4425 0.368549
553.81 17.7181 0.40272
298.262 0.891116 -0.34223
632.169 38.1161 -0.35512
609.472 39.2986 -0.432625
549.201 31.5603 0.377486
568.542 0.761226 -0.465571
816.232 17.2935 0.389786
203.923 11.3129 -0.166265
570.245 33.682 -0.417114
646.093 37.8951 0.114863
81.8782 0.917453 -0.283605
285.837 4.53373 0.162217
954.17 13.4722 -0.184035
936.921 12.4851 0.383577
962.209 15.5435 0.443479
344.414 8.38784 -0.224395
871.943 21.5488 0.383511
462.583 39.4702 0.311578
510.837 0.805413 -0.404248
749.209 33.7665 0.413569
30.7635 29.2923 0.296802
375.655 39.8769 -0.451312
286.822 2.72315 0.298099
922.181 37.2909 0.172179
828.675 44.6197 -0.00526126
326.209 10.582 0.159568
770.067 27.3953 0.0951323
637.08 2.66449 0.23254
619.228 6.31205 0.418888
110.612 16.5348 -0.50673
344.194 1.03534 -0.214852
390.382 2.24433 -0.368576
15.6782 7.70975 0.439686
4.83132 29.1734 0.235055
184.068 18.4375 -0.342423
78.3232 40.2709 0.207142
75.7828 27.7751 -0.321349
482.461 14.2173 -0.39472
417.753 33.2287 -0.469976
894.59 33.7918 0.116671
22.2688 3.84979 0.289105
79.4972 6.67859 0.162103
719.49 36.1093 0.137582
334.988 0.926247 0.318242
414.951 15.6646 -0.101669
268.483 4.50377 -0.353265
754.273 20.535 -0.158858
514.278 8.12346 0.377284
875.044 19.3826 0.340433
726.529 27.609 -0.298037
774.571 16.6646 -0.0929372
478.536 25.4147 0.465734
116.332 42.0043 -0.302968
620.631 40.5573 0.0673483
861.144 13.5975 0.183385
270.815 28.6014 0.230083
36.1497 16.3335 0.16293
382.33 13.5374 0.467014
123.142 38.4333 -0.466267
304.558 40.8146 -0.184165
484.621 1.04996 0.185236
921.928 27.0774 -0.377668
796.139 0.799196 0.462404
377.838 2.93371 0.425016
341.523 25.7132 0.14696
527.75 39.3009 -0.19862
92.2334 7.28177 -0.483333
225.547 42.7868 0.377618
903.778 26.9168 0.340249
564.642 37.3279 -0.0649777
227.694 39.146 0.23812
183.41 40.1466 0.386542
962.014 31.1456 0.392144
958.127 11.1038 0.439836
696.467 3.61951 -0.470502
216.603 22.7787 0.0920944
628.808 27.0058 0.111372
630.841 26.5444 0.255427
466.226 5.50693 -0.133725
549.437 0.93627 -0.281262
892.663 35.9183 0.478251
97.211 28.8505 -0.214234
759.536 17.6881 0.43103
312.068 15.2385 -0.32145
11.4462 2.31517 -0.327201
143.044 34.9768 -0.185384
76.2154 22.5661 -0.436623
815.671 34.7362 0.305078
928.527 41.1315 -0.161939
211.825 26.517 0.173554
949.328 11.1984 -0.300555
51.084 35.1125 -0.247438
103.489 26.4711 0.157634
730.826 12.5838 0.408314
471.522 17.3259 -0.484205
593.759 16.135 -0.101903
271.601 26.7835 -0.179069
715.784 4.48086 0.388998
963.255 10.5325 -0.328704
33.9649 30.5523 -0.264197
307.401 7.62303 0.193047
253.59 14.5804 -0.271855
1.10607 33.8723 0.150314
257.157 14.0809 -0.361347
241.904 10.8013 -0.128926
244.671 25.1081 0.268637
151.191 27.0368 0.126381
626.548 14.5498 0.316902
190.366 13.4212 0.357222
916.458 39.3076 -0.213483
198.235 3.68439 0.433919
53.9147 36.1225 -0.344433
867.884 46.2413 -0.426698
319.943 30.1944 0.38783
785.014 21.954 0.420498
933.287 27.5293 -0.530348
342.395 9.04563 0.0940966
857.241 28.4023 -0.337279
374.367 2.67976 -0.327111
474.482 22.9524 0.360961
781.52 15.2811 0.408183
120.89 11.5687 0.40831
551.223 3.96283 -0.451794
879.097 17.1825 0.197394
100.24 7.4442 0.197614
320.37 14.3317 0.200691
483.071 11.4621 -0.207584
949.739 2.47288 -0.294794
453.43 1.73469 -0.401211
202.038 36.9094 0.260844
864.432 10.1075 0.307814
146.449 34.6242 -0.174418
299.548 30.7315 -0.380077
457.058 20.7838 0.206583
658.638 12.8432 -0.315851
441.625 9.67996 0.415681
521.109 26.6878 -0.403025
904.79 43.1897 -0.36391
53.9345 10.7414 -0.0865298
340.939 36.1591 -0.255027
433.231 25.3428 -0.377123
467.401 20.3403 0.272717
596.586 42.6562 0.356637
884.879 34.9034 -0.18504
769.527 33.2933 -0.357243
257.018 33.0237 0.398204
16.0538 29.816 -0.149759
761.454 35.2738 -0.117271
582.666 39.7194 -0.431815
262.115 37.0402 0.0929694
793.293 30.2176 -0.106199
172.202 9.03362 0.18414
418.049 20.3536 0.266619
529.653 40.1651 0.0937606
472.604 18.7077 0.195724
900.191 45.9599 0.291016
486.089 3.2871 0.4161
56.8203 23.9333 -0.293575
537.214 30.0152 0.344161
496.033 39.751 0.352123
918.614 32.6484 -0.218782
854.171 27.5478 0.228635
619.49 17.9396 -0.152344
909.049 34.2915 -0.407472
334.003 2.02037 -0.446757
432.262 26.7841 -0.448663
32.7267 37.4287 -0.293085
860.594 29.1976 0.132741
702.255 19.2546 -0.482423
529.008 0.805546 -0.450616
144.124 4.37889 -0.280983
487.69 38.3161 -0.0999607
14.0799 0.91774 0.29447
948.52 5.30154 -0.122123
[...]
POINT_DATA 13483
TENSORS Strain_matrix float
-0.0132859 -0.10983 -0.184818 
-0.103643 -0.05675 0.218545 
3.50195e-18 9.8893e-19 1 

-0.0767813 0.00634645 5.05219 
0.00874847 0.0211297 2.21633 
9.75374e-19 -4.93518e-18 1 

-0.0189651 -0.0124656 -0.782354 
0.0144829 -0.0869647 0.955112 
-2.89911e-18 -5.35896e-18 1 

-0.182684 0.0100266 0.100709 
-0.0192793 0.00718042 0.0625116 
-1.33432e-17 -9.50002e-18 1 

-0.0329397 -0.0195221 0.00799513 
0.0382008 -0.0738361 0.0137403 
-2.71514e-18 1.18334e-17 1 

-0.0378284 -0.0308174 1.77436 
-0.009143 -0.0604107 -0.0568685 
-1.04156e-17 -6.26658e-18 1 

-0.00568074 -0.0727831 0.300627 
-0.00976396 -0.0872687 0.111292 
-8.74256e-19 -7.27013e-18 1 

-0.0226923 -0.0912151 -0.360386 
0.0309392 -0.105453 -0.203191 
-6.13659e-18 2.86221e-19 1 

0.0097032 0.0525978 -0.152747 
0.0515025 -0.0692005 -0.15927 
-1.87832e-18 -6.26107e-19 1 

-0.134691 0.0318784 -0.0684769 
0.0471179 -0.0498815 0.138569 
1.26233e-17 -1.18156e-17 1 

0.0441615 -0.113673 0.0477388 
0.0284793 -0.125412 -0.0480913 
-3.47676e-18 -4.09031e-18 1 

-0.0167843 0.00348722 -0.0743805 
-0.0360255 -0.111644 -0.197557 
3.25662e-18 3.20873e-18 1 

-0.044508 0.150347 -0.594469 
-0.0207051 -0.0346795 -0.14509 
2.61095e-18 -2.74837e-19 1 

-0.0792461 0.0404907 -0.00508583 
-0.0129674 -0.0474194 0.166176 
-1.49266e-18 -1.52442e-18 1 

-0.0571078 0.00827136 0.647898 
0.00558542 -0.051029 1.03755 
5.85008e-18 -9.61547e-18 1 

-0.0421889 -0.0915781 0.308911 
-0.0277935 -0.051451 0.432788 
-1.00327e-18 -1.63496e-18 1 

0.0131713 0.00138874 0.089663 
0.0619269 -0.158833 0.217774 
8.99735e-18 2.59433e-18 1 

-0.0226147 0.00968591 -1.21691 
-0.00399237 -0.11943 -0.133942 
-6.47062e-18 -9.72132e-18 1 

-0.00806674 -0.114556 1.84357 
-0.166536 -0.0958227 -1.22124 
7.37975e-19 7.29293e-19 1 

-0.026896 0.0426832 0.308113 
-0.0787312 -0.101245 -0.13339 
3.36953e-18 4.45967e-19 1 

-0.0549558 -0.0292586 -0.0202019 
0.0342768 -0.029639 0.0871149 
6.13804e-18 1.67681e-17 1 

-0.059249 -0.0343345 0.248521 
0.01688 -0.0351023 -0.0247101 
6.72021e-18 6.31414e-18 1 

-0.0900218 0.0548855 -0.16064 
-0.157257 0.0302213 0.205812 
-1.29965e-17 8.70409e-18 1 

-0.0861776 0.0437069 0.8765 
-0.00934592 0.046669 -0.515279 
-3.26587e-18 1.95187e-17 1 

-0.0258476 -0.048727 0.104619 
0.03989 -0.0525304 0.111908 
5.18961e-18 0 1 

-0.0259018 0.0519129 -0.164064 
-0.0919521 -0.00709564 -0.00365969 
1.05256e-17 1.66344e-17 1 

-0.0299484 -0.00703651 0.836506 
-0.0107525 -0.0770891 -0.586727 
-2.20304e-18 -1.12993e-18 1 

-0.0364464 -0.0186345 -0.0441987 
0.0216733 -0.0571836 0.159779 
1.36814e-18 2.74555e-18 1 

-0.0384271 -0.00545178 -0.658574 
0.0248923 -0.0953337 -1.69829 
1.58662e-18 -5.57459e-18 1 

-0.143811 -0.0552831 0.059885 
-0.0378868 -0.0338003 -0.433077 
-9.64012e-18 -1.0039e-17 1 

-0.0338444 -0.0377831 -0.0397357 
-0.00897651 -0.172255 0.442924 
-3.51133e-18 1.64166e-18 1 

-0.0161271 0.0821887 0.340002 
0.128224 -0.131922 0.361277 
-1.29486e-18 5.818e-18 1 

-0.126863 0.0243077 1.01017 
0.0711097 0.0235927 0.326369 
-9.88504e-18 -7.38145e-18 1 

-0.00255815 -0.0161147 0.187431 
-0.0115171 -0.0198001 -1.64896 
-2.78041e-18 5.08833e-18 1 

-0.0411761 0.139004 -0.0908757 
-0.132945 0.0424494 0.168113 
-1.78589e-18 -1.39044e-17 1 

-0.0440585 0.0101888 -0.253822 
-0.0213452 -0.0502218 -0.103685 
-7.44356e-19 6.45108e-18 1 

-0.0290814 0.00385193 0.331865 
0.00982168 -0.0710528 0.232492 
6.95097e-18 -9.53832e-18 1 

0.157392 -0.101879 -0.0291116 
0.0722323 -0.326742 -0.130668 
-2.07347e-18 2.41905e-18 1 

-0.0151524 -0.0414727 -0.0654384 
0.106875 -0.0859475 0.0866615 
-1.07661e-17 -1.48123e-17 1 

0.0296489 -0.0265755 0.509882 
0.125902 -0.0742469 2.06816 
1.56964e-17 -1.36937e-19 1 

0.0134234 0.0237808 0.513705 
-0.0258761 -0.186553 0.940008 
-8.96166e-18 1.13605e-17 1 

-0.0025885 -0.0356303 -0.195271 
-0.117459 -0.085119 -0.190013 
2.36538e-18 -9.77276e-18 1 

0.00494484 -0.0279402 0.265664 
0.0172566 -0.176488 -0.133999 
-5.28566e-18 8.12506e-18 1 

-0.00133807 0.00283038 -0.0978762 
0.0425303 -0.108396 -1.39977 
1.71064e-17 8.82937e-18 1 

0.00791582 0.0259144 -0.050294 
-0.00603992 -0.0953158 0.149777 
7.40739e-18 -1.37802e-17 1 

-0.00801562 0.0278693 0.0620185 
-0.014661 -0.0806336 -0.10304 
-6.6839e-18 -9.37215e-18 1 

-0.0788159 0.0189167 -0.759655 
-0.0334935 -0.0756766 -0.753829 
6.64315e-18 -2.36599e-18 1 

0.00266599 -0.0111419 -0.0977423 
0.0373173 -0.164249 -0.029264 
-3.5691e-18 -3.55769e-18 1 

-0.059183 0.058399 0.0238722 
-0.00648496 -0.027135 -0.399283 
-2.14486e-19 -1.09924e-17 1 

-0.0538115 0.0508412 -0.54573 
-0.000765041 -0.050411 -0.00141276 
-6.67304e-18 -5.6187e-18 1 

-0.0590289 -0.02926 -0.139206 
0.0861463 -0.0138755 0.345767 
-2.55737e-18 1.77904e-18 1 

-0.0714784 0.0699145 -0.0921426 
0.115065 -0.0170527 0.0408285 
-1.55281e-17 3.02902e-18 1 

-0.077965 -0.00120918 0.0157744 
-0.00750495 -0.0131539 -0.0132749 
2.16931e-18 5.08238e-18 1 

-0.0465424 0.0162439 0.0275443 
0.00930016 -0.0693948 -0.150917 
-1.20908e-17 -1.53958e-18 1 

-0.0215238 -0.011699 0.238761 
-0.0296161 -0.127283 -0.407794 
-5.63804e-18 -5.41415e-18 1 

-0.0387072 -0.0332997 -0.893507 
0.0203147 -0.0259663 -0.156956 
-9.76687e-18 -4.32315e-18 1 

-0.034783 -0.0725916 0.117138 
0.119815 -0.0373953 0.183641 
-6.28194e-18 4.64602e-18 1 

0.00536504 -0.272324 -0.316529 
-0.0255343 -0.188032 -0.020549 
-8.39868e-19 3.69438e-17 1 

-0.0154657 0.0166166 0.0294312 
-0.0202718 -0.140192 -0.0210624 
1.00712e-18 5.80354e-19 1 

-0.0520371 0.0644484 -0.189549 
-0.0906245 -0.110293 0.496065 
7.55359e-18 -3.60894e-18 1 

-0.0993711 -0.0930336 0.27457 
0.0241439 0.165021 0.00793116 
2.30679e-18 -1.43934e-17 1 

-0.0075361 -0.0192131 0.105963 
0.035094 -0.0348644 0.195321 
4.71671e-18 9.39899e-18 1 

-0.0202756 -0.000116824 -0.0269479 
-0.000818838 -0.0239347 0.0142536 
-1.01858e-17 1.16784e-17 1 

-0.0609101 -0.0176618 0.0724823 
0.021744 -0.0645972 -0.0617641 
4.28067e-18 -2.55531e-18 1 

0.0456832 0.0339374 -0.319989 
0.106046 -0.115587 0.0164399 
2.06156e-18 -1.1278e-17 1 

-0.0383882 0.00232712 0.129178 
-0.0370556 -0.10802 0.307611 
-7.65916e-18 -8.12808e-18 1 

-0.115434 0.0166281 -0.0127833 
0.0630115 -0.0607926 0.0744825 
6.67007e-18 -1.59626e-17 1 

-0.0942288 0.146584 -0.916487 
-0.0797092 0.0196886 -0.667653 
-1.48933e-17 -1.01264e-17 1 

-0.012572 0.00824149 0.136966 
-0.044465 -0.147125 0.495917 
-1.27968e-17 -3.98954e-18 1 

-0.0702604 -0.0124793 0.0817929 
-0.00938062 -0.0924922 0.0931178 
2.55294e-17 3.95804e-18 1 

-0.0474126 0.0712808 0.0855951 
-0.0919124 -0.0308119 0.440827 
1.98974e-18 3.13898e-18 1 

-0.0179251 0.0260532 0.0302829 
-0.0214117 -0.0905628 -0.0741222 
1.93529e-18 -6.35017e-18 1 

-0.0260924 -0.0152312 0.0319632 
-0.0219853 -0.0777456 0.145436 
-5.48452e-18 2.16578e-18 1 

-0.0104661 0.0331028 -0.15726 
-0.0268075 -0.0786944 0.343591 
5.24204e-18 -1.73359e-18 1 

-0.0204525 -0.0319545 -0.0781663 
0.00894459 -0.0835655 -0.234475 
9.18357e-19 -5.82734e-18 1 

0.036203 0.0170413 -0.116673 
-0.117921 -0.175638 -0.0429442 
3.30212e-19 1.90285e-17 1 

-0.0884459 0.00798937 -0.316879 
0.104388 -0.0368871 0.243574 
-1.38661e-18 -3.6241e-18 1 

-0.00458172 0.0730176 0.0589809 
-0.04383 -0.020558 -0.00230107 
-2.49328e-18 1.09998e-19 1 

-0.103053 -0.0202942 -0.0371731 
0.0741516 -0.0448488 0.136149 
-2.61057e-18 -8.93188e-18 1 

-0.0525461 0.0369764 0.23362 
-0.0302946 -0.0354374 -0.156437 
3.24433e-18 -1.29773e-19 1 

-0.121383 0.0239874 0.109215 
-0.0184172 -0.0712194 -0.219686 
-6.72286e-18 -8.78088e-18 1 

0.00185992 -0.0159532 -0.1278 
0.0288759 -0.0241672 -0.0555158 
6.98407e-18 3.62809e-19 1 

-0.0085806 0.135628 -0.120932 
-0.129306 -0.043221 -0.102223 
1.27189e-17 -3.12697e-18 1 

-0.261051 -0.168891 -0.643281 
0.181871 0.0811323 0.0126447 
-1.82166e-17 -5.63816e-18 1 

0.0100255 0.0444861 -0.172745 
-0.078284 -0.0669582 0.29608 
1.23535e-17 2.68845e-18 1 

-0.086258 -0.0166339 -0.370287 
-0.0108996 0.0238517 0.0472674 
9.22524e-18 1.57248e-19 1 

-0.123299 0.0239247 -0.232379 
0.00661609 -0.044806 -0.691876 
-5.30542e-18 1.67506e-17 1 

-0.00212153 0.0984996 -0.248094 
0.0503637 -0.105948 0.646699 
9.19703e-18 -9.46233e-18 1 

-0.0632803 -0.00962065 0.0271028 
0.0225947 -0.0606879 -0.115271 
4.5207e-18 5.67663e-18 1 

-0.0448179 -0.00760609 0.0460531 
-0.015305 -0.0713842 -0.144559 
-3.02204e-18 1.16852e-17 1 

-0.0712308 -0.139966 -0.0375127 
0.0116862 -0.0385949 -0.0280617 
1.98349e-17 -1.42604e-18 1 

-0.00866714 0.0416466 -0.0578752 
0.040466 -0.0911683 0.186566 
-3.21188e-18 -1.1451e-17 1 

-0.12235 0.00256712 -2.40488 
-0.0107067 -0.0169297 0.729073 
-2.56408e-18 5.40829e-18 1 

-0.0675099 0.0189204 -0.308037 
-0.0884189 -0.0490797 0.120116 
1.0853e-18 -1.05451e-18 1 

0.0146343 0.0189892 -0.208256 
0.0383936 -0.0579242 0.411063 
-8.733e-18 -9.62317e-18 1 

-0.0187348 -0.0125351 0.151204 
-0.0173949 0.120719 -0.408709 
-1.19478e-17 3.81358e-17 1 

-0.0413974 0.0230356 0.0108009 
0.0121228 -0.0637662 0.730903 
2.37064e-18 2.77717e-18 1 

-0.0741187 0.337387 0.169066 
-0.245388 0.0423168 -0.30702 
-4.1256e-18 -5.56554e-18 1 

-0.0919031 0.0245953 0.00214002 
-0.0302203 -0.000153766 -0.00567714 
1.6401e-18 -1.62859e-17 1 

0.0541403 0.0118062 0.295049 
-0.0509387 -0.120386 0.116573 
5.53492e-18 -3.87648e-18 1 

0.0119895 0.00795148 0.87597 
-0.0146331 -0.0670966 1.65216 
-3.11759e-18 3.77087e-18 1 

-0.11446 0.0337951 0.00294417 
0.00838736 -0.0032991 0.251119 
1.30051e-18 1.04041e-17 1 

0.0223766 0.0566293 0.609571 
0.0134585 -0.10087 0.179837 
-6.28836e-19 -3.79282e-18 1 

-0.0422602 -0.0332073 -0.0327347 
0.00127162 -0.0364937 -0.113514 
1.76521e-18 -4.60216e-18 1 

-0.00590499 -0.0142078 -0.485828 
0.0200587 -0.100268 -1.68212 
6.30473e-18 3.94523e-18 1 

-0.0589734 0.0122697 0.217849 
0.0110956 -0.0675714 0.106956 
8.66656e-18 4.94496e-18 1 

-0.100443 0.0744968 -0.0786906 
-0.084379 -0.0149942 -0.214527 
-1.7471e-18 -9.80315e-18 1 

0.105469 0.0508467 0.0981694 
-0.00700269 -0.14495 -1.46305 
7.96251e-20 -1.04724e-17 1 

-0.014415 -0.0257365 -0.0751534 
0.00461801 -0.0967004 0.109328 
6.92769e-18 1.52817e-19 1 

-0.0383173 0.00595359 0.0804706 
0.0171265 -0.0998216 -0.0373983 
6.92638e-18 -5.7502e-18 1 

0.0164645 -0.110994 0.419878 
0.00181341 -0.117553 0.686699 
6.9491e-18 -3.55439e-17 1 

0.0176704 0.0420427 -2.02681 
0.0164424 -0.107777 3.13862 
-2.3493e-18 -8.61679e-19 1 

-0.0114258 0.0226555 0.0205498 
-0.0293767 -0.126686 0.0559601 
5.7677e-18 1.28171e-18 1 

-0.059059 -0.0157865 0.115721 
-0.0527565 -0.0385629 0.322784 
-2.72051e-18 2.46481e-18 1 

-0.0374973 -0.0517969 0.00724677 
0.00845669 -0.0331012 0.107148 
-5.41619e-18 8.1135e-18 1 

-0.0102674 -0.0388854 0.0522868 
0.0117477 -0.0201961 0.136751 
-2.55293e-18 -1.78125e-17 1 

-0.122274 -0.0116862 0.117494 
-0.0530492 -0.0258715 0.0466443 
-1.28835e-17 3.36092e-18 1 

-0.0387757 -0.0234485 0.0295441 
0.0329685 -0.0501573 -0.208223 
-8.04657e-20 6.43725e-19 1 

-0.0961729 -0.0927043 -0.0577445 
0.0286893 -0.0139006 -0.162562 
-2.18563e-18 6.81103e-18 1 

-0.0213138 -0.027342 -0.00590486 
-0.0102426 -0.0186641 -0.0499285 
6.3758e-18 2.84821e-18 1 

-0.0858927 0.0302597 0.156343 
-0.00991501 -0.116103 0.189337 
4.78457e-18 -3.68694e-18 1 

-0.0833142 0.0513561 -0.108973 
-0.04021 -0.0574866 -0.0130443 
-9.32406e-18 -1.14006e-18 1 

0.0305213 0.0697871 0.106779 
-0.0354845 -0.0637039 0.136102 
-1.50495e-18 2.12464e-18 1 

-0.0789574 0.127542 -0.018328 
0.0650808 0.0100272 -0.0906128 
-3.49502e-18 -2.19848e-18 1 

0.0377535 -0.0301069 3.52885 
0.0209917 -0.147303 2.6312 
-1.13372e-18 6.11841e-18 1 

-0.00414982 -0.0116443 -0.569354 
-0.00647826 -0.141129 -0.710754 
-7.75717e-19 -5.77025e-18 1 

0.0701046 0.0599722 0.35406 
0.207761 -0.188719 0.283052 
-1.33777e-17 -1.61249e-18 1 

-0.049304 0.0466187 0.462252 
-0.0104953 -0.103891 0.348184 
5.14523e-18 -3.71016e-18 1 

0.00188302 0.00462761 0.126688 
-0.0387247 -0.0653059 -0.0610257 
1.61378e-18 9.53141e-18 1 

0.00823769 0.010171 2.14581 
-0.00321238 -0.0708336 1.21301 
-3.96851e-18 -4.83617e-18 1 

-0.0820919 0.0435499 -0.19937 
0.0484349 0.0922484 -0.161429 
-5.57975e-18 1.18339e-17 1 

-0.0352784 0.0446036 0.134919 
-0.0220701 -0.0590475 -0.0114553 
2.33364e-18 5.57642e-18 1 

-0.0273769 0.0331157 -0.101469 
-0.0154662 -0.0604494 -0.0586719 
-1.66176e-17 -2.76698e-18 1 

-0.109601 0.0117309 -0.0575834 
0.00935233 -0.064031 -0.0427485 
-1.40414e-18 -5.81715e-18 1 

-0.0281718 -0.0346009 0.0303479 
-0.0239526 -0.0500739 -0.0648455 
-2.35078e-18 -5.19647e-18 1 

0.0271446 0.022554 0.0446014 
-0.158069 -0.0789911 0.1017 
-5.71236e-18 2.28494e-18 1 

-0.149295 0.142997 -0.220607 
0.075476 0.021871 0.321095 
3.89173e-19 1.16752e-18 1 

-0.026657 -0.00332298 -0.407747 
0.0559995 -0.042139 -0.045209 
5.66253e-18 -4.52251e-18 1 

-0.0371899 -0.00248544 -0.0529954 
0.04366 -0.086882 0.0283324 
3.07167e-18 8.12954e-18 1 

0.0163641 0.0268521 0.0433843 
-0.108292 -0.0747127 -0.108741 
1.09016e-17 2.1053e-18 1 

-0.0526735 0.00376266 -0.0721663 
0.00157172 -0.0483473 -0.365638 
1.23401e-17 5.41205e-18 1 

-0.0137321 0.022627 -0.100478 
0.00814321 -0.0507976 0.101647 
6.74027e-18 1.40422e-18 1 

-0.00492679 -0.0144319 -0.0132562 
0.0168375 -0.0549074 -0.202797 
1.43086e-17 2.547e-18 1 

0.00563495 0.0286663 2.61685 
-0.0141296 -0.0707386 1.62546 
4.49056e-18 1.64989e-17 1 

-0.0188063 0.00915311 0.0869785 
0.00254556 -0.0483386 -0.348064 
3.9624e-18 -4.53528e-19 1 

-0.108468 -0.0351887 0.227055 
-0.0143501 0.100758 -0.489402 
-4.51381e-18 1.37039e-17 1 

-0.0829844 0.0101305 -0.0111827 
0.0737582 -0.0200326 -0.140763 
2.85805e-18 7.95973e-18 1 

0.0554401 -0.0500685 -0.13987 
0.128982 -0.181354 -0.25177 
2.76308e-17 7.36691e-18 1 

-0.0168884 -0.0296806 -0.285612 
0.054447 -0.0698681 -0.266106 
-1.09664e-18 1.19141e-18 1 

0.0604665 0.0245723 -0.133433 
0.0607825 -0.096449 0.132834 
-2.75637e-18 -5.22476e-18 1 

-0.00339845 0.0170665 -1.93339 
0.0429409 -0.0844551 -0.836358 
-4.75949e-18 1.36284e-17 1 

-0.0869924 0.115577 0.353414 
0.0479465 -0.0407578 -0.184158 
-2.1268e-18 -7.38451e-18 1 

-0.00826368 -0.0382866 -0.552268 
-0.049078 -0.0872889 0.137871 
-1.38979e-17 -1.68276e-18 1 

-0.0133584 0.0499097 -0.636751 
0.0108105 -0.0689793 -0.618835 
-6.28877e-18 -5.60536e-18 1 

-0.0329085 -0.0265272 -0.696821 
0.0285212 -0.088268 0.131654 
5.12118e-18 6.01365e-18 1 

-0.0174971 0.0303454 -0.0901953 
0.039569 -0.0611378 0.117621 
-7.17341e-19 6.14864e-18 1 

-0.044161 -0.00416472 0.104285 
0.0338339 -0.0691196 0.230093 
2.08714e-18 -1.98532e-17 1 

-0.0394332 0.0248299 -3.14765 
-0.040463 -0.0561475 3.05042 
3.16775e-18 -2.23406e-18 1 

-0.0591125 0.124182 0.717581 
-0.0409225 0.0983137 -1.06244 
-3.16282e-18 -1.07018e-17 1 

-0.128324 0.0486492 0.110004 
0.0413878 -0.0879183 -0.226302 
-1.28121e-17 -5.4582e-18 1 

-0.0564167 0.124443 -0.626988 
0.0522894 0.0180249 -1.81139 
4.33834e-18 -2.61725e-18 1 

-0.0520762 -0.0327683 0.0494351 
-0.0219056 -0.0968712 0.042645 
-8.01675e-18 -4.3e-18 1 

-0.034094 0.0619388 -0.0273183 
0.0874966 -0.0818142 0.675434 
-7.93128e-18 -4.83724e-19 1 

-0.0502572 1.10705e-05 1.02185 
0.019699 -0.0290861 0.77909 
3.45587e-18 -7.87892e-18 1 

-0.0423356 -0.0245692 -0.0625099 
0.0880216 -0.0810486 -0.264947 
7.87316e-18 -5.37511e-18 1 

-0.161044 0.0736551 0.226521 
0.0127006 -0.0449379 0.0553288 
4.55017e-18 -5.17065e-19 1 

-0.0238243 -0.053508 0.189192 
0.0366541 -0.052814 -0.143906 
1.05616e-17 1.12705e-17 1 

-0.0632713 0.0319921 0.257485 
0.0345371 -0.023457 0.0113643 
-1.08456e-17 5.7092e-18 1 

0.00112303 -0.0302519 -0.143497 
0.000984195 -0.122769 -0.192475 
-2.40338e-18 -7.52168e-18 1 

0.00553698 -0.00444486 0.159263 
-0.0114185 -0.122491 -0.55094 
-4.06081e-18 -3.96564e-18 1 

-0.015148 0.0375505 0.0624701 
-0.0191236 -0.071007 -0.042317 
-5.05923e-18 7.41902e-18 1 

-0.0251873 0.0627166 0.058731 
0.0106738 -0.0594238 -0.0984871 
1.45785e-18 -6.02579e-18 1 

-0.114069 0.126602 0.326513 
0.16263 -0.105501 -0.461506 
-1.51823e-18 5.81988e-18 1 

-0.0493309 0.0164951 -0.0142996 
-0.0546704 -0.040085 -1.33552 
-5.71532e-18 9.36298e-19 1 

-0.0538334 0.0991851 -0.226645 
0.0191837 -0.0148497 0.110151 
-4.22552e-18 2.21006e-18 1 

-0.0741765 0.0134535 0.137461 
-0.0113049 -0.0556523 0.0014218 
-4.6834e-18 -1.3062e-17 1 

-0.209307 0.0957406 -0.232575 
0.109287 0.16675 -0.220855 
-1.44816e-18 -8.48209e-18 1 

-0.0251149 0.0242307 -0.0198388 
0.0170512 -0.092684 -0.0949152 
-2.47557e-18 -5.70961e-18 1 

0.00304875 -0.0179082 0.211896 
0.0820215 -0.0442012 0.0372541 
7.34791e-18 6.67346e-18 1 

-0.0364382 0.040621 0.0267323 
-0.0264065 -0.0989929 -0.0345137 
6.84784e-18 7.62349e-18 1 

0.000373822 0.105575 0.398029 
-0.124866 -0.06138 -0.382119 
-7.77626e-18 1.29841e-18 1 

-0.0417219 -0.0451709 -0.0451911 
0.0575369 -0.152624 0.030841 
-8.65481e-18 -7.37653e-18 1 

-0.0245377 -0.00111293 -0.0510499 
-0.0347991 -0.0773943 0.0113499 
1.51975e-17 6.25506e-19 1 

-0.0389829 -0.021609 -1.39584 
0.0122808 -0.0988234 -0.657786 
4.46066e-18 -1.1063e-18 1 

-0.0685103 -0.0344823 -0.0472471 
0.0394723 -0.0521381 -0.255562 
-1.88786e-17 -3.45341e-18 1 

-0.0256283 0.0481507 0.0725253 
-0.0957663 -0.0778598 0.114473 
-1.01299e-18 2.27923e-18 1 

-0.0442077 0.0680754 0.305145 
-0.0922847 -0.087966 0.16228 
-3.06198e-19 -7.3751e-19 1 

-0.110554 0.00944497 0.400421 
0.123704 0.0238212 0.101323 
1.07701e-17 1.20682e-17 1 

-0.0756298 0.00806849 0.0637362 
-0.0557369 -0.051087 -0.379144 
-1.33647e-18 1.40478e-17 1 

-0.120734 0.0148504 -0.157551 
-0.0309322 -0.0147739 -0.0930393 
-6.84369e-19 7.03119e-18 1 

-0.0653526 -0.053523 0.682749 
0.0749832 -0.0240013 0.27727 
6.28318e-18 -1.10474e-18 1 

-0.0475068 -0.0463104 -0.2121 
-0.0282095 -0.0788956 -0.118872 
-6.34438e-19 -1.09405e-17 1 

-0.0856032 -0.00250506 -0.0626923 
-0.00422459 -0.0597635 -0.232932 
3.09623e-18 -1.40467e-17 1 

-0.136749 -0.000121602 -0.277789 
-0.0188253 0.00948313 0.168147 
-1.00652e-19 7.04562e-18 1 

-0.138533 0.112349 -0.1431 
-0.0989485 -0.0445001 -0.0714211 
-1.38059e-18 -1.00524e-17 1 

-0.0142127 -0.03414 0.237184 
-0.00991111 -0.0546388 -0.260662 
-4.81438e-18 -7.88965e-18 1 

0.00557084 -0.00280175 -0.652395 
0.0977148 -0.116431 0.115978 
-3.71266e-18 -3.81211e-18 1 

0.0174121 0.0753613 -0.103738 
-0.156578 -0.116477 -0.46722 
-9.55746e-18 -1.12579e-17 1 

-0.0200717 0.00408137 -0.0288161 
-0.0482303 -0.102704 0.241842 
-8.28427e-20 1.40833e-18 1 

-0.0709664 0.121526 0.320475 
-0.0422839 0.0639249 0.407911 
-2.81492e-18 -3.51865e-18 1 

-0.00884254 -0.0481351 -0.0268579 
-0.00391295 -0.0562804 1.54478 
2.78134e-18 8.79394e-18 1 

0.0220123 -0.0548995 0.0323329 
-0.0963687 -0.102471 -0.100906 
-2.48866e-18 -8.71032e-19 1 

-0.123727 -0.0122944 0.0185931 
-0.00178042 -0.0206253 -0.19317 
-2.90553e-18 -4.81715e-18 1 

-0.0528555 0.0310089 0.407525 
0.0201676 0.0126397 -0.224257 
-3.17652e-18 2.18675e-18 1 

-0.0669221 -0.00061525 0.147727 
0.041655 -0.0365409 0.171546 
-5.26388e-18 3.05363e-18 1 

-0.0179885 0.0173663 -0.233747 
-0.0511986 -0.0473057 -0.0754803 
-1.43094e-17 -1.74426e-18 1 

-0.00312577 0.0365425 -0.0706291 
-0.023062 -0.087222 -0.203908 
-1.2675e-17 1.59093e-18 1 

-0.0580236 0.127491 -0.105487 
-0.0980384 -0.0296527 0.299406 
7.35763e-18 3.38653e-18 1 

-0.108649 0.0118855 0.06814 
0.000661694 -0.0375271 -0.203148 
6.40913e-18 -1.9515e-18 1 

-0.0142575 0.0166689 -0.049258 
-0.00142359 -0.077384 0.112609 
-1.61957e-18 -3.67103e-18 1 

-0.0276223 0.0322667 -0.00224238 
-0.0591132 -0.0612764 0.24562 
1.814e-18 -1.05235e-17 1 

-0.0729291 -0.00621391 -0.113175 
0.00742166 -0.0648389 -0.384971 
-7.28684e-18 5.40481e-18 1 

-0.00492656 0.0441895 0.206913 
0.0582857 0.118648 -0.0929391 
-3.00217e-18 -2.42318e-17 1 

-0.00849179 -0.0213498 -2.11074 
-0.0020439 -0.069971 2.37318 
1.8287e-18 6.11427e-18 1 

-0.0395493 0.116511 -0.284261 
-0.0326627 -0.0675149 0.0604399 
-2.52313e-18 3.79576e-18 1 

-0.0264337 -0.0145175 -0.0322977 
-0.00123619 -0.0647339 -0.00999604 
6.20242e-18 2.59282e-18 1 
