# vtk DataFile Version 3.0
Output file generated by Yade's KinematicLocalisationAnalyser
ASCII
DATASET UNSTRUCTURED_GRID

POINTS 13483 float
670.079 27.2693 -0.457842
874.279 48.343 -0.47767
131.431 6.15174 -0.442572
916.277 5.733 -0.334138
546.329 7.50906 -0.301144
343.374 34.0838 -0.461907
170.862 6.73549 -0.411221
625.9 10.0408 0.130698
543.176 22.135 0.142452
808.91 12.6196 0.368152
230.185 8.73691 -0.105032
280.591 6.21326 0.291276
724.389 28.6919 -0.134283
700.36 13.8415 0.0845273
149.87 16.8487 -0.458718
241.906 33.8847 0.396158
237.834 13.0967 -0.250055
315.029 9.35904 0.400147
371.619 31.2734 0.425072
574.707 8.49715 0.34867
449.995 35.0429 0.0951394
651.761 43.7581 -0.0335913
913.098 35.7149 -0.49806
780.485 42.9156 0.435062
501.86 15.9565 0.295781
262.863 43.1206 0.123987
537.925 26.6351 -0.475796
644.793 19.0062 0.230297
48.872 15.2068 -0.458972
804.309 30.119 0.325372
527.65 4.83662 0.32167
18.1072 22.3172 0.312686
886.87 45.3578 -0.248782
541.798 2.47713 0.473864
86.2425 42.8621 0.101396
571.745 29.6504 0.329681
581.612 16.3551 -0.417939
375.101 21.4835 -0.195415
585.172 25.1392 -0.322563
383.211 32.6535 -0.385542
263.678 14.4308 -0.308864
474.939 34.8063 -0.0636315
754.522 6.55167 0.1675
211.047 6.32872 0.343159
60.4882 6.91593 0.0931131
74.4847 8.68937 -0.265177
772.915 8.37685 -0.448196
25.783 11.5111 -0.290993
675.294 44.3249 0.356061
755.075 22.8852 -0.34741
188.954 31.2877 0.283883
866.824 34.9953 0.122042
38.3058 27.5308 -0.113804
585.783 2.923 0.323186
155.385 7.18448 0.466304
654.103 33.2496 0.36713
552.714 25.628 -0.119815
190.853 0.915848 -0.26027
35.6795 2.40066 -0.293464
380.86 17.1683 0.266991
685.916 45.1583 -0.132526
505.951 32.9754 -0.176684
436.592 1.03419 0.186568
784.815 7.63029 -0.31772
28.7591 41.717 0.234883
280.415 29.8688 0.294713
808.842 7.84989 0.183189
747.741 44.5362 -0.349491
456.843 8.48153 -0.469034
626.663 3.509 -0.337413
844.399 30.1865 -0.378251
143.121 7.48662 -0.275623
546.253 24.7011 -0.133685
522.912 15.0729 -0.101242
321.978 16.4592 -0.334006
22.6931 13.1866 -0.227666
891.75 33.0326 0.310315
363.563 37.9941 -0.278498
752.148 20.5842 0.355932
771.679 13.0879 -0.231287
901.096 10.801 0.254105
509.685 33.94 0.164475
101.603 36.2114 -0.263534
765.909 33.6692 -0.218678
721.69 37.2051 0.0905298
919.424 41.7791 -0.10362
894.155 0.75026 0.510148
318.533 28.2879 -0.431458
688.635 6.3697 0.0762388
26.5449 5.2728 0.445132
145.369 37.1569 0.13726
563.134 14.0078 0.185401
882.713 25.1096 0.569154
213.906 27.4491 -0.223368
48.7349 33.9251 -0.263207
540.648 1.15882 0.105168
258.425 8.74755 -0.360142
846.223 40.1294 -0.25577
870.394 26.1319 -0.247112
395.748 20.2697 -0.264132
179.988 26.23 -0.43882
605.286 36.9299 0.398963
416.886 14.7654 -0.507386
454.051 28.6137 -0.0962364
414.814 4.4685 0.406181
603.268 10.7866 -0.087281
921.047 11.8043 -0.180976
88.6951 37.9938 0.387928
367.786 4.68624 -0.180698
618.875 9.41151 -0.325701
395.024 42.7532 -0.440226
28.5687 23.9363 0.476629
33.4053 5.73427 -0.332452
628.055 31.6943 0.396507
555.985 23.3621 0.139198
28.8961 35.96 -0.408127
102.53 28.7152 -0.224327
356.506 15.4911 -0.315978
664.844 18.5328 -0.1103
522.942 36.8899 0.295514
828.196 7.48118 0.438896
819.453 6.02341 0.203811
425.442 35.973 -0.095199
706.505 25.4079 -0.101803
261.515 16.0679 -0.477877
362.538 3.62393 0.468581
113.489 30.5746 -0.3215
127.726 23.3874 0.267921
600.224 37.478 0.0687566
336.08 18.5606 0.471934
798.654 34.1371 0.0956782
752.618 43.2334 -0.107226
529.439 19.9993 -0.38064
874.262 10.1247 -0.223608
472.289 22.5248 0.221969
304.832 23.6913 -0.309793
754.415 31.3291 0.29656
306.775 28.2369 0.395247
638.266 11.2013 0.175526
365.02 34.7125 0.185975
556.836 11.1402 0.447338
403.816 30.2995 0.0854148
474.784 16.0276 -0.105281
350.754 40.4572 0.433039
210.176 28.413 0.117493
878.452 49.6808 -0.155756
916.855 13.7681 0.220205
6.53821 11.9045 -0.429342
478.944 21.7192 -0.412172
41.9502 21.844 0.096106
414.507 30.6302 -0.490466
435.837 24.126 -0.268065
81.9064 11.6192 -0.470408
56.9573 32.5785 -0.432722
249.398 13.1634 0.413199
688.885 37.9311 0.382914
640.742 20.3871 -0.457501
82.4017 20.5276 -0.461324
784.091 45.513 0.418129
859.617 2.42061 0.445196
739.244 42.6038 0.455921
779.942 2.35985 0.367642
609.975 26.0013 -0.390899
653.513 44.0325 -0.435581
567.101 17.528 -0.398681
914.321 2.9592 -0.385613
246.933 24.1555 -0.113143
141.001 34.0923 -0.194147
272.982 6.554 0.366619
104.238 4.00657 0.242824
70.6412 9.83877 -0.194085
304.506 35.1643 -0.300066
18.6053 23.9603 -0.360847
616.416 19.1585 0.388
674.313 39.2943 0.185748
511.667 20.8977 -0.34268
905.328 41.9897 -0.354104
449.532 8.33629 0.102068
482.008 35.3749 -0.363388
594.928 3.4321 -0.184091
25.2021 23.2229 -0.376986
641.332 4.23213 -0.381708
605.472 4.31784 -0.285049
227.983 10.9751 -0.481034
470.539 16.0324 0.181342
343.961 6.16737 0.311315
429.014 18.5032 -0.349772
834.416 42.8084 0.10096
212.221 24.4692 -0.418892
885.713 6.74577 -0.384542
832.434 38.855 0.3104
423.836 10.0387 -0.16595
806.156 2.36581 0.369877
673.788 24.4825 -0.390263
837.053 19.5594 0.352502
477.171 41.5397 -0.270831
550.636 12.2427 0.371241
515.7 43.4511 -0.219878
493.541 8.55269 0.129971
742.687 39.8609 0.253936
740.217 36.014 -0.292079
212.661 37.3439 0.336798
898.977 11.2923 0.116465
656.032 44.4194 0.241629
12.4842 16.5727 0.165627
451.292 24.4182 0.328726
207.059 22.1286 -0.39861
103.386 36.8511 0.197695
880.299 23.0341 -0.442025
736.241 44.725 -0.229263
352.759 24.8501 0.360078
591.433 9.97319 0.317429
91.5659 42.1936 0.161693
274.24 25.443 0.475987
619.361 23.2226 0.363966
539.53 18.0434 0.406461
290.721 0.893738 -0.341943
615.3 39.0795 -0.350097
592.721 40.1755 -0.44097
535.008 31.9964 0.371337
553.774 0.774752 -0.478168
791.388 17.4927 0.376498
198.709 11.4954 -0.168198
555.904 34.207 -0.408309
628.714 39.7675 0.114864
80.1007 0.91101 -0.281915
278.617 4.57567 0.169594
915.913 15.5986 -0.181669
902.077 12.5161 0.437734
922.318 18.8181 0.509917
335.813 8.43119 -0.228396
843.519 22.3198 0.411605
451.692 40.0712 0.312037
497.88 0.810049 -0.398816
728.023 35.7224 0.40946
30.0993 29.5534 0.303818
365.804 40.1551 -0.453532
279.583 2.76102 0.300702
889.709 42.2953 -0.169273
803.578 46.6033 -0.222922
318.031 10.6944 0.174423
747.223 29.5533 0.0899124
620.511 2.68173 0.26795
603.14 6.35785 0.414708
107.839 16.9204 -0.523946
335.639 1.03522 -0.218945
380.569 2.26031 -0.364709
15.3061 7.70554 0.450043
4.7894 29.8587 0.243695
179.381 18.624 -0.356266
76.0198 40.6667 0.206276
73.9097 28.0681 -0.316628
470.032 14.3196 -0.392935
407.2 33.8423 -0.467724
864.704 35.7508 0.130789
21.7525 3.91563 0.283715
77.742 6.74095 0.154525
698.342 38.0246 0.130874
326.579 0.927136 0.319436
404.508 15.969 -0.093293
261.58 4.55022 -0.358309
733.732 21.1359 0.178603
501.263 8.26928 0.380061
846.372 20.2411 0.354174
705.802 28.8684 -0.288253
751.786 18.6489 -0.0928617
466.511 25.8111 0.481773
113.353 43.3803 -0.302456
603.934 40.7082 0.0665435
833.911 15.2263 0.172023
263.807 29.1598 0.239421
35.695 16.3898 0.156465
372.777 13.526 0.476324
119.778 39.248 -0.467004
296.835 41.1151 -0.187692
472.275 1.04309 0.204855
889.303 30.2257 -0.381666
772.343 0.78011 0.589276
368.391 2.98715 0.454807
332.498 26.0636 -0.14431
514.193 40.4728 -0.199714
90.0706 7.5289 -0.479439
219.826 43.6299 0.377515
873.915 29.8713 0.372875
550.245 37.8041 -0.0666142
222.164 39.6583 0.246299
178.668 40.9238 0.384771
923.944 35.7843 0.378404
919.014 11.8213 0.475755
677.694 3.58724 -0.468587
210.906 23.1864 0.091981
612.118 27.2141 0.10285
614.177 26.8176 0.263729
454.371 5.52936 -0.135731
535.257 0.931035 -0.279826
863.266 38.2004 0.470318
95.0013 29.5078 -0.212798
738.283 17.8382 0.44533
304.362 15.3293 -0.320103
11.135 2.31607 -0.339476
139.445 35.6009 -0.187388
74.2611 22.8329 -0.432193
791.768 35.5148 0.295235
895.214 48.6625 0.163017
206.258 27.1305 0.173509
911.626 12.9408 -0.325622
49.7582 35.6639 -0.246636
101.32 27.1787 0.157781
710.859 12.8093 0.444673
459.46 17.5376 -0.486899
578.205 16.2887 -0.103715
264.491 27.2938 -0.178791
696.275 4.49109 0.392946
923.619 10.5107 -0.39015
33.2656 30.7861 -0.26818
299.677 7.64486 0.197448
246.856 14.8405 -0.27966
1.1061 34.4459 0.147787
250.38 14.2354 -0.356106
235.547 10.9571 -0.132119
238.434 25.4977 0.277754
147.544 27.0926 0.136257
610.323 14.7429 0.322344
185.681 13.6788 0.341254
884.352 43.4132 -0.221141
193.24 3.68561 0.461235
52.6666 36.5664 -0.349578
840.677 49.981 -0.426797
312.145 30.7885 0.376273
761.024 23.5139 0.46463
897.793 32.1241 -0.46389
333.819 9.05463 0.101414
830.587 30.8161 -0.34366
365.011 2.64249 -0.341841
462.519 23.2945 0.370732
757.256 16.0706 0.437555
117.71 11.7632 0.408163
537.01 3.95992 -0.456689
850.636 18.2524 0.160679
97.8872 7.41505 0.192108
312.456 14.4262 0.196847
470.655 11.5256 -0.208042
912.624 2.28851 -0.403401
442.028 1.82546 -0.441824
196.951 37.5731 0.266228
836.349 10.8139 0.347788
142.823 35.215 -0.175899
292.165 31.0387 -0.383767
445.291 21.0211 0.205105
640.987 12.9726 -0.323869
430.31 9.53757 0.422443
507.665 27.2563 -0.402573
874.809 49.49 0.372707
52.7771 10.9079 -0.0963757
332.669 37.1921 -0.254249
421.918 25.5679 -0.355348
455.461 20.5648 0.266752
581.227 43.5301 0.35679
855.335 38.6972 -0.185957
746.742 35.3804 -0.354888
251.015 33.3687 0.382555
15.7058 30.0248 -0.152734
739.046 37.7122 -0.116364
567.804 40.6061 -0.43892
254.922 38.1583 0.0934036
769.441 31.8812 -0.113829
167.928 9.05838 0.205172
407.466 20.6852 0.254809
516.129 41.306 -0.0991141
460.495 18.9215 0.203334
870.784 49.3887 0.296931
473.721 3.26664 0.421055
55.4024 24.4908 -0.283447
523.379 30.9075 0.34038
483.544 41.7351 0.355541
885.909 36.9958 -0.223209
827.465 30.124 0.227856
603.522 18.184 -0.156004
877.721 38.9615 -0.423044
325.616 2.02113 -0.442031
420.863 27.3937 -0.447964
32.3898 37.8973 -0.29482
833.947 31.5094 0.132059
683.189 19.7264 -0.477472
515.331 0.787328 -0.472203
140.441 4.4264 -0.28438
475.082 39.159 -0.101509
13.7018 0.915806 0.300346
911.848 4.61046 -0.407982
412.102 38.1102 0.390684
[...]
POINT_DATA 13483
TENSORS Strain_matrix float
-0.064077 -0.0341827 -0.883148 
-0.0396996 -0.00801686 1.70254 
-4.45696e-18 1.70903e-18 1 

-0.217484 -0.0952902 34.5561 
0.111109 0.235398 -16.2684 
1.89796e-18 -5.77231e-18 1 

-0.045497 -0.0124589 -1.15541 
0.00914309 -0.0718018 1.1027 
6.45889e-18 8.23983e-18 1 

-0.745992 -0.295005 0.282666 
0.133324 0.24597 -0.0551416 
1.29862e-17 -7.26699e-18 1 

-0.0672667 -0.0223059 0.0134383 
0.0143891 -0.0764285 0.00345271 
4.86269e-18 1.09897e-17 1 

-0.0630561 -0.0136951 -2.72582 
-0.00482407 -0.0498634 0.0398395 
-3.44077e-18 5.71505e-19 1 

-0.0284004 -0.0453332 0.00217471 
-0.0114442 -0.0906632 0.184103 
6.44082e-18 -3.89133e-18 1 

-0.0495247 0.0470841 -0.0882347 
0.0135319 -0.0542461 -0.0516945 
1.83147e-18 3.29664e-18 1 

-0.0209273 0.0402383 -0.142029 
0.0732112 -0.0426296 -0.206929 
1.19368e-17 -6.96316e-18 1 

-0.151621 0.069784 -0.0656958 
0.0119066 -0.0547772 0.116376 
-6.26277e-18 -5.67564e-18 1 

0.0213525 -0.0844209 0.0414876 
0.0159944 -0.104823 -0.0168276 
-1.79767e-17 5.67686e-18 1 

-0.0389861 0.00502618 -0.0660703 
-0.0494331 -0.105265 -0.205862 
4.34138e-18 3.28016e-18 1 

-0.0663715 0.262373 -0.40478 
-0.0402931 0.0610915 -0.203035 
3.20482e-18 1.10309e-17 1 

-0.0933436 -0.0363622 -0.0630459 
0.0425289 -0.0471717 -0.112673 
-8.01825e-18 5.80131e-18 1 

-0.0620942 0.00097372 -0.0622416 
0.0107646 -0.0530863 1.04622 
-2.70765e-18 -8.77703e-18 1 

-0.0396955 -0.0775766 0.764239 
-0.0494993 -0.0546224 0.499708 
2.57264e-18 -4.82591e-18 1 

0.032658 -0.00941856 0.152099 
0.0479329 -0.115614 0.294874 
-7.25357e-18 -5.08584e-18 1 

-0.0517317 0.00719986 -0.597788 
0.00566743 -0.0998082 0.0677046 
-6.19457e-18 2.08904e-18 1 

-0.0778955 -0.141137 -0.701817 
-0.161475 -0.0347736 0.433071 
-6.11679e-19 2.18457e-17 1 

-0.0415126 0.0514557 0.316398 
-0.0682616 -0.0957051 -0.213654 
1.15618e-18 7.60551e-18 1 

-0.106817 0.119239 -0.193565 
-0.0474198 0.00491943 0.150355 
1.15382e-17 -5.39078e-18 1 

-0.0402691 -0.022479 0.03493 
-0.0242236 -0.0591269 0.175833 
2.30777e-18 2.39019e-18 1 

-0.305968 0.179491 3.46423 
-0.134957 0.205382 2.00435 
4.5144e-18 -7.59421e-18 1 

-0.174386 0.176066 4.91847 
-0.0238445 0.0940177 -6.82559 
-9.70664e-18 -4.34626e-18 1 

-0.0482854 -0.0716805 0.0944445 
0.045154 -0.0326845 0.143098 
-6.87308e-18 -1.29994e-18 1 

-0.0160917 0.0696085 -0.163011 
-0.127946 -0.017591 0.000870695 
8.31852e-20 1.16459e-17 1 

-0.0489408 0.00636006 -2.4201 
-0.0026993 -0.0456467 -4.10453 
4.62154e-18 1.53089e-18 1 

-0.0564508 -0.063706 0.257464 
0.000134778 -0.0358175 0.0156895 
-4.58158e-18 1.61026e-18 1 

-0.0633553 0.0043298 0.780109 
0.0331174 -0.0875245 -2.60076 
3.3136e-18 -9.04955e-18 1 

-0.226551 -0.112053 -0.357073 
-0.155839 0.0523525 -0.131894 
-8.65861e-19 1.57429e-20 1 

-0.0506885 -0.0325166 -0.163587 
-0.0226173 -0.147483 0.222516 
6.98813e-18 8.90048e-18 1 

-0.03157 0.0878976 0.336362 
0.0918539 -0.10516 0.13768 
-6.38192e-18 4.62684e-18 1 

-0.0865212 -0.0301552 1.96585 
0.125537 0.0872393 -0.201788 
-2.36008e-18 1.10058e-18 1 

-0.055817 0.026218 -0.981263 
-0.0143265 0.0162991 -1.94695 
1.16735e-17 8.27717e-18 1 

-0.059095 0.064897 -0.0238962 
-0.124415 -0.0107986 -0.300104 
3.80037e-18 9.77238e-18 1 

-0.047349 0.036121 0.0307399 
-0.0411542 -0.0401508 -0.646788 
-5.79236e-18 7.02105e-18 1 

-0.0454649 0.0145691 -0.162023 
0.00867837 -0.0617645 0.0945065 
-4.497e-19 -3.22671e-18 1 

0.158458 -0.0999545 -0.103592 
0.0598522 -0.332248 -0.229963 
3.85316e-18 -4.37004e-18 1 

-0.0751503 -0.0296096 0.11794 
0.163783 -0.0647255 0.112448 
-2.91127e-19 3.07006e-18 1 

-0.00634382 -0.00923315 0.303705 
0.126968 -0.0483241 1.1487 
-4.81939e-18 -3.87312e-19 1 

0.00121929 0.0050612 0.161132 
-0.0382993 -0.166179 0.374832 
7.40013e-18 7.14318e-18 1 

-0.0798187 -0.0410088 -0.00721736 
-0.110124 -0.0129106 -0.330362 
-1.06115e-17 1.09216e-17 1 

-0.0587581 0.0379474 0.10482 
-0.0705317 -0.174357 -0.14587 
3.05555e-18 8.10456e-18 1 

-0.0352064 0.00778863 0.309775 
0.023046 -0.0893121 -0.565028 
-1.23305e-17 2.01041e-19 1 

-0.00376636 0.0445434 -0.0194729 
-0.0236145 -0.102531 0.16248 
-5.15848e-18 8.87877e-18 1 

-0.0280298 0.0226829 0.0932273 
-0.0143027 -0.0752522 -0.114757 
1.23768e-18 1.01198e-18 1 

-0.215227 0.0377324 -0.012135 
-0.0139428 0.0693807 -0.42441 
1.13635e-17 1.96198e-17 1 

-0.0297305 -0.0235568 -0.0653967 
0.0397411 -0.141922 -0.00371765 
-6.32196e-18 -2.04534e-18 1 

-0.0628149 0.113279 0.0319628 
-0.111559 -0.0440683 -0.0195014 
1.80866e-18 1.75842e-18 1 

-0.0827381 -0.0375337 -1.41962 
-0.0416168 0.019733 -0.210808 
2.46982e-18 -5.32533e-18 1 

-0.058702 -0.0268777 -0.255134 
0.0622919 -0.00764202 0.318049 
3.97661e-18 3.10673e-18 1 

-0.13796 0.0811628 -0.459931 
0.05137 -0.0025263 0.167156 
-7.9324e-19 -1.28505e-17 1 

-0.0980071 0.0102017 0.149669 
0.00372655 -0.00233803 -0.11915 
-1.58673e-17 4.37718e-18 1 

-0.074274 0.0199823 0.0680944 
0.00064506 -0.0661728 -0.0864074 
1.85253e-18 4.24602e-18 1 

-0.0430414 0.00289636 -0.0120121 
-0.0200644 -0.118355 -0.147262 
3.24789e-18 4.00714e-18 1 

-0.0555019 0.00188315 -0.789181 
-0.014711 0.00989908 0.358052 
-3.4837e-18 4.3448e-18 1 

-0.0501381 -0.086003 0.158797 
0.14563 -0.0130947 0.152652 
1.47952e-17 -2.44442e-18 1 

-0.0194374 -0.131884 -0.200263 
-0.0182318 -0.148282 0.133116 
3.43131e-18 1.77575e-17 1 

-0.0291022 0.0159079 -0.000284568 
-0.0264133 -0.133676 -0.0383426 
3.15617e-18 -8.60775e-19 1 

-0.052593 0.0388263 -0.14166 
-0.070527 -0.108123 0.467759 
-2.88369e-18 -8.86003e-18 1 

-0.243485 -0.302169 0.802729 
0.280774 0.656669 -1.25057 
-3.72415e-18 5.16219e-19 1 

-0.0230928 -0.00928328 0.0728328 
0.0362793 -0.0196443 0.200562 
1.17611e-18 -1.5199e-18 1 

-0.0414931 -0.0266581 -0.154727 
0.00186397 -0.0274108 -0.00359299 
-4.51797e-18 1.67257e-17 1 

-0.0713024 -0.0180301 -0.00723506 
0.0016453 -0.058895 -0.0883409 
-2.96045e-18 -4.59549e-18 1 

-0.00213372 0.051113 -0.152071 
0.0517977 -0.0274721 0.155794 
-2.22188e-18 1.62348e-17 1 

-0.0551629 0.0159626 0.118823 
-0.0388211 -0.0881791 0.313914 
-1.35832e-17 1.00437e-18 1 

-0.134126 0.0846862 0.0220537 
0.0275308 -0.0673444 0.140171 
-4.21805e-18 2.33716e-18 1 

-0.106259 0.106756 -0.565628 
-0.0767067 -0.00147987 0.689588 
1.22348e-19 1.47797e-17 1 

-0.056862 0.00205271 0.015644 
-0.0471466 -0.109127 0.908413 
-2.02357e-18 -8.75581e-19 1 

-0.109075 -0.0125233 0.0547493 
-0.0189974 -0.0872049 0.0956796 
-7.05547e-18 -2.53273e-18 1 

-0.0482262 0.165205 0.152462 
-0.275495 0.0447138 0.342276 
1.1881e-17 2.97025e-18 1 

-0.0290066 0.0316874 0.0545075 
-0.023163 -0.0825177 -0.07962 
-4.5109e-18 8.09131e-19 1 

-0.0238814 -0.028736 -0.0461984 
-0.038492 -0.0739599 0.156461 
4.36221e-18 -2.37243e-18 1 

-0.0252644 0.0744165 -0.249303 
-0.0894982 -0.0599165 0.406627 
-1.07802e-17 -1.69237e-18 1 

-0.049867 0.00210206 -0.352876 
-0.00130814 -0.0517411 -0.115708 
-5.0375e-18 -4.26115e-19 1 

0.0174194 -0.00330803 -0.102775 
-0.0972448 -0.159448 -0.0526075 
7.40934e-18 -1.04525e-17 1 

-0.261137 0.0748169 -0.0874944 
0.2109 0.121216 0.156494 
-3.8951e-18 -1.15708e-18 1 

-0.0616027 0.0405255 -0.197552 
-0.0224672 -0.045293 0.638215 
-6.60142e-18 4.59742e-18 1 

0.00048075 -0.134903 0.12144 
-0.0424813 -0.143888 -0.828673 
-2.42911e-18 -5.02575e-18 1 

-0.226859 -0.149497 -0.0553331 
-0.0156214 0.0341987 -0.233811 
1.49393e-18 8.52783e-18 1 

-0.139197 0.183145 0.519011 
-0.149937 -0.0778032 -0.330219 
4.87256e-18 -1.23459e-17 1 

-0.0161311 -0.00523987 -0.00435199 
0.00648333 -0.0251075 -0.0718533 
8.50081e-19 -1.37238e-17 1 

-0.0175819 0.121988 -0.0396303 
-0.141658 -0.0243344 0.0570698 
-7.28662e-18 -1.04256e-18 1 

-0.27249 -0.149665 -0.844284 
0.190471 0.175528 0.625985 
-2.83181e-18 -6.66309e-19 1 

-0.137442 0.184984 -0.880403 
0.0172079 -0.0249949 0.544427 
7.37274e-18 -4.54625e-19 1 

-0.329648 -0.632846 -1.9215 
0.142821 0.291117 -0.401692 
2.13957e-18 -1.37982e-17 1 

-0.269292 2.47264 -1.02304 
-0.00650019 0.187676 -0.443893 
-5.89886e-18 -2.06143e-17 1 

-0.058762 -0.00227091 -0.282861 
0.0613313 -0.0941289 0.209669 
-3.81167e-18 8.21677e-18 1 

-0.1028 -0.00857788 -0.101028 
0.0346098 -0.0374438 -0.038673 
-1.77383e-17 4.09824e-18 1 

-0.0699916 0.00468752 0.056161 
-0.00944741 -0.0565034 -0.0978242 
-2.66332e-17 3.04517e-18 1 

-0.0672498 -0.0655717 -0.00622356 
-0.00790936 -0.0462625 0.0302246 
-6.61088e-18 1.68513e-18 1 

-0.0206414 0.0485794 -0.07441 
0.0361591 -0.0889454 0.189799 
2.91773e-18 -1.34945e-17 1 

-0.244925 -0.0759712 -21.7271 
0.0236656 0.183112 20.3887 
3.77273e-18 4.98666e-18 1 

-0.0368757 0.043875 0.0846518 
0.016265 -0.0577796 -0.108626 
-1.06647e-17 -1.37032e-17 1 

-0.0364723 0.00862877 -0.669319 
0.0715424 -0.0191889 0.747713 
4.55062e-18 -7.13068e-18 1 

-0.0579427 0.00398032 0.0304893 
-0.00619629 0.203627 -0.432922 
-1.39077e-18 3.01433e-17 1 

-0.0621263 0.024208 0.00288003 
0.0145892 -0.0626433 0.696295 
-7.74699e-18 5.31883e-18 1 

-0.067935 0.363578 0.0198279 
-0.168042 0.011366 0.677037 
-1.07252e-17 -1.55233e-18 1 

-0.0987076 0.0603595 -0.0521374 
-0.00516292 0.0759764 -0.0588605 
-7.37637e-18 7.32515e-18 1 

-0.0154477 0.0286633 0.0807336 
-0.0691253 -0.0722594 0.141558 
1.5438e-17 4.48023e-18 1 

-0.0336624 0.00970399 0.458849 
-0.0193125 -0.0401342 1.15847 
-5.66063e-18 -7.28174e-18 1 

-0.076103 0.00479157 -0.306335 
0.0293302 -0.0625999 1.09642 
-1.33133e-17 2.04035e-19 1 

-0.0355985 0.0335524 0.655451 
-0.00556979 -0.0782281 -0.382605 
2.96051e-18 4.83602e-18 1 

-0.0589589 0.00213504 -0.011944 
0.0044962 -0.054806 -0.100245 
1.98882e-17 -4.14337e-18 1 

-0.0344141 -0.0202111 0.0866423 
-0.00168862 -0.090331 -1.06741 
-5.99985e-18 -1.11036e-17 1 

-0.0752476 0.0171514 0.259603 
0.0129715 -0.043848 0.119944 
-5.0797e-18 1.22118e-17 1 

-0.366174 -0.464912 -0.383272 
-0.150511 0.0615673 0.344545 
-3.75721e-18 8.28397e-18 1 

0.0307067 0.0364851 0.533507 
-0.108123 -0.130487 -1.11081 
1.67581e-18 3.04823e-18 1 

-0.0457634 -0.00670052 -0.0313455 
0.00835089 -0.0968633 0.0736521 
-4.94009e-18 -1.00818e-19 1 

-0.0651314 0.0351184 0.288519 
0.0118303 -0.0993233 -0.299652 
3.83773e-18 9.97304e-18 1 

-0.0037935 -0.0854966 0.571299 
-0.000503383 -0.137287 0.72561 
-1.08688e-18 5.22132e-18 1 

-0.0187056 0.0235664 -0.191244 
0.00841604 -0.081111 3.20983 
-5.35948e-18 4.07336e-18 1 

-0.0201773 0.0301509 -0.016327 
-0.0338242 -0.12341 0.0564562 
1.06447e-17 3.17207e-18 1 

-0.09772 -0.0810796 -0.714775 
0.038157 0.00118772 -1.79715 
-4.08683e-19 2.4521e-18 1 

-0.076189 0.0106094 -0.0408667 
0.00955584 0.0335057 -0.22206 
8.29699e-18 -8.79106e-18 1 

-0.0348979 -0.0397632 -0.120165 
0.0281238 -0.0191228 0.21443 
-1.41173e-18 6.87452e-18 1 

-0.0855523 -0.0905228 -0.0747149 
-0.160379 -0.0160828 0.282638 
-5.92487e-18 8.84022e-18 1 

-0.0440228 -0.00185828 -0.12012 
-0.0215119 -0.0601714 -0.111424 
-1.18624e-17 -2.21727e-18 1 

-0.165636 -0.0618667 0.14778 
0.0448847 0.0606849 -0.310336 
6.54465e-18 2.12701e-18 1 

-0.0170097 -0.0353292 -0.0575952 
-0.0316251 -0.0116274 0.0473914 
-2.32972e-18 4.19215e-18 1 

-0.198021 0.0939031 0.258738 
-0.0173614 -0.130481 0.292863 
-2.25897e-18 -4.17128e-18 1 

-0.167901 0.210693 -0.0685145 
-0.0600381 -0.0288513 -0.305977 
-5.76178e-18 -6.89507e-18 1 

-0.0248939 0.0637885 0.247053 
-0.0549299 -0.0234872 -0.0890055 
2.14007e-18 -5.001e-18 1 

-0.111037 0.00023143 -0.0329774 
-0.0148416 0.0322024 0.0310911 
-4.21017e-18 7.05203e-18 1 

0.0211422 -0.0302443 2.59075 
0.0330323 -0.136572 2.43886 
6.69947e-18 4.45619e-18 1 

-0.0369985 0.00779622 -0.423309 
-0.0214334 -0.131254 0.18293 
-1.09762e-17 -6.01233e-18 1 

-0.0748803 -0.157565 -0.0713547 
0.126298 0.0398601 0.236654 
-2.14236e-19 1.83738e-17 1 

-0.0717782 0.0476217 0.224816 
-0.00423796 -0.0962561 0.443399 
-1.35569e-17 -6.07723e-18 1 

0.0474011 -0.00496463 0.262882 
-0.0774765 -0.0940268 -0.157183 
-4.02997e-18 4.78809e-18 1 

-0.0319788 -0.00366177 -0.286136 
-0.0334645 -0.0894882 2.36343 
-2.52821e-18 3.38412e-18 1 

-0.196368 -0.00115417 -0.0130523 
0.0568495 0.15971 -0.302074 
-7.00676e-18 1.51083e-17 1 

-0.0646962 0.0920647 0.0477775 
-0.0382606 -0.0163467 -0.00585406 
-1.13903e-17 -9.7672e-18 1 

-0.044862 -0.00266471 -0.29319 
-0.0159183 -0.0295488 -0.0284172 
-9.59334e-18 -6.37936e-18 1 

-0.290138 0.259647 0.160573 
-0.00549162 0.0809933 0.431387 
1.82405e-19 -3.8305e-18 1 

-0.0510266 -0.00118386 0.0784918 
-0.0711402 -0.0255942 -0.0932308 
-8.78375e-18 7.48475e-18 1 

-0.0165492 -0.00782714 -0.160882 
-0.0720993 -0.0307193 -0.159045 
-4.29019e-18 -1.48067e-18 1 

-0.238875 0.138767 -0.322421 
0.0997293 0.0741977 -0.0996442 
-1.4261e-17 3.19842e-18 1 

-0.0540269 0.00187692 -0.531488 
0.0726924 -0.0357718 -0.241165 
2.84651e-18 -1.66073e-18 1 

-0.0316669 -0.0282338 -0.00753353 
-0.0214612 -0.0747458 0.0994974 
-2.36412e-18 -3.28408e-18 1 

-0.0117672 -0.0126061 -0.0879175 
-0.122047 -0.0414389 -0.143632 
5.6477e-18 1.64958e-17 1 

-0.08224 0.0115987 -0.0728046 
0.0150369 -0.0330715 -0.167442 
3.05581e-18 1.9139e-18 1 

-0.03374 -0.0159319 -0.112432 
0.0499336 -0.0388311 0.062358 
3.18083e-18 3.74215e-19 1 

-0.0218412 -0.00428263 8.1833e-05 
0.0139529 -0.0520857 -0.18812 
4.76619e-18 -5.50282e-18 1 

0.0223754 -0.0171207 1.53756 
0.0225219 -0.111092 -1.97508 
2.42374e-18 -5.1861e-18 1 

-0.0288975 0.0679363 -0.177526 
-0.0434797 -0.0301392 -0.123755 
-2.34162e-18 -5.49381e-18 1 

-0.608044 -0.284649 -0.593321 
-0.350463 0.588582 0.351517 
4.32843e-18 6.70875e-18 1 

-0.264411 0.102897 -0.316456 
-0.150379 0.0312648 -0.10289 
3.58625e-18 -5.6625e-19 1 

-0.0528359 -0.0410686 0.230625 
0.041942 -0.0841181 -0.210457 
1.78033e-18 -2.57966e-18 1 

-0.0474906 -0.0371512 -0.254955 
0.0588134 -0.0537737 -0.337993 
-1.66013e-17 0 1 

0.0321044 0.0162323 -0.150533 
0.0232814 -0.0904656 0.124486 
-3.31877e-18 -4.17194e-18 1 

-0.0356825 0.0293031 0.906972 
0.0151286 -0.0773167 5.75887 
3.06876e-18 7.44385e-18 1 

-0.128092 0.0854259 0.263553 
0.00312773 -0.0327086 -0.226867 
-5.50262e-18 3.04348e-19 1 

-0.0486756 -0.0331495 -0.27011 
-0.0226264 -0.0720286 0.170067 
1.94745e-17 -2.76899e-18 1 

-0.0403761 0.0407529 -0.666524 
0.0120798 -0.0496489 -0.868284 
-6.11821e-20 1.97312e-18 1 

-0.0558966 -0.0172303 0.0338706 
0.0124044 -0.0704835 0.0725823 
2.97075e-18 -1.56517e-17 1 

-0.119077 -0.139772 0.529526 
0.176171 0.126129 -1.39889 
-5.26418e-18 -4.03814e-18 1 

-0.174727 0.0592863 1.23198 
0.0483579 0.0829193 0.357296 
-8.22291e-18 2.31283e-17 1 

-0.0357257 0.0183469 -5.33416 
-0.0288139 -0.0575014 4.10941 
8.46534e-19 -5.76732e-19 1 

-0.1293 -0.00430714 0.0155605 
-0.0652711 0.198046 1.35473 
2.3451e-19 1.98184e-17 1 

-0.197664 0.0479116 0.00459859 
0.0441573 -0.0992802 -0.428354 
-3.34034e-18 2.28358e-17 1 

-0.0760003 0.158911 0.49534 
0.0124978 -0.00161701 -3.15403 
-2.62947e-18 -5.09331e-18 1 

-0.0966124 -0.0328587 0.161825 
-0.0242737 -0.0700637 0.071869 
2.6486e-18 -4.20413e-18 1 

-0.0677557 -0.0101347 0.016567 
0.0842105 -0.0229192 0.19919 
2.79567e-18 -3.72756e-18 1 

-0.0622563 -0.00274463 2.9071 
-0.0152535 0.216413 -5.59769 
1.58299e-19 6.61321e-17 1 

-0.108563 0.00183338 -0.224531 
0.0838435 -0.0431342 -0.747509 
-1.5422e-18 -5.41409e-18 1 

-0.43775 -0.00460411 0.333594 
0.137097 -0.0392475 0.0130626 
2.05273e-18 -2.64945e-18 1 

-0.0392291 -0.0181003 0.169594 
0.00765819 -0.051251 -0.0895139 
-5.01915e-19 2.20669e-18 1 

-0.0648512 0.00365945 0.209575 
0.032578 -0.0183125 0.0132768 
2.85607e-19 -7.99699e-19 1 

-0.0167915 -0.0327143 -0.114028 
0.00190782 -0.105899 -0.390969 
3.63673e-18 -8.76982e-18 1 

-0.0307575 0.000943907 -0.126516 
0.00929508 -0.109672 -0.269078 
-1.16169e-19 -3.35438e-18 1 

-0.0306345 0.0314869 0.0974898 
-0.0177494 -0.076539 -0.0240093 
-5.33655e-18 4.6876e-18 1 

-0.0319462 0.0228833 0.0292152 
0.0578698 -0.0557677 -0.0101098 
-2.06252e-18 8.44649e-18 1 

-0.112846 0.104323 0.237497 
0.0838815 -0.0824658 -0.306083 
-1.9153e-17 9.46382e-18 1 

-0.0583543 -0.00243019 0.347969 
-0.00391894 -0.016851 -0.385534 
-1.444e-18 2.75257e-18 1 

-0.122421 0.216759 0.286137 
-0.0475254 0.0527741 0.499799 
-7.67658e-18 2.37544e-18 1 

-0.0916788 0.0191114 0.102096 
-0.0183476 -0.0500547 0.0373573 
-2.63175e-18 -6.90295e-18 1 

-0.566171 0.213783 0.276293 
-0.102169 0.491843 0.622221 
6.70798e-19 6.58221e-18 1 

-0.0446897 0.0209835 0.00659134 
-0.0063414 -0.0835194 -0.104867 
9.03566e-19 -1.31232e-18 1 

-0.0398146 0.0199482 0.0364662 
0.0753218 0.00707256 -0.582261 
-4.41617e-18 -6.24024e-19 1 

-0.0740208 0.0545418 -0.00240209 
-0.0256936 -0.087717 -0.0369234 
-1.3313e-18 5.85771e-18 1 

-0.00590827 0.102281 0.326917 
-0.108794 -0.0727546 -0.443146 
4.54849e-18 -1.42279e-17 1 

-0.0679295 -0.01249 0.149175 
0.00758794 -0.156612 0.009146 
5.74111e-18 1.36872e-17 1 

-0.0415272 -0.00744656 -0.0340676 
-0.0379947 -0.0709897 0.00805206 
5.03737e-18 7.74141e-18 1 

-0.0518805 -0.0309335 -0.500964 
0.020414 -0.0904603 0.18788 
3.66872e-18 7.87772e-18 1 

-0.120018 -0.0159492 -0.0753005 
0.0295639 -0.0458428 -0.285463 
6.61902e-18 2.01399e-17 1 

-0.0438321 0.0418777 0.0695269 
-0.0966888 -0.0740937 0.124984 
9.67462e-18 -5.09191e-18 1 

-0.0540371 0.0271164 0.290746 
-0.0529203 -0.0741912 0.54004 
-2.68237e-18 1.30174e-17 1 

-0.156363 -0.16869 -0.360822 
0.324847 0.131673 -0.0750001 
-4.03385e-18 -9.20734e-18 1 

-0.0178087 0.0393146 -0.208443 
-0.0131952 -0.0656366 -0.685168 
2.76547e-18 -3.95508e-18 1 

-0.192072 0.0478159 0.0749299 
-0.0238123 -0.00541363 -0.488287 
-7.4122e-18 -4.73557e-18 1 

-0.0182791 0.100211 0.0813409 
0.065515 -0.0783902 0.00882131 
-6.02022e-18 3.67902e-18 1 

-0.0655309 -0.061016 0.017234 
0.0388072 -0.0653606 0.0396087 
-1.21772e-17 -4.9748e-18 1 

-0.246124 -0.244556 -0.424645 
0.163378 0.0719998 0.00229339 
-9.15436e-18 -7.85782e-20 1 

-0.178827 -0.00902129 0.0330958 
-0.0412613 0.08844 0.597912 
-3.79681e-18 2.62949e-18 1 

-0.220332 0.351611 -0.392158 
-0.164371 0.0873741 -0.0775546 
-6.42907e-18 4.52583e-18 1 

-0.0531184 0.00448356 0.736799 
0.0285642 0.00679047 -0.633295 
-1.17779e-18 3.04047e-18 1 

-0.0399724 0.0237241 -0.224608 
0.0628361 -0.0929317 -0.0206398 
-8.05659e-18 -3.04946e-18 1 

-0.00197784 0.0549229 0.00606258 
-0.101113 -0.0933841 0.0652104 
1.87398e-18 2.80315e-18 1 

-0.0572014 -0.00462724 -0.0693464 
-0.0549269 -0.0755796 0.18199 
1.86179e-18 -3.78564e-18 1 

-0.016822 0.0717126 -0.264812 
-0.171869 0.0440252 1.13831 
4.41749e-18 1.03456e-17 1 

-0.0839441 0.0145422 -0.0924499 
-0.0707031 0.00580486 1.64398 
5.0989e-18 -1.391e-18 1 

-0.0559678 0.01707 0.0364073 
-0.0971984 -0.0213658 -0.0335773 
-3.79194e-18 -1.9457e-17 1 

-0.177986 0.203868 0.15795 
-0.184137 0.0680886 -0.303948 
-1.43842e-17 -2.48958e-18 1 

-0.0583242 -0.0435651 -0.682451 
-0.0357181 0.0430457 0.731154 
-1.39567e-18 3.47222e-18 1 

-0.0705479 0.0166459 0.122616 
0.0503267 -0.039462 0.182156 
-8.82809e-18 -4.08948e-18 1 

-0.0311406 0.0273907 -0.144438 
-0.0570445 -0.0418599 -0.114836 
-4.56078e-18 1.30589e-17 1 

-0.0338147 0.0123679 -0.0742455 
-0.0321196 -0.0536586 -0.0598067 
-4.62094e-18 -4.75888e-18 1 

-0.112482 0.0892778 -0.313243 
-0.112255 0.030191 -0.0191914 
-2.42396e-18 4.15659e-18 1 

-0.217285 0.00935455 -2.36271 
0.225833 0.046941 -4.40584 
1.19104e-17 4.85194e-18 1 

-0.0156503 0.126397 -0.170766 
-0.0970284 -0.0559254 0.10008 
7.73574e-18 -2.28978e-18 1 

-0.0327887 0.000508362 -0.0784497 
-0.0406862 -0.0541425 0.0861296 
4.30572e-18 -1.2211e-18 1 

-0.0940471 -0.00781961 -0.0302139 
0.00945264 -0.0578062 -0.428278 
1.05899e-17 -3.91893e-18 1 

-0.0209913 0.000819846 -0.0230176 
0.0517896 0.157763 0.0403654 
-7.43003e-20 1.20367e-17 1 

-0.0225638 -0.0228496 -0.44351 
0.00431015 -0.0636937 1.07266 
-1.60443e-17 -3.42075e-18 1 

-0.0923319 0.0587034 0.0719663 
-0.0136656 -0.0188327 -0.000858956 
1.13175e-18 7.45986e-18 1 

-0.0349989 -0.022671 -0.0188692 
0.00565555 -0.0637448 0.0170213 
-1.018e-17 1.02312e-19 1 

-0.027039 0.0250657 -0.081756 
-0.00736084 -0.215186 0.191307 