# vtk DataFile Version 3.0
Output file generated by Yade's KinematicLocalisationAnalyser
ASCII
DATASET UNSTRUCTURED_GRID

POINTS 13483 float
527.179 46.7094 -0.487608
646.102 80.0935 -0.316422
115.091 6.18459 -0.45552
670.745 22.985 -0.227723
457.023 8.84833 0.421703
300.461 40.83 -0.452113
150.647 7.16303 -0.471433
515.895 10.9746 -0.115806
454.011 29.216 0.149566
613.092 22.7914 0.420243
202.317 9.15048 0.12821
246.753 6.35905 0.336071
564.627 53.3103 0.134996
553.189 33.1956 0.0921298
131.598 17.8458 -0.483785
212.173 36.5826 0.408229
209.388 13.2511 -0.284491
276.486 11.4288 0.466821
323.622 38.459 0.448656
476.987 9.55954 0.5129
383.964 43.7976 -0.10327
506.82 63.954 0.287257
670.881 57.2451 -0.443563
593.359 71.4417 0.435689
424.363 23.2065 0.321488
232.294 45.6442 -0.138469
449.252 34.4804 -0.451563
523.692 24.6046 0.246841
43.434 17.493 -0.537166
611.044 55.0268 0.352729
442.08 6.00287 0.482974
15.5071 24.6271 0.300986
654.17 76.8915 -0.240727
453.228 2.62143 0.512536
76.3913 47.8509 -0.0999432
470.489 36.9212 0.337851
483.085 18.7892 -0.454518
326.123 25.8576 -0.183034
483.477 30.402 0.371464
331.528 41.5208 -0.406483
231.451 14.8637 -0.296668
402.999 42.3514 -0.0743948
582.643 9.78544 0.190117
184.962 6.22012 0.352846
52.3869 7.3621 -0.0930511
64.4193 8.82561 -0.232022
594.393 10.2002 -0.605785
22.4498 12.0422 -0.292536
526.713 68.7371 -0.353141
581.91 37.0849 0.443522
165.783 34.6397 0.288434
639.57 54.2841 0.114302
32.776 29.6323 -0.118186
484.736 4.28682 0.422823
136.595 7.22445 0.480069
515.142 54.1886 0.366382
460.256 31.6891 0.147625
168.8 0.98948 -0.308377
31.5369 2.35649 -0.347897
330.009 20.9945 0.272424
534.21 66.4206 -0.14377
424.548 43.1958 0.179098
374.323 1.04747 0.210953
601.075 9.10671 -0.647719
25.3647 45.8668 0.237707
247.633 32.3872 0.297841
614.254 17.7212 -0.274088
577.843 74.5516 0.0346802
391.744 9.37589 -0.645273
516.655 4.06495 -0.664346
632.167 44.2498 -0.44056
125.781 7.8059 -0.288559
455.66 32.4712 -0.132136
439.026 19.3833 0.0968054
282.799 18.2262 -0.346441
19.6028 13.7165 -0.240943
655.535 58.5056 0.349197
317.517 45.9911 -0.291162
582.545 32.4083 0.396636
595.124 21.468 -0.220724
669.529 14.1804 0.207458
427.858 44.5515 0.168711
90.5345 40.813 -0.261758
588.687 58.8119 -0.230808
561.32 64.5867 -0.0937233
674.713 65.4875 -0.112364
668.222 0.772542 0.570278
279.861 29.3858 -0.449312
556.141 13.8158 0.163012
23.331 5.68652 0.501745
128.62 41.9576 -0.139564
468.773 16.2675 0.191306
652.829 43.2626 0.482773
189.801 29.9974 -0.244761
42.4486 37.5247 -0.265855
452.79 1.00473 0.317162
227.611 8.81857 -0.449885
628.503 70.1348 0.244026
646.884 38.7206 -0.26083
341.87 26.572 0.276241
158.72 27.84 -0.453845
484.512 54.543 0.403712
356.429 17.3265 -0.559966
385.433 34.1602 -0.0995295
356.118 5.25476 0.600034
498.363 11.5308 0.131592
676.1 29.2429 -0.159331
78.3569 42.5687 0.384329
319.165 6.21013 -0.232941
509.9 9.02557 -0.467426
344.307 51.7268 -0.449712
23.5615 25.8032 0.517466
29.5896 5.94562 -0.297157
505.393 37.7147 0.441732
460.888 27.6407 0.171794
24.3562 39.1561 -0.408472
90.6712 32.9547 -0.216318
309.474 19.4889 -0.325086
532.472 26.6568 -0.110225
439.165 50.2451 0.290493
622.425 7.73696 0.571208
616.959 10.2623 0.278322
367.572 42.6937 0.0951094
553.723 48.7629 -0.0945179
230.613 18.1858 -0.613621
315.848 3.85453 0.559927
100.296 33.3838 -0.310795
111.794 24.5982 0.266521
484.643 50.4443 0.0772435
294.527 21.4083 0.522218
608.066 60.8369 -0.104394
583.05 72.967 0.107917
442.769 24.7138 -0.416262
656.081 15.3166 -0.327228
399.146 28.2627 0.235964
267.476 28.8452 -0.306492
580.134 50.6119 0.307501
269.873 32.4563 0.389667
524.42 13.0692 0.232178
318.85 44.5205 0.193721
463.593 13.4937 0.467075
349.095 37.6842 0.0875391
402.174 21.1277 0.0986326
306.472 48.8189 0.434083
186.051 32.3358 -0.115617
649.643 83.5126 -0.150768
672.168 32.2014 0.296945
6.74422 12.8901 -0.412234
405.991 27.2235 -0.417527
36.3711 23.8295 0.0736598
357.467 36.0173 -0.481184
374.564 26.5439 -0.29397
71.2374 12.2433 -0.452924
50.5801 35.7252 -0.43601
219.61 13.7852 0.432596
540.371 62.5777 0.377509
521.969 27.731 -0.452631
72.7216 21.7457 -0.476783
597.434 69.2405 0.258064
644.382 2.36086 0.564004
569.088 74.6164 0.469058
599.171 1.89149 0.613208
497.821 34.8502 -0.471854
506.818 65.8005 0.439722
470.283 19.924 -0.371216
678.596 11.8594 -0.289689
217.33 27.3264 -0.134396
123.542 37.1206 0.196263
240.141 7.15198 0.43955
90.8207 4.47729 0.29511
61.2004 10.8976 0.22801
269.76 39.9284 -0.292239
16.4455 26.124 -0.357956
504.509 25.7646 0.495993
522.076 66.2564 -0.197359
430.859 30.9541 -0.433599
665.152 70.0018 -0.361208
385.235 8.85315 -0.117221
408.715 45.6016 -0.385756
491.801 3.33206 -0.234396
22.055 22.9012 -0.440222
527.658 5.52424 0.421014
499.658 4.23101 0.350328
200.505 11.5895 -0.544966
401.636 16.1689 0.213615
300.218 6.79254 0.354554
367.704 20.8438 -0.35622
624.845 74.801 0.103521
188.791 27.105 -0.471
660.643 7.65573 -0.46252
623.262 66.5943 0.320541
364.164 11.1621 0.209678
612.527 7.77804 0.618564
532.064 41.9643 -0.384755
630.479 25.1785 0.381639
399.204 52.8684 -0.281886
458.427 14.4896 0.447356
430.325 54.6899 0.217901
419.412 13.0717 0.137669
573.525 69.6735 0.256967
573.944 64.1809 -0.289557
185.717 42.5413 0.329413
668.466 15.9526 0.118468
506.311 67.4363 -0.241633
10.547 18.801 0.195846
383.888 28.6535 0.367817
183.398 25.7797 -0.391699
93.1724 41.8342 0.202188
652.645 39.0647 -0.452479
566.378 77.3845 0.219284
308.368 30.9776 0.354965
488.555 10.6027 0.410002
81.6508 47.5952 0.165472
241.426 26.9385 0.4774
505.947 30.1312 0.367474
450.9 25.3744 0.471305
255.752 0.837422 -0.382018
492.611 54.6745 -0.364163
478.987 56.8851 -0.451471
445.197 51.2847 0.39389
462.057 2.31664 -0.624606
603.825 32.7406 0.448055
174.16 14.8029 -0.17278
462.117 42.1141 -0.475562
495.091 58.3518 -0.111687
70.0535 0.956899 -0.271204
245.091 4.88736 0.211249
671.996 34.2213 -0.158644
669.127 19.8397 -0.371908
677.479 37.8746 0.444832
292.66 8.73325 -0.330827
632.854 31.83 0.515432
388.584 53.8927 0.334385
420.215 0.823009 0.518616
567.198 61.7865 0.430267
25.9112 32.7433 0.315421
320.495 53.3286 -0.487406
246.107 3.08352 0.436837
655.118 70.6325 -0.185344
606.528 80.0304 -0.225694
278.785 12.6844 0.234839
577.825 53.9659 -0.0880686
511.947 2.55973 0.25445
498.045 7.65656 0.467672
93.577 19.0275 -0.48649
293.032 1.19516 -0.284663
327.617 2.74648 0.433154
13.3458 7.2542 0.632449
4.71147 33.5008 0.240275
158.615 19.2681 -0.360424
66.8117 45.8802 -0.207057
64.6454 30.5847 -0.309206
402.775 14.9203 -0.468661
353.037 41.0249 -0.483285
637.702 55.5883 -0.11765
18.9574 4.14145 0.278485
67.6959 7.1604 0.132872
544.654 61.7799 -0.114148
284.521 0.888376 0.386647
346.755 16.756 -0.0747468
230.173 4.75002 -0.430387
572.186 39.6415 0.206444
425.259 11.9511 0.431358
633.202 26.9987 0.40206
550.809 51.8691 -0.290993
584.254 29.2047 -0.0832688
396.294 30.2321 0.509021
100.865 48.2772 -0.302774
479.855 60.5967 0.0696659
628.263 19.8329 0.281405
232.227 32.1291 0.238037
30.7075 18.1533 0.18094
322.765 16.1779 0.464154
106.715 43.7497 -0.39643
263.732 47.19 -0.205984
404.7 1.08808 -0.304434
652.787 54.2552 -0.383785
592.231 2.10891 0.729757
319.93 4.55688 0.47026
291.703 29.9452 -0.13966
430.705 51.3274 -0.212478
78.6696 8.1253 0.475824
192.996 48.8894 0.377557
649.475 47.2122 0.393449
458.574 49.2537 -0.0651411
194.722 44.8825 0.261495
156.863 44.063 -0.39817
679.238 57.2746 0.378372
674.684 28.174 0.483782
554.683 5.32188 -0.61924
186.999 27.1732 0.0956047
498.483 37.4208 0.100017
500.265 36.3797 0.280177
389.744 5.96773 -0.144865
448.691 0.923715 -0.377521
637.422 58.7152 0.471672
82.3223 32.8713 -0.208907
575.814 31.8829 0.462531
265.905 16.7443 -0.31701
9.13151 2.31858 -0.402936
124.22 39.2244 -0.182921
65.7527 25.3903 -0.469365
603.662 57.8197 0.327585
659.38 84.2181 0.153715
182.199 30.8094 0.17797
667.51 29.4589 0.329888
43.621 39.2366 -0.254244
89.2966 31.5661 0.165461
559.597 32.8658 0.424863
394.102 18.6052 -0.475307
479.546 19.205 0.122562
232.618 30.1682 -0.193612
555.964 18.4615 0.507699
677.68 27.9898 -0.36599
29.0343 34.3174 -0.261798
263.387 7.81721 0.213473
217.336 15.8395 -0.253769
1.10363 38.2829 0.145174
220.691 14.6584 -0.392499
206.893 11.4615 -0.121794
209.173 27.423 0.296624
128.82 29.7576 -0.123362
502.996 16.5628 0.392795
163.372 14.4083 0.363916
650.512 76.1586 0.21651
170.828 3.93813 0.520363
46.396 40.1313 -0.350316
631.478 83.783 -0.431361
274.995 34.8353 0.391153
586.128 38.4141 0.510312
659.765 54.511 -0.513772
290.86 9.56644 0.121121
624.208 50.4019 0.340406
317.926 2.58499 -0.358139
392.295 27.6945 0.376047
586.153 21.6118 0.543486
102.725 12.0088 0.462863
450.136 3.95119 -0.545076
636.556 24.9844 0.180354
85.4594 7.70877 -0.266925
273.904 16.2676 0.216077
403.868 12.5778 -0.231213
679.704 10.4221 -0.685496
379.016 2.00553 -0.558925
172.211 42.0545 0.266572
629.021 10.4265 0.374658
126.484 38.8737 -0.181569
256.068 35.2025 -0.375759
381.689 22.1814 0.211581
525.364 15.3772 -0.341768
367.735 9.86293 0.449381
427.272 37.5541 -0.451114
646.025 81.6394 -0.0327673
45.572 11.9562 -0.0999217
289.381 42.977 -0.266937
362.11 29.0277 -0.380575
389.532 21.502 0.254728
473.324 55.4575 -0.372004
633.206 59.3834 -0.216521
577.752 64.6791 -0.353077
220.903 35.9001 0.406575
12.4945 33.6778 0.153026
571.653 66.9219 0.118474
464.218 59.4341 -0.450482
225.164 40.4799 0.0917171
590.234 50.6015 -0.115165
147.991 9.74303 0.218612
347.907 24.0046 0.25301
431.829 53.0893 0.0982066
393.619 20.2935 0.197483
643.381 77.5546 0.296054
406.064 3.21269 0.555548
48.9265 27.5937 -0.307763
440.676 42.3346 0.340216
405.387 52.9673 0.391306
651.073 65.5806 -0.24148
619.842 55.155 -0.244099
499.152 20.4712 -0.18344
645.734 65.0761 -0.468679
284.177 2.12573 -0.494072
362.711 32.0414 -0.481764
27.5258 41.2117 -0.29615
625.646 49.094 -0.148286
539.362 33.6568 -0.46758
432.313 0.757507 -0.540665
123.144 4.66442 -0.30573
401.505 48.0027 -0.0939777
11.4675 0.901378 0.328091
677.973 9.76619 -0.137919
358.338 46.643 0.396068
[...]
POINT_DATA 13483
TENSORS Strain_matrix float
-0.89065 -0.589089 -7.14903 
-0.103313 0.452386 3.23792 
1.05528e-18 2.26445e-18 1 

-1.86753 0.440075 13.366 
0.464618 1.01682 0.325438 
1.8757e-18 1.19035e-18 1 

-0.134209 -0.0225552 -0.483802 
0.0149045 -0.033709 0.509822 
-4.72569e-18 1.40641e-17 1 

-3.6973 -2.19481 -9.72778 
1.67527 1.77197 3.39981 
-3.73802e-18 6.05396e-18 1 

-0.680682 -0.42163 -0.485829 
0.106037 0.316468 -0.281933 
-1.91104e-18 1.24507e-18 1 

-0.0928734 -0.227192 0.097809 
0.178213 0.0285428 1.66923 
-8.00103e-18 1.18175e-17 1 

-0.144728 -0.00320171 -6.75307e-05 
-0.021882 -0.0582321 1.30324 
-6.4316e-18 9.21986e-18 1 

-0.178788 -0.185574 0.669765 
0.0835301 -0.0130093 0.222545 
-8.40377e-18 1.78701e-17 1 

-0.388083 0.0954303 0.205986 
-0.236279 0.15438 0.396027 
-6.26593e-18 1.25319e-17 1 

-0.816455 -0.319166 0.141922 
-0.0978206 0.046492 1.14358 
-1.14066e-17 -1.14066e-17 1 

-0.111111 -0.0704431 0.139932 
0.0852294 -0.0258786 0.00199547 
4.96895e-18 3.61378e-18 1 

-0.145841 0.0294204 0.0915501 
-0.14353 -0.103144 -0.504616 
-4.28179e-18 -2.89787e-18 1 

-0.0321307 0.0460009 -0.384061 
-0.331796 0.0144556 0.499091 
4.57923e-18 4.72368e-18 1 

-1.34341 -0.12751 2.87746 
0.344795 0.614528 -0.138034 
1.32733e-17 5.02776e-18 1 

-0.163556 -0.0808037 1.61748 
0.0389265 0.0336126 1.07786 
7.43583e-19 -6.50307e-18 1 

-0.0693762 0.0732129 0.488965 
-0.0397547 0.0704758 0.500713 
8.22947e-18 5.12655e-19 1 

-0.0816576 -0.0699227 0.311108 
0.0472633 -0.0941661 -0.0211687 
-9.9729e-18 1.25431e-17 1 

-0.263618 -0.00796949 0.127363 
0.182308 -0.0817475 0.169887 
1.40916e-18 -8.66531e-18 1 

-0.1054 -0.279231 8.73291 
0.0341102 0.0624697 1.27268 
1.17642e-18 1.82814e-18 1 

-0.409454 -0.0687299 -0.80783 
0.282818 0.103093 0.525189 
-3.23035e-18 -1.75802e-18 1 

-0.494437 0.340885 -1.23358 
0.0199416 0.276611 -0.848007 
-4.32151e-18 -3.55459e-18 1 

-1.4241 -0.689227 8.64985 
0.774794 1.0266 0.332472 
7.03131e-18 -5.9636e-18 1 

-0.485643 0.0931277 5.29369 
-0.326975 0.352057 -0.067238 
1.13016e-17 -5.61311e-18 1 

-1.15382 1.19599 33.7129 
-0.597433 0.891815 11.8771 
4.06486e-18 2.55034e-18 1 

-0.269308 -0.236761 0.705134 
0.520929 0.30666 0.342297 
6.51252e-18 9.84363e-18 1 

-0.217101 -0.156549 -0.141405 
0.0936038 0.0805683 0.128329 
3.51627e-18 -1.41515e-17 1 

-0.498192 -0.0135162 -4.5024 
-0.00552958 0.263145 -2.08014 
-8.25395e-18 -1.50922e-17 1 

-0.601348 -0.110229 1.93293 
-0.405606 0.331164 1.67357 
7.85104e-19 3.7685e-18 1 

-0.182149 0.0291037 2.74262 
0.0173054 0.005509 -2.76349 
-1.03535e-17 -5.29329e-18 1 

-1.78869 -0.877579 -1.37506 
0.302252 0.74829 -1.09083 
2.80633e-18 1.92673e-18 1 

-0.303446 0.135865 0.346016 
-0.233858 -0.251511 -0.35599 
-6.08615e-18 -5.9519e-18 1 

-0.0266517 0.378432 -0.14304 
-0.313396 -0.114373 -0.190133 
-7.34042e-18 6.7823e-19 1 

-0.225787 1.2192 -0.601302 
-0.394961 0.0896754 -0.59514 
5.57196e-18 -7.43957e-18 1 

-0.546018 -0.014335 -0.739755 
-0.0397748 0.377634 -1.64298 
-1.41082e-17 2.79319e-17 1 

-0.0670077 -0.000454555 0.161386 
0.101709 0.0209596 0.115064 
2.51529e-18 -1.07798e-18 1 

-0.407024 -1.21294 0.334492 
0.164808 0.229597 0.0383389 
-1.29249e-18 9.41671e-18 1 

-0.256839 -0.0569486 -0.977933 
0.125493 0.0848741 1.80961 
-9.66869e-18 4.21132e-18 1 

-0.097239 0.10483 0.212584 
0.0174462 -0.0146664 -0.413886 
-1.16792e-18 -3.50377e-18 1 

-0.377591 -0.285368 -0.392796 
0.261175 0.322062 0.594205 
2.354e-18 -4.77163e-18 1 

-0.437704 -0.133979 0.0166388 
0.542539 0.335415 1.3648 
1.0716e-17 1.24048e-17 1 

-0.151732 -0.0299402 -0.560087 
-0.126995 0.0494618 0.0462288 
2.95666e-18 9.14718e-19 1 

-0.0358042 -0.616783 -0.190467 
0.305846 0.0442462 -1.3561 
4.95878e-18 -6.82227e-18 1 

-0.382662 -0.554832 -0.787159 
0.417723 0.23329 -0.137384 
1.23057e-17 7.90356e-18 1 

-0.185071 -0.0571538 -0.1847 
-0.0142302 -0.0844362 -0.086765 
1.52451e-18 -3.71186e-18 1 

-0.187263 0.094323 0.100276 
-0.0718424 -0.0485446 -0.0535186 
1.10523e-17 -1.57495e-17 1 

-0.129586 -0.0615271 -0.330582 
-0.014834 -0.0307313 -0.246878 
-9.83768e-19 3.73832e-18 1 

-1.22647 -0.195639 -2.51621 
0.0653378 0.265052 0.462634 
-1.63062e-18 -9.85868e-19 1 

-0.0796114 -0.039486 -0.128058 
0.0795938 -0.0971099 -0.0712242 
3.96163e-18 -9.00371e-19 1 

-0.139884 0.0943534 5.25215 
-0.521949 0.21268 -0.584557 
4.09562e-18 -1.07015e-17 1 

-1.52728 -0.749565 3.66545 
0.0107065 0.500283 -0.542832 
-6.91404e-18 -2.07608e-18 1 

-0.198509 -0.0922432 0.0258521 
0.178066 0.122614 -0.20647 
1.07963e-17 -8.86525e-18 1 

-0.976391 0.131472 2.49479 
0.0405471 0.266344 0.806895 
-1.22887e-17 8.81396e-19 1 

-0.120478 0.0233095 0.0525631 
-0.0152178 0.0403033 -0.115742 
-7.3532e-18 -6.43523e-18 1 

-0.719196 0.185574 0.300693 
-0.284431 0.132043 -0.551187 
-3.07457e-18 -1.05414e-17 1 

-0.187182 -0.00188749 -0.215817 
-0.0660305 -0.185004 -0.381635 
-7.10306e-18 1.49164e-18 1 

-1.45455 -0.384764 1.13113 
-0.141163 0.517333 -0.634003 
3.2255e-18 -2.58854e-18 1 

-0.356259 0.197321 -0.311765 
-0.0148412 0.286052 0.192315 
7.47631e-18 5.14715e-18 1 

-0.143522 0.275416 0.574166 
0.00200601 -0.038683 0.0485218 
-1.53884e-18 -1.39121e-17 1 

-0.110393 0.0382261 -0.172417 
-0.0484857 -0.102183 -0.0603382 
6.48989e-18 -2.01713e-18 1 

-0.106803 0.0576588 -0.563749 
-0.122052 -0.00699956 -0.0236583 
9.03368e-18 7.58531e-18 1 

0.160566 -1.76709 4.10775 
0.40668 1.17346 -1.20735 
7.92011e-18 -4.44299e-18 1 

-0.365798 -0.0156814 -0.101772 
-0.0850162 0.218907 0.717322 
6.81649e-18 -3.96781e-18 1 

-0.163596 -0.224419 -0.284029 
-0.0338465 -0.0603554 -0.103766 
-7.49311e-18 -1.68171e-17 1 

-0.741845 -0.205245 1.49451 
0.355399 0.13751 -2.7689 
4.19304e-19 -8.6509e-18 1 

-0.353987 -0.0304963 0.514073 
-0.029744 0.0839804 0.204877 
2.08783e-18 -5.20445e-18 1 

-0.163403 0.151403 0.396636 
-0.0143823 0.0645604 0.340014 
3.49445e-18 6.65609e-19 1 

-0.315736 0.118854 -0.281367 
-0.0423341 -0.142024 0.337592 
-3.88049e-18 1.58872e-17 1 

-0.0242248 0.237391 -0.232817 
-0.271232 -0.0723299 -0.0976399 
-9.57056e-18 -6.30256e-18 1 

-0.226209 -0.067678 -0.97971 
-0.0493446 0.0753046 -10.256 
1.94808e-18 -2.31317e-18 1 

-0.360462 0.0961071 -0.024964 
-0.0413573 -0.145347 -0.324424 
8.81328e-18 -1.05317e-17 1 

-2.62898 -0.121318 -0.978014 
-0.0999677 0.651942 -0.512027 
-2.68088e-19 1.44097e-17 1 

-0.110096 0.0595572 0.12214 
-0.0154901 -0.0528956 -0.0941521 
6.5231e-18 2.3172e-18 1 

-0.665852 -0.398317 1.72795 
-0.101707 0.145517 -0.108331 
-2.55799e-18 -3.87771e-18 1 

-0.601629 -0.730071 -0.471279 
-0.0642755 0.282159 0.110945 
3.76472e-18 5.64708e-18 1 

-0.10126 0.014755 0.0201913 
-0.044932 0.00304262 -0.22899 
5.08767e-18 -8.9622e-18 1 

-0.0454873 0.00414964 -0.102596 
-0.0597742 -0.103363 -0.0662203 
2.5919e-18 -2.15992e-18 1 

-0.597016 0.27051 -1.92303 
0.0155964 0.364279 0.942441 
-3.48599e-18 -8.55249e-18 1 

-0.294891 0.0858737 0.00629215 
0.338129 0.242014 -0.91813 
-3.23158e-18 -3.2442e-18 1 

-1.28547 -0.630799 -1.13164 
0.121676 0.661666 1.12443 
1.85319e-18 1.1428e-17 1 

-1.40675 0.24198 -0.6868 
-0.233901 0.574779 1.86647 
-5.40789e-18 2.66881e-18 1 

-1.7977 -1.84456 -8.9878 
0.394092 0.856033 2.2964 
-1.43517e-17 5.20401e-18 1 

-0.12953 -0.230321 -0.261153 
0.210348 0.119905 -0.166575 
-8.07537e-18 -3.60962e-18 1 

-0.00282699 0.182973 0.430932 
-0.0404385 -0.0308642 0.153369 
1.10122e-17 -4.76075e-18 1 

-1.44293 -0.973709 -0.499818 
0.293033 0.598763 0.132823 
7.43965e-18 2.06021e-18 1 

-0.18321 -0.208177 -0.808503 
-0.128417 0.0919157 0.790078 
1.52302e-18 1.87449e-18 1 

-0.672142 0.513366 -3.76334 
0.0275483 0.362731 -0.658428 
1.01638e-17 3.5324e-18 1 

-0.663816 2.33443 -1.92141 
0.0884171 0.252711 1.12711 
-3.60163e-18 4.43099e-17 1 

-0.132337 -0.101871 0.790318 
0.173866 -0.0134273 -3.25873 
-1.07125e-17 8.11197e-18 1 

-1.6077 -1.1422 2.04197 
0.787775 0.998997 -1.3326 
-8.10148e-18 -1.53928e-17 1 

-0.175199 -0.0123904 -0.0607857 
-0.0156845 -0.046516 -1.20531 
-1.17033e-18 -4.23849e-18 1 

-0.458256 0.408843 0.483334 
-0.0892793 0.282202 -0.232685 
-3.97512e-18 5.23552e-18 1 

-0.209815 0.242557 -0.580131 
-0.26633 0.0698916 -0.141978 
-4.16353e-18 -4.83966e-18 1 

-1.27114 -1.08648 4.80253 
0.411595 0.561367 1.76027 
1.08713e-17 5.99928e-18 1 

-0.407103 -0.0493818 -0.0924565 
0.0693758 0.260719 -0.0100277 
-3.20389e-18 1.33323e-17 1 

-0.103902 0.0549267 -1.68211 
0.125233 0.030896 3.27776 
-2.96058e-18 3.32243e-18 1 

-0.576712 -0.0181684 -0.0787768 
0.0499044 0.070083 -0.339699 
1.48314e-18 2.47992e-17 1 

-0.205789 0.0494867 -0.0378515 
0.008512 -0.00313797 0.0436644 
-7.70677e-18 -5.1535e-18 1 

-2.27277 0.795072 2.26302 
0.309379 0.497967 0.034588 
4.29286e-18 -2.27369e-18 1 

-1.87465 -0.819578 2.06193 
-0.203619 0.441743 0.0563274 
1.66236e-17 1.13393e-17 1 

-0.116265 -0.0540404 -0.0340024 
-0.0897347 -0.0227192 -1.11168 
-3.81292e-18 -1.33597e-18 1 

-0.108483 0.00217795 1.37583 
0.0378553 0.0225944 -1.10319 
-7.64346e-18 9.3041e-18 1 

-1.26097 -1.33002 14.8649 
0.18572 0.504709 -4.05019 
-7.99356e-18 -6.43689e-18 1 

-0.351419 -0.121872 0.915959 
0.0438081 0.1281 -2.67239 
6.92677e-18 6.21719e-18 1 

-0.62244 0.1507 -0.153154 
-0.319336 0.40191 0.795174 
-8.03587e-18 -8.56158e-18 1 

-0.312288 0.0305176 -4.52799 
-0.0279325 0.103584 4.22423 
-5.78111e-18 -6.35401e-18 1 

-0.638162 -0.322254 -0.715711 
-0.11235 0.175656 -0.161704 
1.74857e-17 -1.74203e-19 1 

-0.769379 -0.5076 -0.115392 
0.182797 0.37875 0.4621 
1.83761e-17 -1.77795e-17 1 

-0.123251 0.183512 0.876591 
-0.223991 0.0507205 -0.182289 
3.81337e-18 2.10602e-18 1 

-0.319281 -0.212943 0.332493 
0.210089 0.0552203 0.216573 
-7.95118e-18 1.10508e-17 1 

-0.375586 -0.0394502 -1.12787 
-0.00191398 0.0443892 -0.22234 
3.07987e-18 -9.755e-18 1 

-0.203195 0.0340239 -0.453316 
0.0390361 0.175765 -11.0935 
-1.83447e-18 1.46313e-17 1 

-0.227292 -0.00326719 1.15102 
0.067641 0.145687 3.31576 
1.96221e-18 4.81634e-18 1 

-0.116139 0.0671749 -0.0589134 
-0.0352557 -0.066037 -0.0102069 
-1.36363e-17 -6.51286e-18 1 

-2.37228 -0.689411 0.168938 
0.131081 0.354488 -0.290842 
-8.16489e-18 -4.46758e-18 1 

-0.535486 0.0893218 -0.391996 
0.0148169 0.369374 -0.543043 
3.32955e-18 8.48394e-18 1 

-0.122539 -0.0700847 -0.778417 
0.0697904 0.0621451 -1.10547 
9.81545e-19 6.87081e-19 1 

-0.119925 0.13203 0.281292 
-0.197113 -0.00484088 0.344493 
-2.40102e-18 5.74892e-18 1 

-0.288572 -0.300173 -1.16731 
0.214331 0.286168 0.182348 
-7.71808e-18 9.75097e-18 1 

-2.26448 -0.724127 -3.92773 
-0.782816 0.684107 -1.24756 
1.75357e-18 1.87711e-17 1 

-0.65615 -0.230965 -3.81659 
0.308881 0.36301 -0.27459 
3.01401e-18 0 1 

-0.771559 0.365492 0.463175 
-0.343523 -0.0669858 0.622331 
-2.07869e-17 3.13969e-18 1 

-1.57958 1.69941 -0.122988 
-1.33192 1.26049 0.53664 
4.80039e-18 -3.63244e-18 1 

-0.59026 0.412717 -0.584766 
-0.250096 0.50979 1.00762 
9.98509e-18 -2.26077e-18 1 

-0.0751778 -0.834613 -1.05386 
0.351324 0.250804 -0.302703 
2.92328e-18 -6.77582e-19 1 

-0.161946 -0.00623555 3.41046 
0.00113063 0.0660332 -10.7286 
-2.05685e-18 1.68319e-17 1 

-0.2716 0.0610691 -2.37773 
0.105009 -0.0327564 0.790354 
-1.01246e-17 1.47815e-17 1 

-0.166281 0.044386 0.0191927 
0.125022 0.183439 -0.00990194 
7.74421e-18 -2.8328e-18 1 

-0.235892 0.102973 1.49858 
-0.355964 0.11083 -0.244388 
4.75634e-19 4.35205e-18 1 

-1.38573 -0.542219 2.28062 
0.182394 0.548827 -0.591968 
5.34295e-18 2.97582e-18 1 

-0.22391 0.0850028 -11.163 
0.0314596 0.126201 6.04584 
8.18221e-18 -1.98782e-19 1 

-2.26728 -1.36059 4.2011 
0.640315 0.993414 0.477102 
-1.45145e-17 -7.00453e-18 1 

-0.299979 0.149262 0.925998 
0.0314119 0.204777 -0.55882 
-6.56491e-18 1.21263e-17 1 

-0.474771 -0.307734 -2.64961 
0.29531 0.272039 2.27094 
-6.59871e-18 1.49862e-17 1 

-0.794421 0.28764 0.650211 
0.00840681 0.336642 -0.290519 
3.1114e-19 -1.1201e-17 1 

-0.482169 0.214713 0.851163 
0.24261 0.160966 -0.914745 
1.50448e-17 -5.02292e-18 1 

-0.414644 0.089805 0.345912 
0.0206715 0.17029 0.181824 
1.6265e-17 9.45541e-19 1 

-0.392005 0.197193 0.875147 
-0.378751 0.257954 -0.109833 
1.19713e-18 -4.35109e-18 1 

-0.140007 0.168737 -0.026332 
-0.161757 0.0995839 -0.650986 
-4.54249e-18 2.22139e-18 1 

-0.168789 -0.449681 1.00432 
0.225221 0.0507248 -0.216831 
-5.36611e-18 -6.04806e-18 1 

-0.356062 -0.170139 0.929628 
0.0672971 0.174046 -0.582818 
-3.3963e-17 2.3832e-18 1 

-0.597244 -0.078007 -1.43416 
0.112345 0.234091 -0.355816 
-7.79723e-18 -9.39499e-19 1 

-0.088163 0.0402887 0.0744112 
0.0981197 0.029897 0.150724 
-9.03382e-20 4.69759e-18 1 

-0.445445 -0.425524 0.0262459 
0.789014 0.534245 -0.719488 
-6.67866e-18 2.76565e-18 1 

-0.114569 0.106192 5.11413 
0.0685431 0.38272 5.94878 
-6.17778e-20 -3.65724e-18 1 

-0.103732 -0.0352174 1.0389 
-0.0528867 -0.0173768 -0.242191 
6.25904e-19 2.3844e-20 1 

-0.310148 -0.296504 -0.869688 
0.0221716 0.351412 1.57277 
1.37881e-18 -1.43184e-18 1 

-0.705402 0.344117 -2.29645 
-0.150834 0.263372 -0.971532 
4.61313e-18 1.10449e-17 1 

-0.0379164 0.0398294 0.200102 
0.000716877 -0.116836 0.112029 
1.30301e-17 -2.30857e-18 1 

-0.057679 -0.0799343 0.322267 
0.0578891 -0.0381846 0.427035 
1.64472e-17 -3.73426e-18 1 

-0.0924184 -0.0553198 0.176632 
-0.0279898 -0.0442289 0.16292 
5.13564e-18 -1.1922e-18 1 

-0.342079 0.232239 1.8253 
-0.0314124 0.211494 6.67352 
4.17456e-18 5.89292e-18 1 

-0.514459 0.0315185 0.756331 
-0.110991 0.179173 -0.242877 
-1.25973e-17 -3.37428e-18 1 

-0.220101 0.0723002 -1.11559 
0.0330469 0.0143132 -0.290715 
-6.52933e-18 2.99816e-18 1 

-0.137533 0.0562972 0.835062 
0.0906063 0.0195778 -0.147855 
4.06056e-20 -9.97464e-18 1 

-0.090064 0.116908 0.0466234 
-0.0799098 -0.0566244 -0.262175 
-8.5677e-18 -7.52811e-18 1 

-0.741913 0.533306 -5.8705 
0.57158 0.27904 -2.47981 
-1.24234e-17 -1.06395e-17 1 

-1.04018 -0.608364 4.01891 
0.051193 0.460812 0.173774 
3.4594e-18 2.06092e-18 1 

-0.22865 0.0607509 1.25852 
-0.156637 0.127964 -0.792006 
2.45641e-18 -8.55783e-18 1 

-1.47662 0.233939 -8.05954 
-1.39296 0.820167 -1.55716 
-2.36535e-18 2.38592e-18 1 

-1.97421 0.589175 0.0939302 
0.31355 0.542486 0.599628 
5.36715e-18 1.50951e-18 1 

-0.50745 -0.753002 -99.9691 
-0.0269339 0.279137 -24.2891 
-4.7191e-18 1.52407e-17 1 

-0.629985 0.291204 -0.213171 
0.348034 0.385907 -0.19574 
1.49507e-18 1.57778e-17 1 

-0.81828 0.0380581 0.126141 
-0.111295 0.127258 0.220422 
-1.81735e-17 1.07681e-17 1 

-1.57517 -0.354212 12.2656 
0.36805 0.807208 -8.39243 
-1.15973e-18 1.06769e-17 1 

-0.222639 -0.614938 -0.0098601 
0.200824 0.229106 -1.23324 
4.61551e-18 -1.28518e-17 1 

-0.0602961 -1.07098 -0.590017 
1.33618 0.938093 -0.113207 
-3.99686e-18 -6.89655e-18 1 

-0.245612 0.0873897 0.747605 
0.0692838 0.173497 -0.0503055 
-6.8702e-18 1.79467e-17 1 

-0.260428 0.490522 -0.242408 
0.155483 0.128697 0.816161 
1.75044e-18 6.26119e-18 1 

-0.163754 -0.0416208 0.393446 
0.0334825 -0.0381784 -1.01744 
-4.47173e-19 9.45451e-18 1 

-0.225271 0.000529584 -0.190245 
0.024906 -0.0328049 -0.43263 
-7.45555e-18 2.70073e-18 1 

-0.243477 0.0237136 -0.112397 
-0.0127085 0.0670184 -0.4357 
-9.48018e-18 2.21953e-20 1 

-0.0684745 0.278561 0.642548 
-0.235008 0.0545728 0.34922 
-1.30516e-17 1.65304e-18 1 

-0.195658 0.312792 0.366825 
-0.20107 0.0310931 -0.851902 
-5.93438e-19 1.34169e-17 1 

-0.571865 -0.5661 5.96886 
-0.045704 0.314376 -0.461248 
2.56875e-18 2.99935e-18 1 

-0.0804446 0.373067 -1.90851 
-0.146382 0.287673 1.59055 
-9.37243e-19 7.14874e-19 1 

-0.504585 0.0421373 3.1859 
-0.0498678 0.255795 5.39571 
-1.39124e-18 4.01119e-18 1 

-0.996538 0.234153 2.30514 
-0.181464 0.48726 1.08835 
-4.81581e-18 -3.33625e-19 1 

-0.136724 -0.0387431 0.0068915 
0.00269843 -0.0540923 -0.146691 
-2.23863e-17 -8.89644e-18 1 

-0.45185 -0.308292 2.85594 
0.189558 0.322151 0.92887 
5.68631e-18 -2.46228e-18 1 

-0.181137 -0.0812819 -0.538973 
0.0800485 -0.0726164 -0.229766 
1.40841e-17 1.75934e-18 1 

-0.233332 0.133795 0.996716 
-0.0495335 0.22251 -1.34396 
3.10718e-18 -9.2956e-18 1 

-0.456837 -0.131672 -0.0723816 
-0.161292 0.0326633 0.419719 
1.14467e-17 4.73658e-18 1 

-0.445622 -0.014566 -0.164292 
-0.146242 0.137369 -1.39374 
3.43713e-18 1.43529e-18 1 

-0.148612 -0.0614626 0.0609155 
0.0794642 -0.0532749 1.74898 
3.27326e-18 -4.75227e-18 1 

-0.20466 -0.612037 -0.524649 
0.197339 0.00917922 -0.30949 
1.91643e-17 1.07907e-17 1 

-0.194521 0.0648075 -0.0150676 
-0.131607 -0.0493148 0.321777 
-1.05887e-18 7.41207e-19 1 

-0.22929 0.127552 0.853988 
-0.197585 0.0893491 0.0865781 
-7.01213e-19 1.9124e-19 1 

-0.980311 0.283162 -1.37562 
0.169507 0.176429 2.14013 
-5.53874e-18 -2.98049e-18 1 

-0.264329 0.0736251 0.763232 
-0.310448 0.132564 -2.80906 
-4.75773e-18 -2.04583e-18 1 

-0.483929 0.180575 -2.15502 
-0.079533 0.0489963 -0.152023 
5.30577e-18 -4.31429e-18 1 

-1.91807 -0.931926 0.884183 
-0.0499941 0.576757 -1.99453 
-1.10257e-17 -6.02142e-18 1 

-0.613106 -0.156693 -1.94834 
-0.174321 0.320076 -0.461144 
-1.60845e-17 1.30074e-17 1 

-2.04906 1.02739 -3.86267 
-0.370409 1.13354 0.23319 
-2.81217e-18 -7.69211e-18 1 

-1.10106 -0.0752569 0.611626 
-0.520172 0.456653 -0.745509 
6.34671e-18 2.83666e-18 1 

-1.68945 0.301952 -2.39675 
-0.864008 0.724904 -1.04178 
1.31152e-18 -9.58064e-18 1 

-1.63121 1.38123 -8.35408 
0.228071 0.25745 -0.671797 
-1.81107e-17 3.72697e-18 1 

-0.29549 -0.450886 -0.522835 
-0.144018 -0.128151 1.76354 
8.55133e-18 5.04146e-18 1 

-0.299334 -0.422347 0.188679 
0.483799 0.214994 -0.232628 
-1.30067e-17 1.67461e-17 1 

-0.0669678 -0.273355 -0.432647 
0.276353 -0.0847799 -0.73167 
7.40969e-18 5.68824e-18 1 

-0.235033 0.226941 -0.163511 
-0.213559 0.120158 0.784903 
1.44737e-18 8.25454e-18 1 

-0.927846 0.251658 0.57139 
-0.463228 0.377246 0.178402 
7.59869e-18 6.37915e-18 1 

-0.0520914 0.00065324 0.00468045 
-0.0853353 -0.0509324 0.113358 
3.35242e-18 1.78796e-17 1 

-1.74813 -0.310231 -5.56813 
0.503355 0.682643 0.268329 
-1.20263e-17 -3.15623e-18 1 

-4.10894 0.284521 4.11264 
0.139335 0.981939 -1.00333 
8.54942e-18 -1.13909e-17 1 

-0.130656 -0.0743708 -0.37236 
0.0696549 -0.181039 0.230887 
5.18114e-18 2.17633e-18 1 

-0.563655 -0.569814 0.865516 
0.120356 0.31786 0.477129 
1.76536e-18 -3.01149e-18 1 

-0.166804 0.0274382 0.479247 
0.0433995 0.0543585 0.651683 
-8.46141e-19 9.09601e-18 1 

-0.190641 0.129222 -0.0587366 
0.0165108 0.159485 -0.586555 
-4.4018e-18 -2.70967e-19 1 

-1.01438 -1.14713 9.85178 
0.323718 0.660178 -2.65593 
2.52702e-18 -3.34143e-18 1 

-0.346876 0.015656 -0.0348502 
-0.235904 0.101816 0.584785 
2.34252e-18 -6.45494e-18 1 

-0.147821 0.000787189 1.93988 
-0.0619633 0.134391 0.569998 
7.86726e-18 -1.32994e-17 1 

-0.607377 0.108527 -0.416991 
-0.323392 0.175578 -0.817234 
1.10029e-17 -3.17391e-18 1 

-0.0808431 -0.0770318 -1.99148 
-0.0270397 0.155995 0.934079 
-2.19967e-18 1.31809e-17 1 

-0.123376 0.0780194 -0.354624 
0.0367047 -0.00216233 1.33952 
1.32488e-18 1.73802e-18 1 

-0.625974 -0.470799 0.130556 
-0.27884 0.0365403 0.161934 
5.88054e-19 4.78611e-18 1 

-0.219735 -0.063799 -0.251597 
-0.147654 0.16213 -0.549834 
-1.51716e-17 -9.09627e-18 1 

-0.222085 2.95377 1.67705 
0.0175354 0.139356 0.0317182 
-5.65356e-18 7.80177e-17 1 

-1.13143 -0.991512 -0.829409 
-0.17024 0.47525 -1.07538 
-3.99034e-18 -2.44352e-18 1 

-0.293585 -1.50511 10.3597 
0.412562 0.749647 -6.33336 
-5.27806e-18 -6.14184e-18 1 

-0.363158 -0.318037 1.42226 
0.442529 0.478078 -0.24157 
-9.47804e-19 -4.14664e-18 1 

-0.472371 0.00804236 -0.447959 
0.021893 0.0839735 0.650488 
9.96371e-18 -1.45326e-17 1 

-1.07004 0.227985 1.98251 
1.01304 0.297409 1.8804 
3.11058e-18 2.03601e-18 1 

-0.0730313 -0.205406 1.36086 
0.120238 0.362989 -0.719171 
-1.0547e-17 1.40315e-17 1 

-0.561569 -0.0298524 27.0252 
-0.0432766 0.426383 -15.7086 
3.02673e-18 -4.46972e-19 1 

-1.37279 -1.09011 -6.91803 
0.159438 0.668479 0.526376 
-6.90459e-18 3.58352e-19 1 

-0.148243 -0.0992488 0.0826572 
0.0212892 -0.0213879 -0.057787 
4.3377e-18 -2.87264e-18 1 

-0.160451 -0.096456 -0.060955 
0.0172162 -0.0465554 -0.249195 