# vtk DataFile Version 3.0
Output file generated by Yade's KinematicLocalisationAnalyser
ASCII
DATASET UNSTRUCTURED_GRID

POINTS 13483 float
640.129 28.2143 0.445108
835.475 48.7065 0.54957
125.174 6.16903 0.454064
874.419 4.00276 0.368252
521.9 7.6407 -0.300145
327.82 34.7573 0.329093
163.038 6.85905 0.427005
598.889 10.0533 0.150071
518.836 22.6977 0.153371
774.987 12.4438 0.400948
219.189 9.02535 -0.112417
267.536 6.30215 -0.263196
694.114 29.123 -0.155499
669.99 13.9223 0.0722319
142.722 16.9579 0.398709
230.644 34.3311 0.405983
226.632 12.9497 -0.281346
300.749 9.5471 0.386452
354.935 32.3027 -0.269188
549.273 8.53767 0.345756
428.116 36.4505 0.0983724
622.991 44.5914 -0.256836
869.261 32.5365 -0.49992
747.964 41.2908 -0.47447
478.987 16.0689 0.28019
251.028 44.0094 -0.125498
513.75 27.0378 -0.526708
617.167 19.4802 0.223618
47.0037 15.5201 0.456542
771.414 32.7992 0.313989
503.946 4.93689 0.313197
17.262 23.1271 0.28448
850.167 47.2281 -0.241408
517.64 2.46495 0.49223
81.5805 44.1058 -0.100433
546.057 30.1473 0.349356
555.972 16.4926 -0.408095
358.518 22.3042 -0.18684
559.022 25.2008 -0.337684
365.346 32.9262 -0.424648
251.193 14.6155 -0.348216
453.047 35.3491 0.0753694
722.559 6.92996 0.11929
200.91 6.21932 0.370467
57.7935 7.0036 0.0879393
71.3793 8.9072 0.287829
740.917 8.63874 0.472955
24.6284 11.529 0.290428
644.993 44.3499 -0.358027
724.177 22.5271 -0.36706
180.102 32.2126 0.304686
832.398 36.0083 -0.154773
36.4505 28.0073 0.12221
559.977 2.9453 0.327439
148.201 7.50592 -0.473813
625.942 33.8921 0.432639
527.983 26.2857 -0.137795
182.289 0.936998 -0.267405
34.2806 2.42747 0.28978
363.749 17.5907 0.269268
657.085 44.6547 -0.13222
482.86 33.2498 -0.172233
416.598 1.02907 0.194967
753.683 7.89326 -0.351689
27.5983 42.7799 -0.235015
267.198 30.342 -0.31851
774.869 7.80464 0.207571
716.104 43.6465 0.357675
435.793 8.60576 -0.48414
599.817 3.50619 -0.344256
807.939 29.3352 -0.36696
136.321 7.62319 -0.304456
521.705 25.1078 -0.126377
499.469 14.8487 -0.137049
307.161 16.6238 -0.336063
21.6701 13.4926 0.235708
856.014 38.3824 -0.378413
347.011 38.5814 -0.286119
721.258 19.6677 0.355114
740.797 12.5924 0.253644
861.096 11.2974 -0.274711
486.467 34.2034 -0.167309
96.4833 38.2246 -0.27577
734.755 33.1993 -0.209194
690.029 37.4243 0.112536
878.486 38.1713 0.144141
855.061 0.797227 -0.582208
303.74 28.5658 0.450589
658.416 6.32019 -0.123012
25.4372 5.16491 0.469306
138.907 38.0525 -0.147997
537.899 14.4424 0.218191
845.382 27.2855 0.527694
204.253 28.4769 0.226445
46.2514 34.1243 -0.291231
516.505 1.15724 0.126414
246.333 8.85875 -0.358516
812.166 37.9238 0.284694
832.341 25.6828 0.268497
377.797 20.7678 -0.256604
171.608 26.8128 -0.469296
578.819 37.7695 0.419873
397.362 15.4975 -0.442449
432.703 29.5087 -0.104033
395.472 4.41561 0.411841
576.881 10.8395 -0.0894572
879.003 11.449 -0.268601
84.0321 39.0032 0.400871
350.813 4.86451 -0.181432
592.06 9.38165 -0.344931
376.651 43.6471 0.448594
26.7976 24.167 -0.478325
31.919 5.72205 0.32528
600.358 31.9846 -0.418611
530.814 23.5862 0.146649
27.6559 36.7702 -0.420892
97.4064 30.7293 0.222603
340.32 15.8677 -0.291978
636.475 18.6514 -0.14711
499.212 37.4543 0.313314
793.508 7.55797 -0.401216
785.28 6.3112 0.215897
405.323 36.8749 0.104384
676.925 24.7136 0.121981
249.631 17.0416 0.496056
345.871 3.73348 0.458718
108.433 31.4066 0.357516
121.875 23.7119 -0.260924
573.938 38.041 0.0733537
320.699 18.7478 0.455158
766.709 35.7736 0.114349
720.252 42.9407 0.117183
505.657 20.238 -0.41411
838.142 11.0364 0.35918
450.352 22.9894 -0.229543
290.547 24.0501 0.292206
722.786 30.029 0.266306
292.577 28.3119 0.387514
610.717 11.966 -0.211979
348.329 35.3605 0.209454
532.03 11.4311 0.460314
385.065 31.5541 0.091083
452.59 16.4754 -0.106117
333.982 41.7273 -0.351313
200.39 29.6945 -0.124292
840.154 47.0727 0.144621
875.671 13.2722 -0.29129
6.32766 12.1736 0.464783
456.772 22.2234 -0.406256
40.2283 22.4124 -0.0755314
395.344 31.116 -0.419766
415.266 24.4953 0.297186
78.5983 12.0056 -0.510406
54.4297 32.922 -0.42313
237.561 13.4793 0.39687
658.458 38.1478 -0.418815
613.497 20.5769 -0.430392
78.7755 20.9166 -0.473777
750.752 45.0978 0.428633
824.963 2.44773 -0.461781
708.123 40.0687 -0.510655
748.687 2.36957 -0.378204
583.344 26.3294 0.395555
624.75 44.7481 -0.4529
541.856 17.8516 -0.40434
872.692 3.18946 -0.260482
235.199 24.5231 0.114701
134.383 35.1073 -0.196661
260.212 6.64908 0.382932
99.3695 4.19222 -0.266404
67.5934 10.0895 -0.20101
290.386 35.8536 0.294965
17.4775 24.8969 -0.354186
589.515 19.028 -0.387272
644.678 39.2692 0.240067
488.468 20.8812 -0.366347
867.509 46.6986 -0.365095
428.701 8.53708 -0.0989724
459.739 35.8217 -0.373621
568.776 3.42388 -0.190596
24.0897 23.7052 -0.396499
613.692 4.55843 -0.329588
579.126 4.34121 -0.286861
217.349 11.4996 0.483193
448.576 16.2794 -0.190119
328.158 6.26417 0.332496
408.95 18.9576 -0.3359
799.069 41.5157 0.104263
202.575 25.5461 0.423995
848.258 7.4928 -0.31636
797.704 37.911 -0.333335
404.225 10.1403 -0.166741
772.373 2.30595 0.429582
644.769 24.9812 -0.388574
801.255 17.7192 -0.394988
454.769 42.3514 0.301039
525.971 12.3525 0.34597
492.108 43.6696 -0.219469
470.737 8.57866 0.125974
711.561 38.854 0.302006
709.136 35.1431 0.320244
202.705 38.7893 0.361478
858.892 11.3616 -0.171992
626.787 45.0999 -0.22432
11.8694 16.9074 0.217589
430.088 25.1127 0.343455
197.548 22.889 -0.405564
98.1316 39.1121 0.204607
843.198 24.6339 0.454538
705.397 44.9323 -0.227613
336.657 25.3212 0.346371
565.465 10.0791 0.323001
86.8386 44.1008 0.166633
261.314 25.7697 -0.472915
592.574 22.8265 0.361096
515.433 18.3539 0.410559
277.274 0.888707 -0.343322
588.41 39.4764 -0.359422
567.177 40.2402 0.461054
510.614 32.5636 0.395013
529.201 0.784732 -0.497792
759.409 19.5283 -0.416087
189.563 11.9505 -0.170393
530.692 35.7561 -0.44508
601.381 39.1275 0.132381
76.9367 0.94958 -0.272452
265.704 4.71844 0.173993
874.512 15.098 0.253401
861.678 13.2749 -0.356954
881.101 15.8464 -0.556434
320.414 8.52449 -0.227777
808.272 22.2565 0.393434
430.263 40.9232 -0.316166
475.063 0.814888 -0.397966
696.784 35.4938 0.576928
28.5502 30.4583 0.209082
349.19 40.585 0.505208
266.584 2.85556 0.323409
852.511 43.4896 -0.224323
770.786 47.9991 -0.23355
303.44 10.8942 0.217407
715.775 28.5611 -0.0948595
593.878 2.64944 0.276919
576.822 6.40673 0.416293
102.122 18.2382 0.478908
320.288 1.02918 -0.22407
362.717 2.25493 -0.367497
14.7945 7.59141 0.391965
4.64165 30.668 -0.254385
171.064 18.9786 -0.37592
72.0077 41.5333 0.177572
70.6203 28.6094 0.317946
448.159 14.4357 -0.413441
388.165 35.008 0.477992
829.613 37.5067 0.127285
20.6609 4.01973 -0.269786
74.5693 6.91302 -0.127234
669.191 37.0478 0.156836
311.339 0.945152 0.314328
385.937 15.9858 -0.0971405
249 4.57107 0.378181
700.952 21.2794 0.194344
478.377 8.33225 0.402842
811.266 20.0494 -0.421574
676.12 28.5048 -0.345116
720.325 17.71 0.0864281
444.728 26.3765 0.49587
107.892 44.5448 0.318022
577.646 41.5548 0.0766382
799.028 13.1165 0.231231
251.527 30.1383 -0.233137
34.0077 16.9526 -0.181339
355.854 13.7238 0.493706
113.794 40.2481 -0.465964
283.231 41.8944 -0.197015
450.407 1.08963 -0.218357
854.942 33.6102 0.42556
740.991 0.814507 0.48674
351.382 3.24356 0.522459
317.28 26.1719 0.147726
490.85 40.547 0.211368
86.1702 8.06064 -0.444576
209.249 44.6319 0.377905
834.723 28.2345 0.397751
525.564 38.4596 -0.0941693
211.733 41.0405 -0.263811
170.382 42.1022 0.067579
880.343 33.5362 -0.440643
877.379 12.4949 -0.577044
648.642 3.51366 -0.447336
201.242 24.3617 -0.102234
585.3 27.2134 0.104024
587.349 26.9565 -0.261362
433.417 5.61552 -0.135286
511.297 0.930002 -0.28273
827.275 38.8825 -0.476231
89.8997 30.6977 -0.232287
706.756 18.0748 0.447141
290.26 15.4096 -0.346169
10.369 2.31536 -0.346693
132.912 36.6553 0.191936
70.8202 22.659 -0.477524
759.226 36.9636 -0.311797
857.053 50.9633 0.119965
196.61 28.1776 0.183692
870.349 12.9355 -0.375832
47.6566 36.2182 0.259403
96.2137 29.0962 0.156351
680.381 12.8239 0.469358
438.074 18.0777 -0.473918
552.619 16.5026 0.122784
252.12 28.1904 0.18118
665.899 4.48671 -0.411102
881.774 10.9561 0.402199
31.5641 31.4753 0.278085
285.879 7.69118 0.189025
235.209 15.109 0.269438
1.09497 35.218 -0.14534
238.562 14.551 -0.365176
224.19 10.9976 0.115161
226.934 26.2123 -0.226359
140.77 27.6223 0.126256
583.721 14.8971 -0.342944
176.984 14.0492 -0.35162
846.998 44.9119 -0.224033
184.382 3.79452 0.509887
50.0787 37.2302 0.395593
805.94 47.6879 -0.426783
297.596 31.3745 0.396265
730.726 22.2691 -0.458822
863.485 33.0165 -0.527818
318.423 9.1303 -0.109404
795.312 29.8845 -0.353766
348.197 2.6063 -0.374138
440.879 23.6978 0.360388
727.08 15.8175 0.422777
111.818 12.0567 -0.400812
513.028 3.89832 -0.475527
815.25 17.7773 -0.180587
93.4685 7.72923 0.199805
298.244 14.6302 0.200934
448.964 11.5969 -0.19568
871.294 3.62161 0.511781
421.66 1.94044 -0.525918
187.484 38.5365 0.287412
801.898 10.196 -0.416638
136.157 36.2439 0.188858
278.52 31.4138 -0.410726
424.392 21.5628 0.22124
613.167 13.7612 -0.334266
410.277 9.7562 -0.473535
484.599 27.4855 -0.408646
836.459 48.1864 -0.415543
50.4537 10.9026 0.124207
317.068 38.1612 0.256871
402.234 26.9173 -0.345592
434.101 20.8091 0.263059
554.985 43.8387 0.356406
820.752 35.4094 0.197364
714.903 34.3575 0.360153
239.266 33.9993 -0.394738
14.8052 31.1557 0.155174
707.539 36.3069 -0.131551
541.655 40.8166 -0.0163587
243.189 39.1136 0.107761
738.682 30.2217 0.145764
160.253 9.18951 0.20899
388.509 21.2003 0.296774
492.676 41.5812 0.100903
439.154 19.4741 0.192581
832.017 49.8874 0.290992
451.931 3.41597 0.430621
52.7395 25.0958 -0.309903
499.472 31.1881 0.347905
461.165 41.1855 0.422992
850.174 37.6409 -0.243005
791.064 27.3286 0.242211
577.163 18.2993 -0.20864
842.453 39.963 0.482042
310.65 2.18783 -0.441139
401.112 29.3263 0.453209
30.8313 38.6051 -0.294213
798.345 30.1112 -0.160605
653.331 19.7641 -0.502245
491.844 0.773087 -0.47531
133.793 4.46928 0.283383
452.609 39.7569 0.0987904
12.8649 0.903635 0.316982
870.928 6.11756 0.1336
392.423 39.0953 -0.39395
[...]
POINT_DATA 13483
TENSORS Strain_matrix float
-0.0997618 -0.00857234 1.32338 
0.0661178 0.0889012 0.515275 
-0.0837027 0.0284532 1.52057 

-0.0831231 -0.28231 -6.68367 
0.079159 0.312829 -0.935452 
0.00225394 0.00159221 0.505839 

-0.0329056 -0.00538441 -0.0148444 
-0.00179724 0.0138799 0.0300323 
-0.00443245 -0.000511711 0.0151107 

-0.380758 0.191894 0.468641 
-0.172795 0.224557 0.187273 
-0.0142554 0.00984765 0.398399 

-0.00986986 -0.00409404 0.00993826 
-0.00816585 0.00284515 0.00893986 
0.00247683 -0.00256661 0.0123921 

-0.0237766 -0.0107598 0.00772789 
-0.00275435 0.00659148 0.00726887 
-0.00188121 -0.00310576 0.0293504 

-0.0381588 -0.00732015 -0.0065904 
0.000695347 0.0124438 -0.00917618 
0.00126382 0.000497834 0.0200956 

-0.0159294 -0.0120108 -0.000638842 
0.01835 0.00609856 0.0046794 
4.08217e-05 5.43581e-06 0.00712811 

-0.0136795 -0.013221 0.0671161 
-0.00252027 0.0146549 -0.00942451 
0.000710305 0.000114192 0.00686126 

-0.0767333 0.108577 0.151485 
-0.152564 0.00316288 0.183963 
-0.00379145 0.00014934 0.17298 

-0.0229285 -0.00159845 -0.0675081 
0.0164713 -0.00146897 0.0683493 
0.000350767 0.00114918 0.0254026 

-0.021355 -0.00515452 0.0226231 
0.00605249 0.00506393 0.0110993 
0.00164999 -0.000102488 0.00653526 

-0.119074 0.227302 0.932305 
0.00250865 0.114418 -0.137256 
-0.00142828 -0.0198383 0.0912044 

-0.0126944 -0.0191562 -0.0352416 
0.00319616 0.00247222 0.00120363 
-0.0015912 -0.000307573 0.0112791 

-0.0206545 0.00844306 -0.0221895 
-0.00868331 0.00310067 -0.00261487 
0.0131447 -0.00145832 0.00197401 

-0.0322494 -0.00156689 0.222792 
-0.00860691 0.00928251 0.0260474 
-0.00709427 -0.00289233 0.118383 

-0.0362739 0.00106316 0.0183485 
-0.00588944 0.0118486 0.0193295 
-0.0003122 0.000577732 0.0155863 

-0.0328604 -0.00802799 0.0115864 
-0.00154809 0.0123124 -0.0418687 
-0.00115823 0.000668132 0.0456643 

-0.0368957 0.00569858 -0.0711147 
0.00406672 0.00635761 -0.00574483 
0.00691651 -0.000218125 0.0241862 

-0.018405 -0.00294302 0.0633086 
-0.00604797 0.00361087 0.0960537 
-0.00159425 -0.00378659 -0.00730778 

-0.0041381 -0.0168407 -0.016698 
0.0397428 -0.00619588 -0.00297918 
-0.00271958 -0.00179851 0.034278 

-0.0100182 -0.0245285 -0.0990084 
0.0253651 -0.072102 0.181528 
0.0114701 0.0078433 0.00799383 

-0.587646 0.0849587 -6.80771 
-0.13978 0.258906 -1.88527 
-0.00831255 -0.0286796 -0.0425619 

-0.0614352 -0.045729 0.305746 
0.0298601 0.0154197 -0.962805 
0.0111515 -0.00298343 0.0485666 

-0.010685 -0.0150694 -0.0245928 
0.00246882 0.00974108 -0.0630821 
-0.00389584 -0.00305638 0.0450392 

-0.0667063 0.000693096 -0.0106315 
-0.00957613 0.0502433 0.168759 
-0.0520249 0.00280111 0.40576 

-0.0187729 -0.00292028 0.0624263 
0.0013639 0.0100891 -0.00891332 
0.000130193 -0.000318311 0.118952 

-0.00900731 0.00778234 -0.0777763 
-0.0440003 0.0110272 -0.0708043 
-0.00255388 -0.00120029 0.0257964 

-0.0227858 -0.000886151 0.247046 
-0.000995395 0.00820549 0.281273 
0.000599502 0.0019426 0.0718266 

-0.0432761 0.0710748 0.20419 
-0.00585048 0.0188847 0.184418 
0.00946921 -0.00248507 0.0641583 

-0.0100585 0.00865312 0.0100929 
0.00579835 0.00419555 -0.0106197 
0.000832203 -0.000273164 0.00268313 

-0.0423776 -0.0165463 0.0843913 
-0.0435158 0.0439631 0.0471887 
0.00165303 0.00256525 0.00778128 

-0.234911 0.00237897 0.53635 
0.0486563 0.053808 0.0133713 
-0.0638544 0.0139497 1.09813 

-0.0197886 0.00228156 0.239794 
0.00293713 0.0165625 1.09887 
-0.000679591 0.000523731 0.316855 

0.00564958 0.0131766 -0.0487275 
0.000745345 0.014454 0.0502388 
0.0032092 0.00709876 0.0302106 

-0.0316267 -0.0180987 -0.325369 
0.0162314 0.0172494 0.391918 
0.00773843 0.00399513 0.150117 

-0.0142173 0.000343539 -0.0521709 
0.00380823 0.00224428 -0.0877199 
0.000461656 -0.000545839 0.0037181 

-0.0164287 -0.0111193 -0.0241771 
0.00747978 0.00480203 -0.0089519 
0.000180328 -7.88745e-05 0.00697664 

-0.0357619 -0.0432127 -0.100552 
0.00167058 0.022062 -0.0230608 
-0.0320949 -0.00189661 0.328 

-0.0344043 -0.0144334 0.15148 
0.0179326 0.020916 -0.0525492 
-0.0264145 0.0105326 0.0673879 

-0.0269844 -0.00483285 0.0225427 
0.00281496 0.00502681 -0.00674381 
-0.000788335 -0.00199104 0.0152257 

-0.0325426 -0.0167668 -0.168491 
0.0475172 0.00150105 0.135199 
-0.0193002 0.00453488 0.254069 

-0.040432 -0.00024344 0.0048177 
0.00327981 0.0273673 0.0672503 
0.000105393 0.000144126 0.0276496 

-0.0174392 0.00598806 0.0926365 
-0.00480209 0.011303 -0.00493711 
0.00551705 -0.00200327 0.0757268 

-0.0285135 -0.00154201 0.00254585 
-0.00550581 0.0145725 -0.015349 
-0.00194603 0.000130699 0.0189883 

-0.0225499 -0.0025234 -0.014955 
-0.00658557 0.00629084 -0.00298417 
-0.001129 0.000617294 0.00893257 

-0.0382731 0.00375139 0.143833 
-0.0148683 0.0222975 0.189366 
-0.00286258 -0.00635987 0.102274 

-0.0148313 -0.00770329 0.0033171 
-0.00107416 0.00639586 0.00642991 
0.000264671 0.000348873 0.0167187 

-0.0386658 0.0440666 0.142728 
-0.0280502 0.00693678 -0.0811763 
-0.016654 0.0385568 -0.0681056 

-0.038458 0.0297417 -0.0463587 
-0.0176553 0.0184126 -0.149948 
0.0377311 0.00954802 0.0586097 

-0.0360379 -0.0430637 -0.0654218 
0.0468041 0.0135146 -0.0356034 
0.0112353 0.00950713 0.121121 

0.0205845 -0.142782 0.383118 
0.144262 -0.0290436 -0.0974708 
0.00102107 -0.000328643 0.119668 

-0.00133617 -0.0152735 0.0347453 
0.00713974 0.00486538 0.0210248 
0.00053699 -4.84696e-06 0.00656484 

-0.015039 0.0159311 0.00995533 
-0.0179395 0.00404736 0.0694876 
-0.00148798 0.00135405 0.0291544 

-0.0292821 0.0061602 -0.309847 
-0.00270936 0.0120612 -0.351867 
-0.000965866 0.00265078 0.0244885 

-0.0411749 -0.0501939 0.03493 
0.0540613 0.0394504 0.0685724 
-0.00274022 -0.0170698 0.223964 

-0.0104175 0.00522642 0.032688 
0.00531463 0.0182189 0.0677497 
0.000521164 0.000242518 0.00387607 

-0.030136 0.000291396 0.0414871 
0.00315085 0.0411409 0.059412 
-0.000600996 0.011424 0.0085867 

-0.0114126 -0.00449021 0.0489667 
-0.00418583 0.00480129 -0.0238305 
0.000449421 0.000380093 0.0131713 

-0.0140476 -0.00640476 -0.0398343 
-0.0143291 0.0105722 0.00880717 
-0.00051119 -0.00222812 0.0254407 

-0.0156422 0.0531797 -0.033007 
-0.0194422 0.0254805 -0.0659185 
0.000367582 0.0020211 0.0173383 

-0.0112264 -0.0148196 0.014156 
-0.0139419 -0.00371104 0.00801775 
0.00110967 -0.000656439 0.0116385 

-0.0245546 -0.0376784 -0.0921287 
-0.00688964 -0.000500577 -0.0262261 
0.00293452 0.023845 0.111181 

-0.0264046 -0.0153118 0.413286 
0.0232306 0.0157122 0.20074 
-0.0145403 -0.0135481 0.0947506 

-0.0363973 -0.00481295 -0.0215552 
0.000731203 0.0293249 -0.0852782 
-0.000415277 -0.000908739 0.0129759 

-0.0468228 0.0263892 -0.0369686 
-0.00665965 0.0218595 0.0121359 
0.00131349 -0.00117766 0.0377502 

-0.00781197 0.0296512 0.0434081 
-0.104382 -0.001687 0.0171499 
0.00569473 -0.00678325 -0.00293656 

-0.0437939 -0.00865859 -0.0662401 
0.040155 0.0138836 0.0368599 
0.00973596 -0.0137502 0.0188539 

-0.0177716 -0.00108068 -0.152265 
-0.0038747 0.0040013 -0.125738 
0.000110578 0.000857732 0.112752 

-0.00560663 -0.0175348 -0.0103217 
0.00159516 0.00619651 -0.0291241 
0.000960741 -0.000693944 0.00431045 

-0.0744255 0.0474256 -0.00354394 
-0.00714677 0.0286477 -0.0522582 
0.000378411 0.000136123 0.0843154 

-0.0212289 -0.0100254 0.0484749 
0.00149964 0.0129123 0.0418187 
0.000529146 0.000673579 -0.0167571 

-0.0140375 -0.0152207 -0.00488453 
-0.00513257 0.0242721 0.000708926 
-0.000477673 -0.0004735 0.0024256 

-0.0179948 -0.00378575 0.00763817 
-0.0101422 0.00857307 -0.0822148 
-0.0223277 -0.0161176 -0.0702004 

-0.0155653 0.00329255 -0.076997 
-0.00241259 0.00323432 -0.053496 
-0.00032237 0.000558893 0.0306234 

-0.022129 -0.000173836 -0.000863007 
-0.000619087 0.00801775 -0.0048583 
0.000136263 -0.00163362 0.0211505 

-0.0570949 -0.271054 0.00943583 
0.368354 0.158152 0.0801977 
-0.00305233 0.0254521 0.0261057 

-0.0229833 0.0112703 0.0272877 
-0.0134823 0.00599849 -0.0794602 
-0.0101553 -0.00747882 -0.00329448 

-0.0621587 0.0489691 -0.0345049 
-0.0272166 0.0196546 0.164141 
-0.00831098 -0.0975332 0.233844 

-0.0150758 0.0120613 -0.210247 
-0.00686434 0.0113354 -0.12613 
-0.00196499 -0.031825 -0.0780343 

-0.0850852 0.0492507 -0.112346 
-0.0544499 -0.011783 -0.226773 
-0.00666257 0.0134931 0.158517 

-0.0105274 -0.00229064 0.0254074 
0.0155062 0.00738977 -0.00344965 
-0.0260184 -0.0133741 0.0634438 

-0.0170987 0.00622597 0.0483408 
0.00448646 0.0141751 0.0464552 
0.0296285 0.0112851 -0.143637 

-0.00953633 -0.00265899 0.00209788 
0.0021801 0.00391977 -0.0113161 
-0.00041007 0.000333696 0.00463314 

-0.0451107 -0.0511244 -0.00783641 
0.074275 0.0259652 -0.0150596 
0.00434694 -3.97307e-06 0.0352516 

0.0111136 0.382942 0.587371 
-0.329386 0.145035 0.467789 
-0.00645635 0.0672724 0.409936 

-0.197052 9.84199 55.1502 
0.010274 0.444776 -0.796758 
0.000795913 -0.0346853 0.495265 

-0.0209874 0.0275602 0.03292 
-0.0202033 -0.00443403 -0.0453674 
0.00362103 0.00149361 0.0339609 

-0.0638639 0.0351467 -0.115067 
-0.0384255 0.0540639 -0.115721 
-0.0379993 0.0576258 0.199279 

-0.0290147 0.00592385 0.175267 
0.00266495 0.00759806 1.0782 
-0.000324434 -4.0809e-05 -0.133699 

-0.0268459 -0.00204564 0.0332716 
-0.0217202 0.00189678 0.000922326 
0.00323067 -0.013659 0.0123878 

-0.0356009 -0.0158635 -0.013526 
0.0046035 0.00234633 -0.00554544 
-0.00689678 0.0183044 0.0661421 

-0.025162 0.242679 2.51335 
0.0162405 -0.0476465 -1.46354 
0.0215324 0.0234564 0.0395409 

-0.0409685 -0.00282915 0.00156798 
-0.0163271 0.0207084 0.0814394 
-0.000828108 0.00115844 0.00786757 

-0.0227873 0.00564016 -0.0117631 
-0.00555649 0.00871468 -0.0759955 
-0.0099831 0.0105705 0.111314 

-0.0174439 0.019561 -0.0373978 
0.00454394 -0.00691909 0.0287081 
0.000433615 -0.00243501 0.0154578 

-0.0232896 0.00467919 -0.00523333 
-0.00256217 0.00572598 -0.0202096 
-0.00139266 -5.4449e-05 0.0110562 

-0.0371798 0.106213 -0.425943 
0.0647679 0.0115112 -0.085382 
-0.00124421 0.00191664 0.0677832 

-0.507976 0.136098 -0.322432 
0.00628021 0.332461 -0.507466 
-0.0466515 -0.0477004 0.484054 

-0.0272747 0.0223088 -0.0580663 
-0.0122169 0.0142137 -0.00436294 
-0.0187719 -0.0112166 0.405178 

-0.0252871 0.014561 -0.0274435 
-0.00927776 0.00595101 0.497946 
0.000871109 -0.00068401 0.117513 

-0.016424 -0.0139747 0.217785 
0.00875762 -2.55064e-05 -0.0807979 
-0.0060926 -0.00524456 -0.487984 

-0.0253022 -0.0083474 -0.529986 
0.00261 0.0246549 -0.50225 
0.0260898 0.0626982 -0.748519 

-0.0353996 0.0045324 0.201188 
0.0155333 0.0116182 0.112381 
-0.00024143 0.000793272 0.0228427 

-0.020832 0.00130501 0.0717289 
-0.00586421 0.00524322 0.111325 
-1.58776e-05 0.00114266 0.00944213 

-0.0162265 -0.00653908 0.00317806 
-0.0010088 0.0044082 0.00107023 
-0.000524977 -0.000148774 0.0119176 

-0.189029 -0.139283 0.18524 
-0.109872 -0.0258717 -0.0590893 
0.0196307 0.00656862 0.198439 

-0.0288831 -6.65075e-05 -0.142066 
-0.0124905 0.00821767 -0.00881129 
-0.00178237 -0.0170368 -0.157223 

-0.0293645 0.034922 0.0601407 
0.0122788 -0.00797182 -0.0478624 
0.00016549 0.00259044 0.0484742 

-0.0247812 -0.00187241 -0.271548 
-0.00633131 0.00955834 -0.045883 
-0.00199925 0.000548381 0.0345624 

-0.0353319 0.0149766 -0.190342 
0.0114165 -0.0019686 -1.6561 
-0.00421914 0.000721318 -0.307278 

-0.0344637 -2.52437e-05 -1.17161 
-0.0068648 0.0135837 -0.284673 
-0.00286606 -0.000760473 0.0431445 

-0.0196958 0.00316455 -0.00904469 
0.000817633 0.00540057 -0.0254361 
0.000896395 0.000877321 0.0141164 

-0.043785 -0.00171903 0.0790132 
0.0376261 -0.00255949 -0.161312 
0.0123211 -0.0201003 0.19988 

-0.0120463 0.00452337 -0.0122598 
-0.00452214 0.0209371 0.045131 
0.000447025 -0.000237295 0.000920722 

-0.0232023 0.000911407 -0.10167 
0.00338942 0.0115197 0.0642519 
-0.0162303 0.00939287 -0.0750757 

-0.0161767 -0.0104903 -0.0314044 
0.00910794 -0.000802606 -0.0284494 
0.0126223 0.00544132 0.0333836 

-0.0188428 0.00242 0.00981358 
0.00313555 0.00720333 0.00671465 
-0.00339207 -0.00120771 0.0172889 

-0.0398909 0.00524128 0.0142267 
0.0651142 -0.0282162 -0.0725594 
0.00813482 0.0748779 0.175225 

-0.0153015 0.00465046 0.0146905 
-0.00109609 0.00203458 0.0430556 
0.00193429 0.000645593 0.0128267 

-0.0797082 0.0142447 -0.295966 
0.0210222 0.00360531 -0.304898 
0.00336984 -0.00478562 0.182159 

-0.0883457 0.117438 -0.139299 
-0.0105014 0.0373811 -0.0593409 
0.00974275 -0.0196076 0.214393 

-0.0219873 0.00692709 0.00968291 
-0.0172413 -0.00382888 -0.0810221 
-0.00382748 0.00450522 0.0554307 

-0.0517498 0.0641939 -0.0207234 
0.00388538 0.0237651 -0.0384813 
0.0437508 -0.0138191 0.168302 

-0.0254637 0.00118549 0.445067 
-0.00641796 0.00950916 0.821246 
-4.59919e-05 0.000482052 0.191052 

-0.0198978 0.0156856 -0.119838 
0.0020787 0.00641064 0.151244 
-0.000392915 -0.00136606 0.0558205 

-0.013641 0.00686255 0.0193312 
-0.0316621 0.00661677 -0.0578909 
-0.00207067 -0.0030619 0.0234746 

-0.0554405 0.0349774 -0.0724819 
0.00501701 0.0573331 -0.103384 
0.0109562 0.00181419 0.0683894 

-0.0128091 -0.0211126 0.101066 
0.0155906 0.00724821 0.0149232 
0.0316647 -0.0056813 0.180426 

-0.0244283 0.00615311 0.00451915 
0.00258711 0.00539729 0.00177677 
-0.00921412 -0.00927589 0.109468 

0.004687 -0.0539574 -0.0455379 
0.0581872 0.0121201 0.018417 
-0.00832239 -0.00692669 0.0358285 

-0.0525878 0.0500492 0.0755109 
-0.0554692 0.0165417 0.0614925 
-0.0127086 -0.00864058 0.10913 

-0.0220271 -0.00377199 -0.210217 
0.000342466 0.0105768 0.0759986 
0.00347924 -0.0100582 -0.0640962 

-0.253946 0.408836 0.164791 
0.00659713 0.000552522 -0.132581 
0.02912 -0.0376113 0.293792 

-0.0283005 -0.00218705 -0.0415552 
0.00339707 0.033503 -0.116162 
0.038473 0.0306653 0.432886 

-0.022893 0.011949 -0.0143737 
-0.00683132 0.0482973 -0.46137 
0.00191013 -0.00103092 0.0840458 

-0.0142099 -0.0159514 0.0614137 
0.00267324 -0.013574 -0.0586978 
0.000225518 0.00181737 0.0412344 

-0.0303136 -0.000100615 -0.0203721 
-0.0105951 0.0258762 -0.488515 
0.00453489 -0.00561691 -0.0441507 

-0.0208778 -0.0427614 -0.00962491 
0.030164 -0.0029005 -0.00233721 
-0.000120297 5.38373e-05 0.0345285 

-0.0172286 -0.00375157 -0.0143451 
0.00163083 6.76587e-05 0.00520854 
0.000787502 -0.000638386 0.0214412 

-0.0228342 -0.015776 0.0108164 
0.0190557 0.0120569 0.125214 
-0.0091879 0.00380528 -0.0122575 

-0.0271302 -0.011974 0.0358357 
-0.0188401 0.00644925 0.0100944 
-0.043722 0.0505256 0.0226831 

-0.0266686 -0.00961401 0.035926 
-0.0031744 0.00521177 -0.00594091 
-0.0173507 0.00419108 0.0594408 

-0.0259078 -0.00378647 0.0034389 
-0.00178773 0.0123022 0.125232 
0.000897042 0.00393327 0.0287159 

-0.0237691 -0.0132259 0.11846 
-0.00863639 -0.00502641 0.115478 
-0.000840475 0.000954101 0.0364965 

-0.0895216 -0.448885 -0.695669 
0.107912 0.15763 0.698969 
0.023352 -0.00359954 0.709554 

-0.234388 -0.03972 0.343242 
-0.0607182 0.0893988 0.00453016 
-0.010086 -0.00458325 0.174348 

-0.029677 -0.00410115 -0.0905847 
-0.0102178 0.0158868 -0.00530593 
0.0176045 0.00628055 -0.292035 

-0.014578 0.0256706 -0.0373865 
-0.0200075 0.00596725 -0.121238 
0.0143218 0.00568715 0.0272172 

-0.0271274 2.93369e-05 -0.000147949 
-0.0232386 0.0118055 -0.0205242 
8.03416e-05 9.02764e-05 0.00653351 

-0.0328847 0.00575773 -0.0520251 
-0.00263219 0.0214336 0.466484 
0.0148744 0.0122854 -0.240541 

-0.0662597 -0.00831321 0.0404637 
0.00202572 0.0388515 0.0363601 
-0.0152288 0.0096477 -0.109213 

-0.0278666 -0.00862211 -0.499043 
0.00430223 0.0104103 -0.709021 
6.39757e-05 -0.000620405 -0.0248774 

-0.0164678 -0.00302243 -0.181683 
0.00103759 0.00632421 -0.0433111 
0.0100518 -0.00137177 -0.00459253 

-0.0171347 0.00896257 0.030106 
-0.00191741 0.00431522 0.0273548 
-0.00180133 -0.000121008 0.0275563 

-0.0364309 0.0267213 0.0585167 
-0.0190051 0.00539852 -0.145877 
-0.0119961 -0.00405794 0.0672409 

-0.0377853 -0.00547585 -0.0935342 
0.0315171 0.00314011 0.0140866 
-0.00742051 0.0333129 -0.0483224 

-0.0242789 0.00163573 0.407393 
0.00553447 0.00184941 -0.553441 
-0.000645073 1.74537e-05 0.0430697 

-0.0377707 -0.0748174 0.369447 
0.0529051 0.104012 -0.0054119 
0.0118602 -0.00589481 0.461156 

-0.0861531 -0.0293986 0.246867 
0.0212247 0.0204583 0.325582 
0.00524432 -0.0032502 0.153395 

-0.0595811 0.0137914 1.48652 
-0.0585449 0.034063 -0.248257 
-0.000448585 -0.0022555 0.0666429 

-0.0219955 0.00421475 0.100529 
0.010993 0.0113438 -0.0820079 
-0.00124432 0.0177202 0.100654 

-0.0320121 -0.0256744 0.0500673 
-0.000330706 0.0281116 0.0101877 
-0.0158015 -0.0070464 -0.0548361 

-0.0411058 0.0136972 0.100625 
0.00683553 -0.0909372 0.624876 
0.000637117 0.0247207 -0.122162 

-0.0272598 -0.000113049 0.0104401 
-0.0144845 0.00218426 0.0443054 
-0.00160838 0.000231815 0.0403021 

-0.652071 0.0288045 -0.193555 
-0.302547 0.224634 -0.00201003 
-0.00524957 0.0654358 0.403859 

-0.0192846 0.00549533 -0.0242394 
-0.00996215 0.0118738 0.00782411 
-0.000111389 -0.00119895 0.0177702 

-0.0212244 0.0214882 0.0030279 
-0.00932318 0.00578121 0.0113678 
-0.00200862 -0.000268576 0.0349405 

-0.0252753 0.0148806 -0.0209379 
0.00278127 0.00924556 -0.0669574 
0.000715165 0.000473718 0.00967615 

-0.0380419 0.00429606 0.162608 
0.00859193 0.0230438 -0.20129 
0.00145675 0.000160033 0.0684997 

-0.0192617 -0.00930945 0.0157541 
0.00451347 0.00311651 0.0169758 
-0.00100318 -0.000186597 0.0197951 

-0.0229736 -0.0140743 -6.13182e-05 
0.0094917 0.00898674 -0.00334125 
-0.0246451 0.0241577 -0.0920629 

-0.0450386 0.00378623 0.0857552 
-0.0342802 0.0336665 0.188125 
0.000810037 0.000209885 0.0149787 

-0.020701 -0.0140492 -0.022837 
-0.00264524 -0.00171795 0.0507714 
0.000982338 -0.000342095 0.0362433 

-0.0010092 0.0478039 0.0627767 
-0.082133 -0.0223639 0.0444356 
-0.0158426 -0.0856162 0.328042 

-0.00492684 -0.00912509 -0.0059493 
-0.0018237 -0.00064192 0.0306268 
-0.00149699 1.44869e-05 0.0116128 

0.0494344 -0.320392 -0.15375 
0.33483 0.109821 -0.0699712 
-0.0272223 -0.103452 0.479841 

-0.0212259 -0.00938722 0.0183891 
-0.00732454 0.0119198 -0.0122831 
0.00202391 -0.00115771 0.0212568 

-0.050321 0.00011925 -0.278827 
-0.0137899 0.0324896 -0.0170891 
0.01734 0.00705165 0.107695 

-0.0179233 0.00225539 -0.0152428 
0.000641029 -0.00056941 0.00244337 
0.00171243 0.000791578 0.0220216 

-0.0211954 -0.0244237 0.143005 
0.00769263 0.0173214 0.0500048 
0.00610294 -0.00307885 0.0671497 

-0.0335271 0.0620292 0.133747 
-0.12706 0.0441256 -0.206582 
-0.0567052 -0.0463582 0.565336 

-0.00813883 -0.000519427 0.0123086 
0.00141666 0.00266819 -0.00234975 
-0.000101206 -0.000181343 0.00322838 

-0.0267984 -0.00301834 0.0904793 
0.00536798 0.00938171 0.14098 
0.000981652 0.00219012 0.092534 

-0.0427671 -0.0195523 -0.0154869 
0.0342518 0.0144923 -0.0291 
0.0591012 -0.0342163 0.253102 

-0.0310429 -0.015921 0.048601 
0.0123451 0.00589854 -0.0135753 
-0.00176126 0.00457601 0.0386441 

-0.0375696 0.0162058 0.123794 
-0.00680944 0.0186713 0.058575 
-0.0132303 -0.0327649 -0.0464955 

-0.134623 -0.0454319 -0.152182 
0.116761 0.0999197 0.143625 
0.00331087 -0.0155501 -0.0384666 

-0.056589 0.00754474 -0.162075 
-0.0364698 0.031783 -0.339838 
-0.00491506 0.00223258 -0.033255 

-0.102411 -0.164671 0.377668 
0.0647075 0.0183292 0.34807 
0.00265038 0.0207057 0.167837 

0.0315107 0.106763 -0.143618 
-0.0845402 -0.0138799 0.0321892 
-0.0282066 0.0219974 0.0355255 

-0.0379916 -0.0155273 0.0366626 
0.0475467 0.0120673 -0.0138868 
0.00313357 -0.0215005 0.133758 

-0.232738 -0.283235 -0.208236 
0.140064 0.161899 0.262592 
-0.00903616 -0.049471 0.0355135 

-0.0279653 -0.016045 -0.575401 
-0.03704 0.0687962 1.42774 
0.0293396 -0.00374445 0.156011 

-0.0839689 -0.056519 -0.384597 
-0.0179883 0.0100973 -0.149623 
0.0052095 0.00152868 0.263287 

-0.0229721 -0.0115577 0.195521 
0.0267857 0.00422999 -0.172091 
-0.0182982 -0.0445471 0.473818 

-0.0128425 0.00944196 0.0064939 
-0.0169177 -0.00226784 0.205011 
-0.00858829 0.010147 0.993807 

-0.00416205 0.0306892 0.0141311 
-0.0166577 0.0104949 -0.0429411 
-0.0046083 -0.0114024 -0.0100432 

-0.0212884 -0.00561821 -0.0335479 
-0.0104142 0.00712612 0.0323792 
0.00032246 0.000898136 0.0150401 

-0.0484805 0.0503736 0.084016 