# vtk DataFile Version 3.0
Output file generated by Yade's KinematicLocalisationAnalyser
ASCII
DATASET UNSTRUCTURED_GRID

POINTS 13483 float
601.859 29.8588 0.455604
722.61 73.8696 0.516869
119.356 6.23502 0.463033
756.237 4.15528 0.509312
498.034 7.88378 0.339199
313.449 35.5279 -0.480504
155.618 6.98699 0.443575
566.677 10.3253 0.179329
495.663 23.4933 0.179564
694.704 14.0408 0.659016
209.244 9.09863 -0.111911
255.608 6.32944 -0.253544
651.536 48.0918 -0.167697
625.948 15.4758 -0.138009
136.198 17.3949 0.353578
220.318 34.8713 0.36618
216.533 13.0086 -0.291044
287.544 9.8651 0.402514
339.5 32.73 -0.501744
522.847 8.56696 0.346404
410.117 37.0837 -0.0160525
586.54 49.252 0.265167
749.705 53.6314 -0.550281
677.667 52.5974 -0.435804
457.898 16.139 -0.368982
240.039 44.9201 -0.128865
490.736 28.1418 -0.503261
581.922 22.3679 0.242592
44.8537 16.042 0.38236
700.55 58.7876 0.342198
481.944 5.54773 0.326216
16.2653 24.2394 0.339255
737.307 76.6726 -0.279978
493.822 2.57544 0.46912
78.0137 45.2314 0.109015
519.579 31.371 0.330348
529.135 16.868 0.437736
342.244 22.4299 -0.211396
531.108 25.7722 -0.327731
348.867 33.5991 -0.422776
239.749 14.8619 -0.338166
433.739 36.2674 0.0767448
660.071 13.1974 -0.123247
191.601 6.27198 0.364604
54.854 7.17878 0.0729129
67.8457 9.00144 0.280919
667.096 8.8087 0.631268
23.3478 11.6067 0.288803
606.069 48.4195 -0.376193
661.791 33.5408 -0.376829
171.876 32.708 0.320612
725.852 60.0967 -0.125175
34.5006 28.5403 0.124351
533.203 3.0325 0.330745
141.33 7.476 -0.506737
589.559 37.5888 0.462749
505.133 28.6919 -0.124247
174.306 0.949167 -0.270797
32.7815 2.43623 0.292993
347.604 17.9136 0.264016
615.388 49.3226 -0.170716
461.561 35.0303 0.204527
398 1.02756 0.200467
677.807 9.80312 -0.455356
26.407 43.883 -0.235465
255.46 31.0166 -0.33002
694.634 8.18074 0.322396
665.871 70.8545 0.345809
416.427 8.72069 -0.483998
567.585 3.5348 -0.394094
712.979 39.3069 -0.510937
130.011 7.71485 -0.330786
498.672 27.111 0.136097
477.174 15.6075 -0.177531
293.645 16.9564 -0.346167
20.5162 13.5754 0.247944
746.357 69.459 -0.417137
332.304 39.4821 -0.281102
659.048 29.9261 0.486773
668.726 16.1775 -0.415265
745.88 21.8212 0.233968
464.914 35.5998 -0.183063
92.253 38.9506 -0.28612
667.148 44.4311 0.235282
644.072 54.1508 -0.0115251
755.595 60.0036 0.123806
744.62 0.728117 -0.726893
290.322 28.8965 0.482387
616.328 6.55533 0.0914827
24.3278 5.2696 0.557011
132.689 38.8774 -0.162952
512.61 14.6625 0.223553
738.879 49.6023 0.475773
195.397 29.054 0.236387
43.9657 34.7355 -0.320199
492.668 1.29854 0.129708
235.462 8.66343 -0.419915
709.635 50.1249 -0.264252
724.63 44.5657 0.220578
360.984 21.3676 -0.258054
163.596 27.1941 -0.467286
547.381 42.665 0.478816
379.568 15.9237 -0.457423
413.717 29.636 -0.0952483
377.609 4.62878 0.415843
547.53 11.8335 -0.200357
757.578 15.8068 -0.276415
80.1646 39.9748 0.402598
335.258 4.98033 -0.215339
560.483 9.23831 -0.495063
359.92 44.2105 0.457862
24.8262 24.5742 -0.511712
30.431 5.77304 0.325753
566.367 36.0604 -0.547103
505.328 23.8653 -0.162968
26.2366 37.7668 -0.431658
93.0348 31.3548 0.220295
325.182 16.047 -0.289086
598.612 19.7445 -0.140338
475.97 38.6012 0.305111
710.254 9.04005 -0.506562
703.435 7.4586 0.260228
387.892 37.7788 0.104815
631.748 32.5561 -0.111559
238.303 17.423 0.481775
330.674 3.87453 0.458912
103.499 31.6994 0.402701
116.222 23.9894 -0.308443
543.544 42.6649 -0.0888356
306.737 18.9007 0.506368
694.752 58.5069 0.139892
670.723 70.3191 -0.103242
482.885 21.1466 -0.449045
735.938 31.3992 0.300694
430.281 23.4242 -0.271657
277.845 24.3986 0.291692
664.118 51.7252 0.293021
279.934 29.1046 0.38485
576.69 13.722 -0.276688
333.375 36.1642 0.199548
506.916 11.131 0.496949
368.204 32.2144 0.0962955
432.291 16.8398 -0.102449
319.435 42.7003 -0.422113
191.635 30.2387 -0.125316
727.885 73.9647 0.104712
755.663 16.5505 -0.342546
6.08655 12.6801 0.469099
436.398 22.5624 -0.422781
38.1691 22.9194 0.0849223
378.2 31.916 -0.438109
396.901 25.0787 0.248601
74.9876 12.0993 -0.534946
51.8747 33.6532 -0.428996
227.154 13.4897 0.422856
617.828 42.1914 -0.396271
578.872 23.1919 -0.433821
75.0117 20.9008 -0.540546
678.387 56.4723 0.542995
735.29 2.4067 -0.552326
659.753 64.3471 -0.485835
673.652 2.1807 -0.622413
551.618 29.7741 0.39679
588.185 49.2744 -0.450175
515.82 18.5347 -0.449965
754.89 5.24747 -0.426427
225.192 24.5668 0.12046
128.224 35.9581 -0.212942
248.565 6.85299 0.399775
94.5402 4.47355 -0.282092
64.1373 10.2691 -0.254952
277.67 36.644 0.299989
16.8373 25.9029 -0.340244
559.026 20.1592 -0.521788
606.09 41.7333 0.231412
466.388 20.848 -0.419219
754.16 81.3348 -0.364147
409.507 8.69555 -0.109749
440.247 36.8508 -0.369176
541.57 3.50263 -0.194255
22.5462 23.7944 -0.449433
579.241 4.55404 0.460715
549.669 4.67163 0.304126
207.499 11.6067 0.49262
428.533 16.5117 -0.205943
313.649 6.32643 0.364998
391.019 19.3545 -0.314276
699.519 44.8424 0.148953
193.878 26.0428 0.430828
741.042 19.0079 0.337092
700.954 40.2392 -0.392358
386.162 10.4613 -0.153237
692.973 2.46113 0.47881
605.741 27.3494 -0.396675
716.704 18.1159 -0.401691
435.308 43.3113 0.335073
501.554 12.7336 0.363728
469.867 45.6556 -0.22529
449.802 8.66702 0.122062
663.509 64.9857 0.27395
662.811 60.4271 0.182965
193.903 39.5018 0.370941
744.481 25.2198 -0.0966495
590.337 49.2825 -0.264761
11.5776 17.2652 0.250318
410.981 25.6024 0.360914
188.925 23.3782 -0.419003
93.9134 39.7686 0.212728
736.317 47.2519 0.414279
655.046 67.3225 0.225031
321.687 25.8563 0.344368
538.321 10.3738 0.325824
83.1101 45.0884 0.175505
249.675 26.3577 -0.463886
559.763 26.2205 0.365628
492.021 19.3347 0.487891
265.005 0.887555 -0.347357
556.653 44.9004 -0.383819
536.541 43.1126 0.504782
487.321 33.4924 0.414162
504.765 1.66707 -0.665351
680.75 21.3735 -0.452777
181.133 12.3644 -0.180442
506.675 39.0209 -0.425799
567.071 44.1986 0.114271
73.3092 0.976366 -0.278255
253.855 4.73086 0.181801
753.952 22.2093 -0.169101
746.716 23.2934 -0.667325
758.571 21.2038 -0.581127
306.238 8.60834 -0.23048
719.572 23.8574 -0.480784
411.697 41.8479 -0.337815
454.011 0.798456 -0.421026
650.815 55.3714 0.494226
26.9 31.3588 -0.300346
334.373 41.6315 0.617726
254.72 2.87309 0.352375
740.626 73.7977 -0.235237
692.487 71.6463 0.144912
290.018 11.2953 0.253576
659.412 45.6479 -0.092403
562.367 2.50768 0.271681
547.494 7.78941 0.443008
97.2482 18.5358 0.49935
306.078 1.03825 -0.227916
346.527 2.23454 -0.376318
13.9295 7.54086 0.451751
4.42088 31.3947 -0.293552
163.231 19.2101 -0.407518
68.7215 42.5956 -0.210087
67.1917 29.6533 0.324137
428.209 14.637 -0.448814
371.14 35.7152 0.486262
722.463 60.7232 0.191087
19.6604 3.99992 -0.271924
71.0104 7.02523 -0.132232
626.781 44.4251 0.151878
297.372 0.935797 0.369497
368.859 16.406 -0.108708
237.823 4.60889 0.361583
643.98 33.6033 0.228856
457.222 8.31412 0.417419
722.816 22.8749 -0.574505
635.961 38.7847 -0.282349
658.518 28.1016 -0.198556
425.642 27.2994 0.517807
102.968 45.6914 0.303106
546.489 47.0177 0.0750235
714.75 12.5012 0.277867
240.127 31.1972 -0.260375
32.2363 17.4127 -0.193978
340.034 13.8121 0.514753
108.379 41.0032 0.156638
270.826 42.5604 -0.215101
430.498 1.64248 -0.331614
744.07 64.9066 0.390834
668.623 2.59171 0.658572
335.759 3.44126 0.573419
303.361 26.8272 0.150967
468.411 42.6513 0.230557
82.2017 8.21188 -0.471014
200.041 45.6361 0.377571
731.881 52.4813 0.402224
501.512 40.6476 -0.0804646
202.522 41.6065 -0.291184
162.49 42.8724 0.387365
757.277 55.3986 -0.379573
756.515 18.1541 -0.5426
608.422 3.36429 -0.640932
192.551 24.875 -0.107318
553.037 31.1441 0.133199
554.703 30.113 -0.30326
414.094 5.71939 -0.137368
487.627 0.978355 0.364254
720.809 60.267 -0.484803
85.6982 31.3677 -0.248388
648.312 31.0379 0.504135
277.267 15.5843 -0.375087
9.45498 2.3432 -0.347536
126.908 37.6059 0.215057
67.5795 23.1041 -0.53524
687.601 55.5223 0.248652
742.733 81.537 -0.160616
187.905 28.762 0.192504
752.148 19.9889 0.534855
45.4493 36.9199 0.265892
91.7356 29.8172 0.190349
633.41 15.2879 0.53776
418.607 18.4068 -0.475646
525.926 16.8644 0.128633
240.592 29.2514 0.189791
623.309 3.95937 -0.515108
760.062 16.7887 0.471247
29.8029 32.3357 0.288352
273.188 7.72977 0.198327
224.773 15.0866 0.28579
1.04723 35.9513 -0.158232
228.101 14.5272 -0.385559
214.153 11.0197 0.116616
217.066 26.6527 0.27374
134.403 28.2568 -0.125692
553.4 16.4966 -0.358305
168.961 14.2859 -0.365372
734.924 73.7602 -0.22771
176.301 3.85202 0.506781
47.6309 38.0019 0.445617
700.814 53.111 0.503129
284.94 32.3862 0.405011
667.643 30.9889 -0.52142
746.353 63.121 -0.509187
304.283 9.23212 -0.103481
703.719 32.762 -0.348146
332.709 2.50319 -0.432307
421.407 24.1025 0.369749
662.77 24.2083 -0.429258
106.572 12.4275 -0.429696
489.673 3.93057 -0.525177
726.662 22.7526 0.221711
89.0552 7.70778 0.231197
285.051 14.8624 0.210168
428.985 11.8444 -0.207756
753.765 5.41004 0.683637
402.967 1.99285 -0.532779
179.012 39.1324 0.304434
717.427 10.2188 -0.367267
129.986 37.0834 0.207609
266.247 31.7851 -0.388442
405.643 21.8304 0.229766
578.796 16.0083 0.414099
391.953 9.87817 -0.505064
462.745 28.9409 -0.417996
723.807 73.6477 -0.387182
48.165 11.7034 0.153036
302.973 38.7797 0.264107
384.853 27.8556 -0.357325
414.991 21.1394 0.238963
527.531 45.7543 0.356752
716.963 53.6379 -0.229839
666.97 59.5389 0.30135
228.534 35.051 -0.394408
14.0694 32.2026 0.151281
660.751 60.619 -0.119875
516.527 45.4331 -0.46978
232.468 40.0969 0.127415
672.758 39.04 0.108289
152.889 9.37334 0.230181
371.257 21.649 0.3373
470.268 43.5269 0.110138
419.537 19.8334 0.225639
718.552 73.1593 0.297092
431.95 3.88529 0.526973
50.2567 25.7869 -0.33557
476.282 32.0988 0.342662
441.511 42.1281 0.468552
740.15 67.3818 -0.267475
706.756 30.1319 0.299871
548.342 21.0087 -0.124793
732.328 67.6153 0.497273
296.926 2.24629 -0.45853
383.711 30.2354 0.460199
29.329 39.5354 -0.300731
706.548 34.0713 -0.141549
613.832 21.1025 -0.504863
470.383 0.771021 -0.474303
127.527 4.52842 0.273952
433.183 40.6648 0.100465
11.9044 0.901526 0.317364
752.618 7.89655 -0.106522
375.157 39.9328 -0.399675
[...]
POINT_DATA 13483
TENSORS Strain_matrix float
0.00104422 0.0114152 -1.18281 
0.0312083 -0.049355 0.199519 
5.68505e-05 -0.000405817 0.114967 

-0.415626 0.384886 6.43323 
-0.0857799 0.345237 4.41622 
-0.00690262 -0.00706144 0.0897713 

-0.0153102 0.00168201 0.0294303 
-0.00263471 0.00497728 0.0479563 
-0.00877245 -0.00491196 -0.0487618 

-0.315936 -0.172432 -0.778675 
-0.153304 0.143052 0.249417 
0.0106083 0.0129164 0.108325 

-0.0525373 -0.0374968 0.0112278 
0.00391462 0.0253501 0.111243 
-0.00662935 -0.0207342 0.00684628 

-0.0106979 0.00695694 -0.0254459 
-0.00525105 0.00384836 0.0881446 
0.000290409 0.0003508 0.0412332 

-0.0171257 -6.62321e-05 -0.0469688 
-0.00104702 0.00410046 0.0282277 
3.2336e-05 -0.000272034 0.0371079 

-0.0186064 -0.050397 -0.038213 
0.0074254 0.0027976 0.0334465 
0.00170921 -0.000115828 0.0457694 

-0.0432176 0.041225 -0.189256 
0.0184173 0.0321864 -0.0363849 
0.00168512 -0.00441518 0.0678344 

-0.0133307 0.0188277 0.387581 
0.000755514 -0.00130203 -1.27637 
-0.00137985 -0.00167229 0.290554 

-0.00805127 -0.00290257 -0.00206528 
0.00132174 0.00307757 -0.00463681 
-0.000634488 -0.000539569 0.0143213 

-0.00598218 -0.00915675 0.00636793 
0.00185581 0.00302201 6.00911e-05 
0.000296086 0.000401532 0.000611148 

-0.247041 0.683469 -0.0855937 
0.0272654 0.327222 0.239264 
0.00446787 0.0195137 0.0534141 

-0.2701 -0.250276 0.0367958 
0.148119 0.339334 0.0178049 
-0.0448476 -0.0145162 0.405345 

-0.0232284 -0.0274401 -0.0565197 
0.0107619 0.0204153 -0.183239 
-0.0240292 -0.0245951 0.12973 

-0.0339837 -0.0586991 0.183702 
0.149086 0.0367202 0.346955 
-0.000711012 0.00315013 0.0549687 

-0.00803433 0.0101157 0.00100492 
-0.00904443 0.00231833 0.00209186 
-0.000164345 3.26083e-05 0.00580076 

-0.0195251 -0.00989068 0.00974875 
0.0337756 0.000198834 -0.0297812 
0.00174092 0.000403662 0.0279445 

-0.0338419 0.0111414 1.12335 
-0.0228706 0.0339989 -2.53306 
0.00232556 0.00826449 -0.877201 

-0.00652368 0.00459989 -0.00578423 
3.7427e-05 -0.00695724 0.0279596 
-0.00128721 0.000333057 0.0125253 

-0.0826163 -0.00809948 -0.115385 
0.071964 0.0435678 0.0413472 
-0.00087973 0.0638492 0.246604 

-0.0645613 0.0493353 -0.195072 
-0.12883 0.00693826 0.0736172 
0.0177928 0.0159703 0.15059 

-0.0461302 -0.151937 -2.0635 
0.10395 0.0379812 -0.985053 
0.000574716 -0.00618795 0.133069 

0.0653413 -0.186322 0.326622 
0.125293 0.0320715 0.529094 
-0.0267591 -0.00442863 -0.488131 

-0.034287 0.00682799 -0.0695458 
-0.0438677 0.00821749 -0.240926 
-0.00298581 -0.00107029 0.0224047 

-0.0285642 0.0229238 -0.036562 
-0.0217965 0.0122722 0.0321596 
-0.000775237 -0.00043022 0.00981809 

0.00775871 0.0194506 1.18814 
0.00570815 0.00421508 -1.66774 
-0.000639614 0.000257501 0.261522 

-0.126008 -0.0622865 -0.146729 
0.306948 0.0751823 -0.171986 
0.0433806 0.0162332 0.0830825 

-0.00387768 0.000903583 -0.0478217 
0.0131599 -0.0123301 0.0647007 
0.00134907 -0.000667353 0.0269414 

-0.429134 0.947706 -3.89608 
-0.760317 0.737451 -4.10465 
0.0412349 0.0343583 0.215043 

-0.122701 -0.0354483 0.0257597 
-0.130287 0.107341 0.0161592 
-0.0161796 -0.060226 0.39346 

0.000319352 0.0309283 -0.0383951 
-0.0394169 0.0782888 -0.0852084 
0.0103854 0.0495364 0.0466463 

0.0120713 -0.035599 0.0131519 
0.0395904 0.0145329 0.00529382 
-0.00789829 0.00199463 -0.0642366 

-0.0107551 0.00311619 0.0130199 
0.00191008 0.0106053 -0.0451815 
0.000131859 0.00481791 0.00919253 

-0.0109878 0.00172023 -0.0130662 
-0.00387124 -0.000476101 -0.0102144 
0.000240414 -0.000364827 0.00960514 

-0.0586272 -0.090293 -0.138486 
-0.0135048 0.070955 -0.234727 
-0.0652323 0.0583563 0.32293 

-0.0679422 -0.0330926 -0.0458891 
0.0650221 0.0515789 0.134836 
0.00204063 0.00166003 0.192635 

-0.00374691 -0.0356152 -0.0240758 
0.0262993 -0.00132261 0.0103298 
0.00150135 -2.64061e-05 0.0222569 

-0.214519 0.0541887 0.496812 
0.0572099 0.0589282 0.15029 
0.000946839 -0.00243329 0.101248 

-0.0278503 -0.00484045 -0.213185 
0.0385553 -0.00849804 0.0874006 
0.00135415 -0.00303241 0.140774 

-0.00665347 -0.00367797 -0.110601 
0.00402194 0.0118821 0.0172812 
0.00393804 0.00343651 -0.0189664 

-0.00112082 -0.00727339 0.0120915 
-0.00801327 -0.00372424 0.0314091 
0.00127151 0.00450149 0.0440418 

-0.478663 0.0773482 -1.13606 
-0.104289 0.379867 0.843292 
-0.0185385 -0.0850229 0.617788 

-0.00987637 0.0139387 -0.0979724 
-0.00867193 0.00486148 0.0339386 
-0.000428181 0.000956724 -0.013935 

-0.000197371 0.014885 -0.021684 
-0.0247357 0.00814638 0.0207038 
-0.00162748 -0.0022035 -0.0123474 

-0.00255962 -0.0012155 0.0183429 
-0.0054085 0.00386636 -0.00237058 
-0.000478549 0.000336227 0.00158743 

-0.131302 0.204069 4.94054 
-0.414046 0.115475 4.2438 
0.0202551 0.0337398 0.207455 

-0.00384885 -0.0160252 0.000901689 
0.0201395 -0.00736492 0.00195911 
-0.000947391 0.0010264 0.0155525 

-0.136007 -0.240837 0.291138 
0.337127 0.179422 -0.00815815 
-0.0256903 -0.0015715 0.174953 

-0.146994 -0.00555249 1.41448 
-0.0593583 0.0492728 0.940214 
-0.000864204 0.0220383 0.140268 

-0.00924459 0.00266069 0.0327708 
0.00332996 0.00295524 -0.0143314 
0.00245248 0.00102106 0.0188561 

0.0092648 -0.424351 0.417392 
0.294956 0.102516 0.383226 
0.000572082 -0.087835 0.306697 

-0.00751817 0.0114291 0.0696504 
-0.0102035 0.0097206 0.0426225 
0.00614344 0.00904782 -0.00769825 

-0.0220103 0.00728805 -0.00279017 
0.0139055 0.00732891 -0.0445386 
-0.000234564 0.00141236 0.0348815 

-0.0147106 -0.00606856 -0.225967 
-0.00144612 0.00536477 0.301369 
-0.000216303 -0.000910767 -0.143898 

-0.0168155 0.0283582 0.238101 
-0.0527731 -0.00946814 -0.231134 
-0.000410871 0.00457159 0.0875864 

-0.218075 0.159972 0.513379 
-0.193832 0.190656 0.285771 
0.047556 0.0473308 0.284417 

-0.00919622 0.102271 0.293158 
0.00279419 -0.00156723 -0.0524263 
0.00373098 0.306122 0.903561 

-0.00383535 -0.00328612 -0.00210794 
0.00439099 0.00231088 0.00898888 
0.000580749 0.000799877 -0.00604211 

-0.00889343 -0.0128609 -0.00242719 
0.00607947 0.000504233 0.00149666 
-0.000251887 0.000432203 0.0164634 

-0.323151 -0.0890999 3.91691e-05 
0.323911 0.50105 0.187597 
-0.0392729 -0.0189978 0.0327314 

-0.0162568 -0.0288905 0.0206213 
-0.0176692 -0.0185107 0.0183948 
0.000416086 -0.00198608 0.0174134 

-0.00563506 0.0019185 0.00726786 
-0.00270615 -0.00318565 -0.00154274 
0.00033883 0.000119175 0.011548 

-0.0536682 0.027103 0.189508 
0.0394834 -0.0243985 -0.328766 
0.00347621 -0.0103981 0.125291 

0.00018307 0.0120118 0.0957796 
-0.0317277 -0.00697162 0.0273102 
-0.019152 0.0405994 0.145653 

-0.0123676 -0.00531221 -0.00879846 
0.0248241 0.0196573 0.0363803 
0.00321737 -0.00329271 0.0142567 

-0.00453937 0.0502796 0.0146867 
-0.0154125 0.00332193 -0.00767088 
0.00127959 0.00138912 0.0022833 

0.11717 0.0472706 -0.0011437 
0.0582789 -0.107819 -0.288624 
0.0470604 -0.0241459 0.242339 

-0.00771375 0.00190982 -0.0146331 
-0.00269065 0.00575643 0.00995855 
-4.16725e-05 0.000155533 0.00789478 

-0.104064 0.0606279 0.0625292 
-0.160857 -0.0285441 -0.426346 
0.0148909 0.0165493 0.153071 

0.0421572 0.185888 1.20038 
0.0407902 0.00764149 -1.30973 
-0.0112096 0.0162352 0.182777 

-0.0106188 0.000858563 0.0107481 
0.000232579 7.31432e-05 0.0054796 
-0.000814122 0.000153297 0.0193101 

-0.00255273 0.202923 -0.281739 
0.0590602 0.0204536 0.22903 
0.0355691 -0.0725144 0.363048 

-0.0146436 -0.0126872 -0.0198454 
0.0415979 -0.00152702 -0.00401007 
-0.0144028 0.0093164 0.142936 

-0.00642885 0.00986876 0.00952574 
-0.0106656 -0.000185384 0.0199612 
0.000215209 0.00041094 0.0310553 

-0.0128741 -0.0188773 0.000445696 
0.0111852 -0.00398849 0.00220172 
0.000716304 -0.00206974 0.0289879 

-0.0388607 0.0276465 -0.240612 
0.00421746 0.0135325 -0.121426 
0.00264109 -0.000497761 0.0344428 

0.004445 0.0146033 0.0350629 
0.000227356 0.00462193 -0.048899 
-0.00151144 -0.000664122 -0.0154574 

-0.0770518 -0.0460124 0.169348 
0.0198187 0.00692608 -0.124048 
0.0091679 0.0045988 0.0175023 

-1.04439 -0.0534891 1.39554 
-0.765589 0.39164 0.591683 
-0.101419 0.00730777 0.715284 

-0.285678 0.153205 0.503378 
-0.221834 0.328173 -0.136073 
-0.0171877 -0.021383 0.120014 

0.0118549 0.0138155 0.565338 
-0.0360418 -0.0039428 -0.561248 
-0.00297816 -0.000750589 0.0645014 

-0.00842143 0.000865506 0.00203053 
-0.0023037 -0.00195469 0.00907948 
-0.00121211 -0.000764301 0.0208194 

-0.264469 -0.00191394 -0.112608 
-0.518756 0.188999 0.354401 
-0.0367836 -0.00117762 -0.0611449 

0.0451535 -0.205364 0.0274325 
0.230672 0.0382156 0.0170654 
0.0031992 0.0024868 -0.0704857 

0.00867533 -0.0369327 0.0302853 
0.0805898 -0.00591263 -0.0175041 
0.000478389 0.00161393 -0.00972326 

-0.136313 4.24598 68.8937 
0.00211623 0.250343 0.23337 
-8.92206e-05 -0.0370423 -0.26742 

-0.000952486 0.0038979 -0.00199174 
0.000529657 -0.00388553 -0.0074269 
-0.000248171 0.000766797 0.00382322 

-0.023426 0.0072096 -0.00920808 
-0.0386855 -0.0230649 -0.032845 
0.00787973 0.000907964 0.0944658 

-0.0145319 -0.00955002 2.9832 
0.00638091 0.00983079 -2.6433 
8.19838e-05 0.00138288 -0.229492 

-0.0104384 0.0214873 0.0148746 
-0.0121288 -0.00107371 0.0109114 
-0.00473885 0.00377897 0.00543668 

-0.0194868 0.00600873 -0.00729595 
0.00118256 -0.00216321 0.0174118 
0.00118469 0.00119022 0.0302409 

-0.0724278 -0.116789 2.15952 
0.16244 0.100457 0.945803 
-0.000481289 0.00222338 0.182606 

-0.00621572 -0.0110822 0.0373486 
0.0129098 0.00237764 -0.0157554 
-0.000676423 0.000830927 0.00572577 

-0.0050768 0.0106735 -0.00942181 
-0.00493281 -0.000617802 -0.0414332 
-0.000368563 7.87497e-06 0.00897478 

-0.00685474 0.00788658 -0.00793789 
0.00110404 -0.00426915 0.00811459 
-0.00094834 0.000896754 0.00361425 

-0.029333 -0.0344104 0.233941 
0.0471012 0.000741718 -0.26862 
-0.000520583 -0.00124483 0.153424 

-0.00165025 -0.152232 0.097842 
0.202589 0.0163615 -0.0157948 
0.0259324 0.011854 0.065853 

-0.403295 0.491823 -0.756412 
-0.166964 0.429758 0.0576981 
0.00874015 0.0155209 0.213053 

-0.0115319 -0.00090421 0.00666235 
0.00739297 0.00579042 0.0800247 
0.00142079 -0.000693644 0.0131996 

-0.00364436 0.00295558 -0.0161179 
-0.00147553 0.00109294 -0.173648 
-0.000307657 7.06452e-05 0.0233666 

0.00792478 -0.0789551 -0.263459 
0.0962171 0.0168177 0.0434574 
-0.00161334 -0.0010917 -0.0276096 

-0.0259996 -0.0100863 0.00495904 
0.0175496 0.0114664 0.223274 
0.000423777 0.00123021 -0.00750437 

-0.0136392 0.000844665 0.0407244 
0.0313407 -0.0120143 -0.0486798 
-0.0101219 -0.0126739 0.063364 

-0.0376444 0.0271626 0.000360358 
-0.0265259 0.0323142 0.597284 
-0.0019828 -0.00410507 0.172121 

-0.0967046 0.0370095 0.0123313 
-0.0327695 -0.0571248 -0.217186 
-0.0112949 -0.0301533 0.340008 

-0.164829 -0.16581 -0.178481 
0.135533 0.202092 -0.107466 
-0.00551682 -0.0117545 -0.0178929 

-0.0142569 0.00735401 -0.016144 
-0.00830457 0.00644875 0.00312 
-0.000134063 0.000235875 0.0138324 

-0.00741449 0.00040906 -0.00175305 
0.00361262 -0.00378893 0.00250113 
0.000434664 0.000155692 0.0213506 

-0.0978919 0.0983319 -1.38618 
-0.092075 0.0406598 -2.5722 
0.00320508 -0.0169901 0.227731 

0.00683955 -0.0143563 2.35196 
0.00852363 -0.0136044 -0.186277 
3.00454e-05 0.000151891 0.0289534 

-0.0296678 -0.00614108 -1.09012 
0.027629 0.0272793 -0.481779 
0.00508962 -3.36379e-05 0.0242532 

-0.00881721 -0.00598209 -0.000478172 
-0.000657808 0.00519438 -0.000946392 
-0.000672597 -0.000157199 0.00390095 

-0.0976794 0.102115 -2.56666 
-0.0887845 0.0475304 1.9428 
0.0138356 0.0124755 0.548846 

0.0277712 0.0888971 0.132372 
-0.0606243 0.0465824 0.0663508 
0.00279608 0.00289284 -0.0181188 

-0.0120814 0.00667388 -0.159691 
-0.0303202 0.00949346 0.540249 
-0.00458107 0.0440292 0.990623 

-0.00516549 0.00303704 -0.0138254 
-0.00416581 -0.000784959 -0.000785221 
-0.000285565 5.76979e-05 0.00933485 

-0.0193711 0.0146709 -0.0122 
-0.0327742 0.00289112 -0.00709158 
-0.00466213 0.0014151 0.0333561 

-0.0378772 0.023616 0.0431414 
0.0924544 -0.00251421 0.0894207 
0.00280786 -0.00230238 0.0312875 

-0.00711506 0.0354847 0.136849 
-0.0333314 0.00834369 0.12767 
-0.0142496 -0.0219335 0.0346196 

-0.0398564 0.114752 0.0146717 
-0.103284 0.0302306 0.0265369 
-0.0371244 0.0099931 -0.0955231 

-5.14156e-05 0.0442102 -0.0225947 
0.0144047 0.00952698 0.0321434 
-0.00436923 0.00250312 0.0053524 

-0.00144721 -0.00287192 0.000476299 
0.000954878 0.000896487 -0.000475138 
0.000143931 -4.62519e-05 0.00282398 

-1.29042 1.16711 -1.45328 
0.0374968 0.517764 0.398038 
0.000837458 0.000214201 0.0159219 

-0.0286498 0.0183107 0.920065 
-0.0118938 0.0391819 -1.79921 
-0.0346546 0.00829409 -0.253934 

-0.00504308 0.00208309 -0.00483037 
-0.00468662 -0.00574381 0.021527 
1.15158e-05 0.00031461 0.0115509 

0.00163121 -0.000386657 -0.00699829 
0.000295866 -3.07316e-05 -0.00353464 
-0.00116925 0.000681016 -0.00195694 

-0.0587935 0.0048221 0.338791 
0.0549174 0.0340482 -0.154902 
0.00352297 0.00473583 0.0728443 

-0.00323927 -0.0965442 -0.0202624 
0.0845224 0.0013554 -0.00934097 
-0.0157141 0.0186836 0.081568 

-0.0150477 0.00516267 0.202761 
0.0148938 0.0043602 -0.312856 
-0.000222651 0.00132073 0.261011 

-0.00997044 0.0634484 0.0477587 
0.0921479 -0.0340258 0.0169784 
0.00234567 -0.00159187 0.0236191 

0.0745807 0.138259 0.112381 
-0.102566 -0.102007 0.0397595 
0.0154159 0.0532667 0.866238 

-0.0129593 0.00837831 0.449217 
-0.00460888 -0.00589215 0.248822 
0.00155148 0.0030436 0.187849 

0.0286257 -0.134123 -0.114002 
0.213822 0.037273 -0.0657956 
0.00732562 0.00109489 0.00416419 

-0.0141871 0.000260922 -0.147199 
-0.0289157 -0.00980258 -0.0215532 
-0.000398184 -0.000854281 0.0221337 

-0.0156611 -0.00105325 0.000193185 
0.00709711 0.0114568 0.015363 
-0.0100827 -0.0223022 -0.0496092 

-1.00855 1.32007 -0.601664 
-0.38799 1.15438 -2.08054 
0.0608147 0.0872188 0.430005 

-0.00241465 0.00458248 0.0101992 
-0.00071963 0.000393021 -0.0185831 
-0.000181896 0.000353735 0.0122632 

-0.116045 -0.0126864 0.00858729 
0.0353541 0.0385093 -0.0548651 
-0.049699 -0.00891982 0.0719457 

-0.012271 0.018835 0.00461126 
0.020318 -0.000491003 0.0263194 
0.0018236 -0.0016299 -0.00888499 

-0.0103876 0.00169703 -0.0198092 
-0.00231044 -0.00387324 0.00753511 
-0.000447781 -0.00175117 0.0285361 

-0.00517781 -0.00732961 -0.00133463 
-0.00528109 -0.00207146 0.00287198 
0.00072875 -0.00106997 0.0123459 

-0.0117025 -0.0135205 0.0038616 
0.0153798 0.00823841 -0.0133566 
0.000453815 0.000288395 -0.00687952 

-0.00547271 0.0018171 8.23283e-05 
-0.00481213 0.002423 0.0179563 
-0.000204846 -0.000266753 0.00491217 

-0.00610504 -0.00469719 0.0130107 
0.00424534 0.00137335 -0.00293055 
-0.000382118 0.000114483 0.0101384 

0.0137082 -0.0516768 0.0774775 
0.0976915 0.0038546 -0.0346702 
5.21708e-05 0.000732378 -0.0194758 

-0.338285 -0.021321 -0.0964036 
0.0393132 0.274893 -0.354714 
0.0795469 -0.0747327 -0.077857 

-0.0127893 0.0231228 -0.112734 
-0.033804 0.0109054 -0.127938 
0.00177267 -0.000656102 0.0903364 

0.000806182 0.00813588 -0.0393079 
0.00489615 -0.000105093 0.059026 
0.0068382 -0.00346415 -0.0216507 

-0.00581852 -0.00635486 0.0215681 
-0.00628938 0.000834991 -0.0162813 
0.000786131 -0.000718412 0.0182497 

-0.00570461 0.00641336 0.373965 
-0.0126017 0.00169762 0.150198 
0.000613457 -0.000550246 -0.0254449 

0.0125506 0.0982636 0.104432 
-0.0222094 0.0412344 -0.0146136 
-0.00189935 -0.0153097 0.024165 

-0.00590497 0.00645361 0.0807966 
-0.00236188 0.000727359 0.00661559 
0.000531538 -0.000231629 0.00926066 

-0.00667281 0.00188948 -0.100661 
-0.00531193 0.00151613 -0.0685549 
0.000217374 -0.000295487 0.0165955 

-0.00166576 -0.0208171 -0.0904183 
0.0144158 -0.0193819 -0.0501548 
0.00276767 0.000804602 0.0298148 

-0.027131 -0.278055 -0.143937 
0.395811 0.118672 0.216196 
0.0093233 -0.0177246 0.0249893 

-0.0639041 -0.0716348 -0.0498649 
-0.0079059 0.121313 -0.129662 
0.000270845 -0.0482333 0.186542 

-0.0106169 0.00381989 0.17446 
-0.000357387 0.0061884 -0.0730941 
0.000741596 -1.68968e-05 -0.00849713 

-0.0611346 0.573704 11.1639 
-0.0140773 0.288609 6.30325 
-0.0179248 -0.0029011 0.149101 

-0.190017 -0.0386859 -0.135502 
0.169517 0.254958 -0.180583 
0.0323458 -0.0578421 -0.0057828 

-0.002 -0.00376219 -14.0536 
0.206641 -0.126365 11.5924 
0.00140265 -0.0130954 1.43535 

0.0153676 -0.00342999 0.172544 
0.0301301 -0.00944538 -0.216934 
-0.00821058 0.010244 0.0880526 

-0.142706 -0.134629 2.26747 
-0.244433 0.186075 0.254277 
0.0492207 0.0118927 -0.4202 

-0.08265 -0.196416 1.93318 
-0.030061 0.57879 -3.15042 
0.000205456 -0.00521943 -0.38471 

-0.00638943 -0.0416568 0.0948301 
-0.00646822 -0.0278717 0.0286365 
-0.000994535 -0.0020619 0.0618735 

-0.32312 -0.155013 -0.394087 
-0.163141 0.171881 -0.171476 
0.011627 -0.011369 0.0967212 

-0.0663232 -0.0721687 0.337153 
0.038009 0.174932 -0.144892 
0.00618799 0.000335921 -0.0111699 

-0.0195206 0.0396364 -0.0110511 
-0.00937696 0.00795931 -0.0378854 
-0.0423777 -0.0217486 0.2463 

-0.0105848 -0.00123917 -0.0524708 
-0.000268039 0.0056706 -0.0033423 
0.00344524 -0.00334948 -0.0300757 

-0.00666102 -0.000878194 -0.00712756 
0.000768999 0.00214392 -0.0190552 
0.000193162 0.000153022 0.014655 

-0.00811128 -6.99986e-05 -0.050233 
-0.00515035 0.00743617 0.00580421 
0.0200897 -0.0278754 -0.0831977 

-0.00525825 0.00719781 -0.00286712 
-0.0016344 -0.000515951 0.00978371 
6.545e-05 -1.98026e-05 0.00791851 

-0.0521716 0.0615603 -0.0141825 
-0.0877347 0.0758499 0.370199 
0.00209619 -0.0225197 0.664009 

-0.0919767 -0.0381086 0.531954 
0.00383452 0.0356462 -0.163421 
0.00741421 0.00406536 0.0414716 

-0.11822 0.0170578 0.266392 
0.1199 0.0107426 0.172752 
-0.0448305 -0.0693524 0.447087 

-0.00725457 -0.0558901 -0.026723 
0.0175781 0.000108841 -0.366316 
9.125e-05 0.000994504 -0.00871366 

0.0110533 0.00443366 0.000436525 
0.000821141 -0.0125074 0.0205342 
0.00451196 -0.00371098 0.0223432 

-0.00211032 -0.0102808 -0.00293893 
0.00729784 0.00367627 0.00372578 
0.000450361 0.000413058 -0.00673943 

-0.0178443 -0.0193605 0.104333 
0.0338452 0.00796566 -0.145898 
0.0075485 -0.00128878 0.099243 

-0.053594 -0.112325 0.043013 
0.0919079 0.00867297 -0.176997 
0.00418296 -0.00350653 0.1304 

-0.0617032 0.020172 0.0722514 
0.0538233 0.0107806 -0.237148 
0.0208481 0.00407722 0.0130189 

-0.023278 -0.0072127 0.0202491 
-0.00896007 -0.0047462 0.151975 
-0.00127743 -0.00366208 0.00648813 

-0.310483 -0.227709 0.0679128 
0.0715565 0.237613 -0.0341889 
-0.011209 0.021466 0.282254 

-0.00962862 -0.00126502 0.821862 
-0.00642188 0.00286318 -0.143257 
-0.000310613 0.000276312 0.12241 

-0.0113556 -0.00656058 0.00637387 
0.0163338 -0.00476284 0.0196562 
0.000592408 0.00119196 0.0212071 

-0.0119005 0.00467299 -0.0525835 
0.0010032 0.00305358 0.0390006 
0.000162873 -0.000648104 0.017093 

-0.0234945 -6.94595e-05 0.05612 
-0.00696234 0.0195922 -0.0391864 
-0.000889134 4.78839e-05 0.0240901 

-0.0390781 -0.142388 0.119284 
0.0845997 -0.00661041 0.114647 
-0.0180468 0.065876 0.714756 

-0.0041517 -0.00633558 -0.266091 
0.00559492 0.00424001 0.245129 
0.00180133 -0.000647442 0.0507148 

-0.0380991 0.157912 0.148239 
-0.00972931 0.0625215 0.214811 
0.00668562 0.0387167 0.136038 

-0.0104453 -0.0848222 -0.00217311 
0.141909 -0.00520785 0.10888 
0.0193518 0.00535767 -0.0294221 

-0.0249513 0.0356153 0.0698041 
0.00489762 0.00506181 0.0331049 
-0.000346187 -0.00378293 0.0280332 

-0.0120542 -0.0519926 -0.003682 
-0.0186686 0.00464698 -0.146587 
0.00525387 -0.0108231 0.0303001 

-0.0211647 0.0542427 1.57789 
0.0174568 0.00692275 0.38835 
-0.00179917 0.000418445 0.0577161 

-0.130225 -0.0159817 0.404517 
-0.179519 0.180624 0.593924 
0.0029245 0.00477084 -0.00503949 

-0.0255485 -0.0126448 -0.161421 
-0.00928334 0.0284452 0.104316 
0.0054437 0.00667463 0.000738676 

-0.00302613 0.0254889 -0.00735609 
-0.0286657 -0.0157028 0.00543776 
0.00132875 0.00233295 0.0280657 

-0.0069871 0.00352627 0.0882088 
0.00304245 -0.0222708 0.0490767 
0.00113279 -0.00266401 -0.0206607 

-0.00872561 0.00582215 -0.0142097 
-0.00872018 0.00538001 -0.00155395 
0.00779234 0.0103578 -0.0373804 

0.0375473 -0.114954 0.344588 
0.137272 -0.0253335 -0.438054 
-0.000450401 0.00223421 -0.00490968 
