# vtk DataFile Version 3.0
Output file generated by Yade's KinematicLocalisationAnalyser
ASCII
DATASET UNSTRUCTURED_GRID

POINTS 13483 float
551.547 32.8267 0.538263
641.688 77.808 0.52942
115.592 6.08266 0.494836
676.609 4.13542 0.302232
476.003 7.88812 0.377862
303.073 36.5495 -0.479206
150.042 7.42223 0.461157
521.588 11.4856 0.148464
473.263 28.9736 0.146272
620.928 15.1322 0.721574
202.222 8.9934 -0.0976147
247.104 6.28737 -0.253293
585.903 69.9373 -0.16539
571.242 19.4672 0.0691709
131.761 18.5091 0.564056
211.661 36.7273 0.400449
209.315 13.1855 -0.294336
278.507 9.97708 0.41105
328.834 33.5309 -0.504806
494.106 13.2691 -0.446811
396.367 37.7002 0.0968905
540.018 54.3019 -0.272828
667.97 58.9957 -0.442144
602.355 68.3337 -0.471679
442.259 16.2154 -0.37786
231.84 45.753 -0.125671
472.386 33.8144 -0.140381
535.819 23.7464 0.353412
42.7936 16.2906 0.378699
627.614 70.6534 0.3558
462.034 5.80426 0.437112
15.7835 24.8966 0.36265
655.784 81.857 -0.265982
472.24 2.53773 0.47363
75.271 45.599 0.11288
500.721 49.5995 -0.320136
496.519 26.7042 0.506302
331.238 22.6881 -0.2011
502.603 45.2484 -0.322547
337.665 34.1668 -0.437198
231.583 15.0019 -0.365909
418.883 36.5079 0.111722
597.697 24.9614 -0.172345
184.805 6.21617 0.388732
52.5504 7.38262 0.0774651
65.3254 8.95246 0.295256
594.762 8.27828 0.678254
21.7284 11.9352 0.265289
546.785 53.3012 -0.461218
596.035 48.4716 -0.334355
166.414 33.0587 0.318276
645.13 64.4669 -0.133499
33.0429 29.2015 0.126257
500.686 2.63968 0.516764
136.758 7.71995 -0.507996
539.887 38.657 0.639966
487.071 38.2408 0.12804
167.84 0.945738 -0.278797
30.9662 2.45324 0.29033
336.563 18.0043 0.249395
552.271 58.081 -0.238383
443.82 38.0617 0.178425
384.832 1.02101 0.206711
605.529 9.62562 -0.625956
25.5301 44.8855 0.235786
246.626 31.185 -0.331593
620.998 8.75462 0.500008
601.133 91.6002 -0.343943
402.57 9.24807 -0.658103
523.38 4.50987 -0.509651
632.799 42.6206 -0.521676
126.08 7.75646 -0.334321
479.332 34.9522 -0.130391
458.686 17.9774 -0.144872
284.662 17.09 -0.337639
19.3408 14.1754 0.255721
665.359 75.6077 -0.426818
321.662 40.2369 -0.298515
592.94 45.2298 0.373276
599.587 24.059 -0.272198
664.65 26.5893 0.283277
447.155 38.867 -0.181012
89.2041 39.2617 -0.292062
591.39 60.7415 0.21994
577.854 76.9406 0.108056
673.551 66.3437 0.12964
667.36 0.704305 -0.702775
280.977 29.1092 0.442521
567.582 6.26493 -0.154772
22.9287 5.53216 0.631433
128.228 41.0097 -0.188942
486.504 19.9927 -0.195047
657.251 53.9101 0.523837
189.656 28.8306 0.250683
42.7468 35.2393 -0.305443
471.135 1.23024 0.141886
227.53 8.67249 -0.431354
628.808 54.0306 -0.265257
643.506 48.2419 0.242471
349.052 22.0999 -0.276683
158.099 27.7234 -0.470086
528.36 66.9016 -0.405835
367.358 16.6741 -0.51014
399.552 30.2577 0.118349
365.588 5.28973 0.420481
506.763 17.9656 0.139623
675.743 20.3718 -0.28245
77.1615 40.3489 0.392186
324.344 4.97368 -0.22309
516.848 10.121 -0.366861
348.265 45.5716 0.462963
24.1127 26.3591 -0.448495
28.7624 5.9174 0.292892
518.845 41.8085 0.424816
478.557 29.8734 0.138839
25.1922 38.9305 -0.429119
89.9932 31.6625 0.218648
315.052 16.6569 -0.279648
550.228 18.8283 -0.131855
457.683 42.8579 0.357863
635.775 9.09841 -0.513084
629.183 7.69664 0.26075
375.705 39.9047 0.146252
569.718 47.021 0.104584
230.278 17.8072 0.477786
319.82 3.93046 0.4569
100.402 32.0154 0.408167
112.483 23.9766 -0.395901
522.502 67.595 -0.0695926
296.946 18.6639 0.592488
622.25 70.3294 0.112331
606.49 90.4245 -0.0638489
462.615 25.6437 -0.439418
654.859 35.6489 0.331268
415.742 23.6906 -0.283132
268.51 24.7569 0.310704
588.231 68.2129 -0.292194
270.985 29.2719 0.421915
530.037 16.1221 -0.217912
322.684 36.8985 0.205114
482.491 14.2456 0.570448
356.357 32.9336 -0.126384
417.512 17.0274 0.133188
309.012 43.6783 -0.438333
185.91 30.1669 -0.140579
646.697 78.5077 0.140824
673.815 21.0538 -0.325781
5.97065 13.3094 0.441648
421.661 22.6754 -0.43831
36.5301 23.5094 0.0931612
366.481 32.7397 0.387804
382.855 25.0301 -0.271113
72.3406 12.104 -0.538457
50.1082 34.0582 -0.482559
219.467 13.8913 0.419123
558.013 54.535 -0.425724
533.178 25.1355 -0.483897
72.1194 21.1331 -0.510979
603.52 72.6336 0.422503
660.165 2.29834 -0.639624
594.239 85.4727 -0.493355
601.664 2.24823 -0.617635
509.513 38.5914 0.390993
541.413 53.2745 -0.459691
488.831 24.7123 -0.508139
676.39 7.38468 -0.317983
217.574 25.2199 0.120918
123.68 38.2017 -0.204883
240.106 6.80347 0.404211
91.5011 4.50422 -0.283687
61.6446 10.1616 -0.265943
268.486 37.0931 0.321974
16.581 26.4638 -0.335917
516.925 25.8298 -0.57089
550.527 46.4844 0.232507
447.948 23.7256 -0.372117
672.269 88.2872 -0.365992
395.905 8.82853 -0.11818
425.115 37.9388 -0.401371
507.92 4.71264 0.207884
21.9209 24.1651 -0.431335
532.697 5.64471 0.396675
510.751 11.0752 0.411038
200.601 11.4424 0.520715
413.921 16.7194 -0.221773
304.181 6.36296 0.377944
378.277 19.0752 -0.385094
620.352 47.5019 0.105091
187.845 25.9765 0.415475
660.616 23.1073 0.454548
622.018 42.4155 -0.476571
373.304 10.4907 0.19871
619.436 2.55211 0.481777
552.22 31.7424 -0.490195
642.099 17.8324 -0.405894
419.493 45.8003 0.267162
477.377 14.5495 0.461751
451.23 49.3881 0.236208
434.424 8.48211 0.152197
598.006 86.0072 0.269724
597.172 81.4133 0.154188
187.177 39.4737 0.4044
662.962 29.8858 0.145741
541.86 61.6574 -0.271996
11.287 18.068 0.265516
396.76 26.0302 0.363367
182.817 23.3168 -0.416649
90.8588 40.065 0.220962
654.867 51.4735 0.425473
589.735 88.6027 0.223336
311.524 26.7985 0.334007
503.033 19.0653 0.601405
80.2932 45.5191 0.179788
240.779 26.6778 -0.480332
520.5 31.3075 0.41988
471.293 23.7879 0.446887
256.48 0.881266 -0.345875
538.796 67.8033 -0.181243
514.128 68.9536 -0.434063
469.823 39.6906 0.396588
482.784 2.4558 -0.651971
608.418 22.5464 -0.489609
174.546 12.7051 -0.197134
486.106 49.5772 -0.461853
521.086 51.0118 -0.119909
70.6964 0.972307 -0.28152
245.395 4.71997 0.18708
672.078 26.1922 0.19533
665.183 28.1574 -0.663885
676.708 25.785 -0.590596
296.822 8.51061 -0.238182
640.727 28.2244 -0.453944
397.978 42.4428 -0.364048
438.722 0.779791 -0.465007
585.019 76.8181 0.402827
25.7098 32.4655 -0.303177
323.764 42.4159 0.660325
246.249 2.86151 0.3672
659.224 79.248 -0.227986
620.913 83.7004 0.224494
280.935 11.4185 0.26303
583.811 62.8261 0.0857996
519.257 2.49299 -0.321133
508.363 13.8779 0.416665
94.1157 18.7628 0.475218
296.657 1.03005 -0.228543
335.42 2.25279 -0.371452
13.2991 7.84791 0.572963
4.3387 32.3065 -0.313683
157.361 19.7376 -0.402172
66.2172 43.3087 -0.26296
64.6479 30.0801 0.337244
413.533 14.8516 -0.457595
359.196 36.5336 0.489296
641.643 64.8364 0.187822
18.516 3.94554 -0.290292
68.4226 6.99593 -0.139899
563.205 62.7236 0.134064
288.058 0.942546 0.385266
356.731 17.0484 -0.11061
229.758 4.64369 0.368274
576.44 45.2 -0.180816
441.655 8.37317 0.450108
644.332 25.3334 -0.429574
573.741 60.8428 -0.352085
592.441 43.3911 -0.221465
411.198 27.5079 0.544729
99.6264 46.15 -0.318235
527.17 70.7433 0.0558823
640.148 12.4942 0.28184
231.35 31.7652 -0.258921
30.749 17.8728 -0.202348
328.871 13.9072 0.50664
104.773 41.7362 0.511073
261.52 42.7563 -0.219545
416.24 2.21586 -0.238011
663.441 70.1798 0.425015
597.448 2.52435 0.620144
324.817 3.44195 0.583546
293.61 27.1947 0.164618
450.457 46.0499 0.209848
79.4235 8.29758 -0.486992
192.505 46.6621 0.395046
650.244 56.3827 0.395038
481.045 49.1702 -0.085998
195.057 42.6314 -0.300406
157.452 43.486 0.390438
675.151 61.6606 -0.376949
674.676 22.6615 -0.547941
559.793 3.13989 -0.650305
186.487 24.7798 -0.112585
506.013 42.7821 0.117261
508.563 40.8113 0.368784
400.488 5.96119 -0.13626
466.217 0.870206 0.346589
640.044 64.1093 -0.498166
82.6924 31.6783 -0.244543
581.673 44.3999 0.470799
268.43 15.7489 -0.388785
8.42279 2.63313 0.385238
122.663 39.9995 0.26043
64.5381 22.703 -0.574176
614.719 68.1943 0.327522
660.754 87.2813 -0.163968
182.155 28.6931 0.182856
670.528 24.868 0.492835
44.3131 37.3685 0.239972
88.6577 30.1433 0.190826
574.581 21.5816 0.569716
404.324 18.9594 -0.501801
493.404 26.0492 -0.11902
231.705 29.805 0.204653
574.766 4.17293 -0.500056
678.158 21.3879 0.484322
28.5781 33.3701 0.299675
264.376 7.83702 0.203527
217.163 15.484 0.308893
1.03858 36.8339 -0.162486
220.461 14.9592 -0.374162
206.995 11.156 0.113507
209.281 27.1203 -0.269341
129.213 29.6989 -0.122791
512.452 23.1945 -0.355753
162.933 14.6096 -0.366565
653.561 78.681 -0.239092
169.813 3.8312 0.515074
46.6008 38.9488 0.442983
619.823 57.8033 0.483035
275.445 33.1122 0.385149
602.164 44.751 -0.481893
664.442 67.5572 -0.495949
294.892 9.14815 -0.104041
626.05 35.4761 -0.402544
321.795 2.50636 -0.440078
407.051 24.612 0.373938
597.987 36.8213 -0.596835
103.405 12.6962 -0.400555
468.024 3.77667 -0.582051
647.932 24.4732 0.212746
86.1799 7.74872 0.28473
276.065 14.9927 0.214547
414.222 12.0407 -0.212032
675.084 7.15204 0.70598
389.703 2.00509 -0.542139
173.686 39.3333 0.314704
642.643 10.1117 -0.405054
125.567 39.2063 0.198106
257.318 31.8986 -0.392166
391.421 22.2632 0.217785
532.575 18.0188 0.455987
378.933 9.80528 -0.533503
445.714 32.0841 -0.421087
642.845 77.8136 -0.418656
45.9793 11.8804 0.172514
292.838 39.7283 0.275383
372.152 28.8765 -0.355628
400.696 21.5683 -0.260686
501.468 66.7635 -0.356671
636.464 56.9923 -0.212073
601.484 80.4218 -0.357803
220.057 36.0802 -0.394583
13.5344 32.7805 -0.192507
595.108 81.7054 0.120691
491.789 60.7638 -0.446472
224.21 40.9399 0.134191
597.389 55.0826 0.142121
147.523 9.85725 0.279651
359.248 22.3174 0.353748
452.123 47.3263 0.0985141
405.202 20.3618 0.243159
637.369 77.1508 0.296586
416.944 4.15615 0.614581
48.5033 25.9865 -0.333233
458.888 36.4427 0.336213
425.553 43.5205 0.51013
659.114 72.9555 -0.251309
628.603 31.2467 -0.262906
509.321 31.055 -0.186482
651.321 72.3238 0.474434
287.667 2.25694 -0.469019
371.067 31.3453 0.449734
28.3736 40.5507 -0.306849
628.715 36.3078 -0.164465
563.711 20.9864 -0.563101
451.704 0.858721 0.663498
123.43 4.59262 -0.349084
417.898 40.9654 0.15624
10.8419 0.944776 -0.38148
670.596 10.5891 0.0927157
362.958 40.7779 -0.447679
564.883 7.94133 -0.53195
[...]
POINT_DATA 13483
TENSORS Strain_matrix float
-0.292363 0.0837312 -3.80792 
0.180395 0.118128 -2.4453 
0.0102172 0.00196853 0.891237 

-0.098042 0.151332 -2.09211 
-0.114506 0.148506 -0.325339 
0.00809044 0.00425897 -0.477491 

-0.00260883 0.000762242 0.0203667 
0.000984769 -0.00190536 0.0158977 
-0.000341949 0.000321589 0.0110582 

-0.0514877 0.0775122 0.106089 
-0.138041 0.111722 0.099984 
0.0850837 0.0773515 0.289906 

-0.0162405 -0.217346 -0.477785 
0.138451 0.065444 0.277348 
-0.0221655 -0.00179882 0.180921 

-0.0057123 -0.0111264 0.141623 
-0.00701825 -0.00191064 0.0169062 
0.0003698 0.00271664 0.0218652 

-0.017265 0.000475766 -0.0418026 
-0.000426271 0.00461552 0.00165856 
-0.00316623 -0.00048689 0.0414832 

-0.0157407 0.0604895 -0.175782 
-0.0801687 0.004873 -0.00422797 
-0.00343894 0.0111408 -0.0791645 

0.030178 0.888673 -0.261874 
-0.198095 0.235642 -0.136991 
0.0361866 -0.0265461 0.17237 

-0.0640884 -0.0337576 -1.95105 
-0.041828 0.0417155 25.6689 
-0.00283822 0.00105903 0.790253 

-0.00437319 -0.0229946 -0.005129 
0.0219789 -0.00110089 -0.00689592 
0.000385139 0.0011445 0.0256213 

-0.00269635 -0.00482627 0.00540388 
-7.36327e-05 -0.00670443 -0.00747022 
0.000705436 0.000877239 0.0153184 

-0.121557 0.327766 0.935686 
-0.10785 0.122534 0.423088 
-0.024005 0.0325624 0.467358 

-0.528802 -0.842773 0.0814993 
0.0945592 0.477427 -0.127767 
-0.00647314 -0.0204793 0.00617856 

-0.0173527 -0.0201359 -0.552352 
0.0219708 0.0075465 0.532621 
-0.00176296 -0.00290622 -0.0625401 

-0.129846 -0.0998448 -0.844149 
0.00149067 0.099945 0.333416 
0.0061487 -0.0559747 -0.301303 

-0.0106048 -0.022874 0.04495 
0.00582643 0.0080355 -0.0137396 
0.000154374 -0.000319945 0.00487364 

-0.00624497 -0.000542838 0.00259727 
0.00434197 0.00684065 -0.00907868 
0.00036521 -0.000232187 0.00221144 

-0.0161509 -0.00396959 0.888687 
-0.0306174 0.00678864 1.41509 
-0.0221208 -0.00693044 -0.299391 

-0.55438 -0.092739 -0.558087 
0.0389044 0.493874 -0.467512 
-0.0512731 0.0292629 0.256995 

-0.00707705 0.0291307 0.00277698 
-0.011316 -0.00374404 -0.000732606 
-0.000183794 0.000775541 0.0198655 

-1.26899 -0.00593188 -15.2085 
0.31801 0.795744 -0.889001 
-0.0686161 0.116898 1.65073 

-0.0875122 0.0136138 -0.0582825 
0.205491 0.0569666 0.0146052 
0.00852818 -0.00565115 -0.0643753 

-0.00834904 0.152316 -0.91184 
-0.102785 0.0352576 -0.160618 
0.000139184 0.00070713 -0.0233497 

-0.0588106 -0.0154202 0.197831 
0.0560806 0.00952038 0.301064 
-0.0103246 -0.0161235 0.183024 

0.00100017 0.0222376 -0.000970869 
-0.0229584 -0.000375316 -0.00265513 
0.000214699 0.00034506 -0.00100541 

-0.0634158 0.613927 2.32636 
-0.0852196 0.180433 -1.07362 
-0.00443345 0.00189815 -0.0698301 

0.0259438 0.0522171 -0.161668 
-0.124507 -0.00322153 0.0176159 
-0.000825632 0.00278281 0.0226679 

-0.00335213 0.0208439 -0.0130552 
-0.0101437 -0.00225558 0.0341064 
-0.000120236 -0.000394068 0.00675933 

-0.221733 -0.0712699 0.122958 
-0.183434 0.165574 -0.387588 
0.0814288 -0.0685386 0.432723 

-0.160685 0.166086 0.124292 
0.0791903 0.0751662 0.621461 
-0.061616 0.022089 0.535014 

-0.025552 0.0222452 0.0724587 
-0.0248425 0.0169206 0.0481923 
-0.000404383 0.00103946 0.0260351 

0.00102837 -0.00940219 -0.0599454 
0.0919856 -0.00475918 -0.124594 
0.00857967 -0.00120531 0.0574719 

0.00484773 0.00262787 -0.366528 
-0.000256002 0.00701746 -0.202795 
0.000668116 0.00332785 0.00480025 

-0.00521087 0.0145553 -0.010575 
-0.0212429 0.00393036 0.014533 
-0.000136951 0.00011654 0.00682425 

-0.323629 0.408475 4.90998 
0.371717 0.215087 1.26309 
-0.0269827 0.00419311 0.295884 

-0.154546 -0.00372892 -0.869577 
-0.0655021 0.166187 1.83147 
-0.0217651 0.00487893 -0.0597704 

-0.0103464 0.0269076 -0.000478748 
0.00672413 0.0145776 0.0242535 
-0.000838739 0.00215342 0.00928823 

-0.112296 3.06233 -5.67803 
0.0988598 0.820297 0.226108 
0.00273487 -0.0348487 0.463828 

-0.00121769 -0.00857127 0.195348 
0.0207312 0.0113188 -0.0580093 
-0.000577101 0.00866759 0.021682 

-0.012405 0.036022 -0.187613 
-0.0530333 0.00775841 -0.0999179 
-0.00473481 0.000575267 0.0286357 

-0.0430727 -0.0414988 -0.0239657 
0.0530476 0.00130475 0.0787536 
-0.00182077 -0.00059642 -0.00295917 

-0.766148 0.0276104 0.290112 
-0.207933 0.309526 0.394561 
-0.00854544 0.024272 -0.195068 

-0.00372898 0.00276784 0.0376523 
-0.00631246 -0.00151911 0.040003 
0.000264933 0.000279356 0.00955713 

-0.00768669 0.00182803 -0.0100873 
0.00704443 0.00528851 0.0150439 
-0.000748481 -0.000322937 0.007125 

-0.00484037 0.00308259 -0.00673765 
0.0127741 -0.00717728 0.0759896 
-0.0013465 0.000983691 0.0233134 

-0.34491 0.253736 2.82873 
-0.316376 0.318965 4.00639 
0.00363428 -0.0144799 1.0114 

0.00874845 0.00337334 -0.0175891 
0.0215805 0.00676399 -0.00757471 
0.00618695 -0.00293905 -0.0328091 

-0.343857 -0.0233308 -3.17142 
-0.0561253 0.0198744 0.539499 
0.0323012 -0.0023989 -0.370749 

0.113954 -0.492418 1.13985 
0.0207039 -0.045728 0.604465 
-0.00807168 -0.00126307 -0.139376 

-0.0081322 0.0180873 0.0283845 
-0.0166464 0.00227799 0.00265019 
0.0068348 0.00246603 0.0115309 

0.00907344 0.0189974 0.035613 
0.0121707 -0.00788569 0.0406406 
6.33304e-05 0.00152951 -0.00818987 

-0.00187357 0.0229097 0.0173952 
-0.025778 -0.00353873 -0.00126138 
-0.000681684 0.000252596 0.013642 

0.0155971 -0.142561 0.0970728 
-0.0515852 -0.0944253 -0.110114 
0.000625835 0.0119255 0.132691 

-0.0169795 -0.00992778 0.206257 
0.0198627 0.00564977 -0.265024 
-0.000956477 0.0012819 0.0107085 

-0.0998932 -0.07161 -8.45552 
-0.0653683 0.0479704 2.42345 
0.000776177 0.00278802 0.280292 

-1.54851 1.08519 0.153366 
0.121945 0.689317 1.26989 
0.022072 -0.0642533 0.0572901 

-0.0107296 -0.415676 -0.213133 
0.00241964 0.0228459 -0.0644631 
0.000344875 -0.0132823 -0.0122836 

-0.00697493 0.0120522 0.0475951 
-0.0113215 0.0201845 0.0870115 
0.00133536 -0.000765822 -0.000712504 

-0.00462239 0.00344505 0.011176 
-0.00107502 0.00630976 0.00531291 
1.97233e-05 -0.000194009 -0.00263302 

-0.598767 -0.427636 -1.24473 
0.526092 0.153778 0.284301 
-0.0158988 0.0240687 0.24391 

0.0142194 -0.0781589 0.110634 
0.0723829 0.0148175 -0.032805 
0.0312996 -0.0247273 0.297301 

-0.00787719 0.00210513 -0.000502239 
0.00158371 -0.00811483 0.00947818 
-0.000380594 0.000300652 0.0172853 

-0.0598017 0.00413948 0.200702 
0.0356315 -0.00658803 -0.221825 
0.00626264 0.0144298 0.0975124 

-0.0230179 0.0166137 0.0202233 
-0.021277 0.0153979 0.018659 
-0.000695397 0.00374223 0.0145082 

0.00312509 0.0132639 0.00804658 
-0.0286542 -0.000520534 -0.00230329 
-0.000249012 -0.000173984 -0.00614052 

-0.0261288 -0.00711025 0.0789654 
0.00629788 0.021303 0.0606786 
-0.00254924 -0.00297923 0.0099103 

0.00168585 0.127996 -0.214491 
-0.102691 -0.0105269 0.395205 
-0.0309055 0.000800059 0.0147388 

-0.0326429 -0.0128805 3.70735 
-0.000306337 -0.00703958 5.34305 
0.00112935 -1.45995e-05 1.03007 

-0.165602 -0.00913005 0.050342 
-0.0639835 0.0896159 0.00662474 
0.0350431 0.191384 0.681032 

-0.00186073 -0.0166624 -0.839074 
-0.0496151 0.0200869 0.185762 
0.00940392 0.0327891 -0.00547859 

-0.00356239 -0.00438471 0.00407463 
0.00364139 -0.00184824 0.0004942 
-0.000579094 -0.000204233 0.00962746 

-0.57523 1.55875 2.63846 
0.17819 0.0789208 -0.60777 
-0.0126068 -0.0377902 0.291056 

-0.0808558 -0.0220175 -0.475605 
0.0343424 0.142387 -1.12581 
0.00412323 0.0130125 0.0844257 

-0.0011243 0.000537086 -0.0223699 
-0.00219983 0.00503804 0.0247172 
4.08302e-05 3.08997e-05 -0.00515977 

-0.0194242 -0.0094019 0.0576463 
0.00913951 0.022534 -0.0912306 
-0.00389716 0.00303388 -0.0161841 

0.0261871 0.0198106 0.246509 
0.0409978 -0.0160442 0.090507 
-0.000658476 0.00255664 -0.0528211 

-0.0119393 0.00138921 0.0246639 
-0.00057784 0.000858869 -0.0149627 
-0.000300197 0.000374024 0.0120887 

0.0349179 -0.073012 -0.0145222 
0.0775832 0.0169206 0.0581206 
0.000105239 0.0085167 -0.00420685 

-0.689907 0.0736459 0.481469 
-0.728964 0.593799 -0.257894 
0.0325349 -0.0191104 -0.0591029 

-0.0779092 -0.0182487 -0.0728902 
0.110159 -0.0112347 -0.101301 
0.000184078 0.00835336 0.113229 

0.00263723 -0.0715809 -0.0134792 
0.0645492 0.00155005 -0.0208978 
-0.00228357 -0.0122585 0.0874745 

-0.00221004 -0.00394747 -0.00670033 
0.00257143 -0.00493165 0.0125184 
-0.000185239 -0.000556849 0.0201444 

0.0385742 0.0988703 -0.0543057 
-0.156598 -0.0305862 -0.0173793 
-0.00124082 0.00303571 -0.0580429 

0.0035414 -0.00719275 0.0360688 
-0.00198224 0.0033336 0.0150732 
0.0122914 0.00333179 -0.00171579 

0.012998 0.0327414 -0.0075298 
-0.063069 0.00382833 0.000349777 
0.00018861 -0.000425604 -0.0262502 

-0.0430417 -1.04571 6.83832 
0.00843673 0.0468172 -7.00582 
-0.0025178 -0.0654979 0.175249 

-0.00388265 -0.0428636 -0.0153548 
0.0114197 0.0108663 0.0615822 
0.00343942 0.000122268 -0.0106642 

0.003985 -0.00422123 -0.00477658 
0.0310657 -0.00718777 -0.00541786 
-0.000129596 0.000490036 0.00692295 

-0.0133403 -0.0109066 0.0809136 
0.000916791 0.00887403 2.24387 
-0.000211568 0.0013987 0.261031 

-0.0121644 0.0202814 0.0238216 
-0.0273587 0.00173634 -0.001907 
-0.00274605 0.000870964 0.00859624 

-0.132962 -0.154661 -0.43025 
0.0553099 0.106867 0.0243917 
0.00364319 -0.0680532 0.448995 

-0.0164975 0.0201467 0.871986 
-0.00535737 0.0239092 1.07 
-0.00122782 0.00314592 0.187113 

0.00626234 0.037747 -0.0916425 
-0.00900489 0.00352974 -0.0438508 
0.00419273 -0.000168158 -0.00871602 

0.00171238 0.0425881 0.187361 
-0.00427302 0.0168818 -0.229674 
-0.00695628 0.0369711 0.36163 

0.00173759 -0.0770421 0.074789 
0.00572114 0.0139198 -0.0424381 
0.000610891 0.016615 -0.0189568 

-0.0189881 -0.0329708 0.350002 
-0.0292365 0.036307 -0.424093 
-0.00359046 0.00899242 0.389844 

-0.00260976 0.00566916 -0.140462 
-0.0871777 -0.0188691 -0.197295 
-0.0735008 -0.0185973 -0.0679697 

-0.00249134 0.0362449 0.0692012 
-0.0277209 0.00744678 -0.0324636 
0.0100931 0.00558901 0.0471788 

-0.00511793 -0.0168388 0.0213573 
0.0404732 -0.00230085 -0.0140264 
0.00143745 0.00101249 -0.000218701 

-0.00816085 0.00745325 0.108412 
-0.0142349 -0.00018717 -0.0161726 
0.000795242 0.00075334 0.00498838 

0.527509 0.308324 -0.0467652 
-0.327401 -0.497675 1.95982 
-0.0849021 0.0933237 -0.306351 

-0.0295526 0.019605 0.0492308 
-0.0192955 0.00905042 0.0270789 
-0.000160072 0.00261415 0.00239174 

-0.0372289 0.0423095 -0.0455946 
-0.00874853 0.0172169 0.0323686 
0.0482509 0.063127 0.294386 

-0.0612689 -0.0651044 -0.0671379 
-0.0311524 -0.0045086 -0.0419895 
-0.0313726 0.00783718 0.448533 

-0.0505005 -0.113581 -0.078199 
0.0677461 0.0517718 -0.14202 
-0.00651773 -0.054642 0.249908 

0.0161505 -0.0619821 -0.0309139 
0.0442485 -0.0589507 -0.00663625 
-0.00350383 -0.000124068 0.0580775 

-0.00592947 0.000960927 -0.0275386 
-0.0111945 0.00188469 0.0390264 
-0.000302998 -5.4559e-05 0.00775331 

-0.0116626 -0.00655063 0.00243628 
0.00785854 -0.00479166 0.00620318 
0.000688537 -0.000854973 0.0268588 

-0.472869 -0.1889 -0.758684 
0.117293 0.261311 -0.245073 
0.0448138 -0.0375624 -0.235914 

-0.0204564 0.00607842 0.0636344 
0.0206067 0.00403656 0.991002 
0.000294123 -0.00388888 0.0122968 

-0.0106617 0.0135928 0.0439646 
-0.0151469 0.0108687 0.0454496 
9.45814e-05 -0.000296682 -0.00488037 

-0.0186815 0.0302692 0.0578238 
-0.0442834 0.0244715 0.0789751 
-0.00628002 -0.00246329 -0.00483587 

0.0546793 0.109979 -0.214084 
-0.28077 0.0287934 0.0469463 
-0.00598636 -0.0109275 0.0847107 

-0.616602 0.18873 3.62597 
0.395628 0.403644 -1.41008 
-0.0516504 0.0281589 0.506949 

-0.00148222 0.0307171 -0.208223 
-0.0257614 -0.00197391 0.0455594 
-0.000604963 -0.00124249 0.0702028 

0.000122936 0.00730436 0.00879228 
0.00172287 -0.000562943 0.00145511 
-0.000330173 -9.24346e-05 0.00341443 

0.0237827 -0.000294763 0.0266106 
-0.0112733 0.00630948 -0.00224809 
-0.0016911 -0.0019846 -0.054671 

-0.0112453 -0.00701098 0.158124 
-0.0432956 -0.0300149 -0.148909 
-0.0037425 -0.00737174 0.115053 

-0.0337532 -0.102866 0.10017 
0.090271 0.0101217 0.000977983 
0.017084 0.0331624 0.126828 

-0.00855543 0.0140819 -0.00406533 
-0.00664263 -0.00385709 0.0237156 
0.000306395 -0.000153077 0.00132134 

-0.000679328 0.00291126 0.00465762 
-0.0203726 -0.00519436 0.00291161 
-0.00414156 0.00367841 0.0189586 

-0.0828629 0.0812522 -0.450242 
-0.0287313 0.0580164 0.0636901 
0.00584279 0.0131262 0.0778641 

-0.856578 0.876483 -3.54971 
-0.531353 0.835775 -0.991351 
0.00197856 0.00174662 -0.0628014 

-0.0288601 0.0547351 -0.336648 
-0.0790996 0.00841757 -0.50414 
0.0022539 0.000242505 0.0573689 

-0.0154847 0.000141935 0.0317183 
-0.0218945 0.000410765 0.0362047 
0.00130308 -0.000173913 0.0197512 

-0.0113682 0.018641 0.0185859 
-0.024983 0.0119322 -0.0132751 
0.000791566 -0.000630145 -0.0120538 

-0.0194187 -0.00427928 -0.168105 
-0.0126645 -0.0269956 -0.258273 
0.0094862 0.00734147 0.101872 

0.197726 0.409188 -0.644395 
-0.489761 -0.0509359 0.0667693 
-0.00182209 0.0781004 0.995082 

-0.0673934 0.00516282 -0.184752 
0.102177 0.0207868 0.211223 
-0.000687221 0.000325197 0.109852 

0.03002 0.0534541 -0.330515 
-0.141223 0.0154823 0.0565548 
0.0335085 -0.0512534 0.189361 

0.0248364 0.149366 -0.0681102 
-0.196183 -0.00561853 -0.117362 
-0.0895629 0.0393943 0.0625707 

-0.0389398 -0.166086 -0.258753 
0.197335 0.00848754 0.486583 
-0.0508996 -0.00343998 0.703602 

2.62126e-05 0.00850792 -0.00497455 
0.0116239 -0.000590454 0.00990569 
-0.00141453 -0.00228993 0.00112806 

-0.0109636 0.00524482 0.174485 
0.00460283 0.000915886 -0.020957 
-0.000498767 -0.00174425 0.0285622 

-0.0033425 -0.0196154 -0.00969168 
-0.0043001 0.000369939 0.0177075 
0.000666355 0.0012312 0.000113823 

-0.0944002 0.376064 -0.469065 
-0.0983165 0.127478 0.316062 
0.00222009 -0.00481056 -0.0196005 

-0.00657809 -0.0242056 -0.060252 
0.0014329 0.00557227 0.0191736 
0.0151916 -0.013874 0.0491504 

-0.0735531 0.0284829 -0.042349 
-0.00814403 0.0169459 -0.0156735 
-0.00339803 -0.00995587 0.107043 

-0.00520414 -0.00737475 0.00217419 
0.00375929 -0.00224101 -0.00282871 
-0.000811572 0.000662115 0.0138749 

-0.047061 -0.0266395 -2.69163 
0.21065 0.0210769 0.978399 
0.00835938 -0.0240532 1.55094 

-0.0257625 0.0173619 0.116198 
-0.035337 0.0657609 0.0496075 
-0.00949387 0.0578568 0.208343 

-0.0101493 0.0390722 -0.00332986 
-0.00907906 -0.0153543 0.00116965 
0.0160201 0.0493581 0.225375 

-0.00707754 0.00124995 0.0160317 
-0.0109373 0.00114177 0.0280208 
-0.000258333 4.526e-05 0.0105714 

0.00377979 0.0191815 -0.0472405 
0.00894909 -0.00671575 0.0290428 
-0.0343305 -0.0315152 0.213879 

-0.0271214 0.012353 0.0265314 
0.0243084 0.0430434 -0.0614432 
-0.0111364 -0.00808576 0.0861001 

0.0301645 -0.0539629 -0.0142863 
0.0591581 -0.0424178 0.00202614 
-0.0158957 0.00202043 0.00428264 

-0.00273496 -0.00438794 -0.627458 
0.030769 0.0364125 0.0632447 
0.00478237 -0.00409303 -0.00614776 

-0.0193105 -0.0108892 -0.0858027 
0.0243731 0.0262469 -0.102404 
-0.00126585 0.00187094 0.0513137 

-0.00831566 0.0259009 -0.00451469 
-0.0262012 0.00696262 0.0213868 
-0.000144043 -0.00101124 0.0101301 

-0.123211 -0.0231667 0.461369 
0.0755665 0.150686 1.62658 
-0.0345169 0.0535926 0.148521 

-0.144134 0.0492707 -0.842055 
0.090712 0.0895041 -0.415239 
0.0347742 -0.0414057 0.266734 

-0.0109057 -0.0112923 0.208548 
0.0159883 -0.00200017 -0.886966 
-0.000464723 -0.000742852 0.146165 

-0.0553728 0.000270105 -1.40977 
0.0915733 0.0145866 -0.0259281 
0.000225421 0.0105508 -1.19299 

-0.000433785 0.0105246 -0.00726731 
0.0168457 0.000318916 -0.0688005 
-0.00301997 -0.00326896 0.0282398 

-0.0691685 -0.467453 -0.419255 
0.414634 0.260402 0.444845 
0.0142167 0.0337671 0.0243426 

-0.101992 0.108457 0.131043 
-0.0482529 0.0200074 -0.676058 
0.00826256 0.0110892 0.0424756 

0.0110082 -0.0186782 -0.338978 
0.0296884 -0.00223707 -0.525468 
-0.00121633 0.00225132 0.204506 

-0.232306 0.253999 -0.763728 
-0.109076 0.0885239 0.287549 
0.000800331 -0.000700626 -0.0322976 

-0.030073 -0.00847021 -0.256615 
-0.000814873 -0.00419306 1.27873 
-0.00355086 -0.00721905 0.342616 

-0.067983 -0.766591 132.643 
0.040823 -0.702399 59.7181 
-0.000379843 0.0361153 -5.09497 

-0.0550865 -0.0466952 -0.115242 
-0.0226428 0.00143172 -0.0873613 
0.00587762 0.000419257 0.0625281 

-0.523943 -1.03968 -0.0991712 
-0.468749 -0.0179761 1.24751 
0.00388373 0.0453867 -0.0490764 

-1.09965 0.588866 0.135483 
-0.0420843 0.628267 1.48014 
0.0233063 0.00654313 0.10709 

-0.562088 -0.316273 1.52134 
0.200257 0.275973 -0.961397 
-0.055331 -0.0128504 1.42505 

-0.319966 -0.287287 -0.189211 
0.172892 0.227697 0.36576 
0.112519 -0.0919757 0.461031 

-0.0223065 -0.0566468 -0.0672337 
0.0297617 0.039128 0.043084 
0.0051648 0.00402946 -0.014854 

-0.101547 0.0570878 -0.139646 
0.0320721 0.104492 0.483308 
0.0425264 0.0510293 0.189482 

0.0031108 -0.005231 0.00759255 
0.00076931 -0.0115402 0.01448 
-0.0013988 0.000199116 0.0155729 

-0.00948631 -0.0265119 0.0351698 
0.0137472 0.00524981 -0.0103313 
0.00425089 0.00058601 0.0104063 

-0.00685392 0.00573606 0.00822633 
-0.0139662 -0.0142215 -0.00231672 
-0.000635851 -0.00102092 0.0377485 

-0.0076982 -0.0308115 0.0801443 
0.016601 -0.00111506 -0.029114 
0.00935216 -0.0326886 0.487078 

-0.0290113 0.0216988 0.0464286 
-0.00781998 0.0178992 0.110853 
-0.000283502 -0.000104682 0.0234967 

-0.00596605 0.0783083 -0.611124 
-0.256881 0.0664219 0.925106 
-0.00720142 -0.00483011 0.125863 

0.0350503 -0.525674 0.35141 
0.472679 0.170181 0.0200181 
-0.0879606 -0.0158364 0.117167 

-0.10832 -0.284349 -0.249948 
0.402925 0.198717 0.451806 
0.0540145 0.0277228 0.708745 

-0.0158748 -0.0350261 0.0747333 
0.0669495 0.0216149 -0.0121859 
-0.00687545 0.0109512 -0.0247454 

-0.0182888 -0.0302055 0.00515398 
0.013654 0.00372451 -0.0163101 
-0.000512866 0.00224136 0.0166651 

-0.0209393 -0.0475829 0.131164 
0.0817708 0.0146099 0.150115 
0.00374037 0.00233095 0.0716377 

-0.187219 -0.854636 -0.138413 
0.66131 0.569532 -1.13541 
-0.0225416 0.0459526 0.00396383 

-0.0182243 0.0136355 0.0211843 
-0.00439658 0.0128811 -0.0057824 
0.00162953 0.000236699 0.00841367 

-0.0173542 -0.0319304 -0.0535489 
-0.0349522 -0.00522844 0.39958 
0.00882765 -0.00240868 0.0105297 

-0.0168082 -0.12097 -1.27459 
-0.0764381 0.0454357 -0.654889 
0.0303233 -0.0184678 -0.0237093 

-0.00923256 -0.00594908 -0.197859 
0.0127017 -0.000621425 -0.0932007 
-0.00468014 -0.000148646 0.051327 

-0.00944735 0.0195994 -0.00227576 
-0.00554268 -0.00853278 0.00394647 
-0.0198142 0.0170375 0.05136 

-0.0107194 0.0200782 -0.232596 
0.0132629 -0.0200286 0.0265542 
0.000677412 0.000860458 0.0330027 

-0.0950247 -0.0789525 -0.49244 
0.0257001 -0.0483975 -0.796909 
0.0987648 -0.00156658 0.229068 

-0.156923 -0.0839635 -0.406557 
-0.0106514 0.127522 0.500441 
-0.0714911 0.0871368 0.800973 

-0.016433 0.0346282 -0.0173912 
-0.00633244 0.0045731 -0.0046822 
-0.00145507 -0.000710967 0.0295399 

-0.0514262 -0.0696801 0.238499 
-0.0208019 -0.0067642 -0.269315 
0.0208356 0.0211263 0.109621 

-0.101123 -0.110542 -0.261083 
0.0809038 0.0733723 -0.196163 
-0.028432 0.053576 0.116978 

-0.0197288 0.0230413 -0.0470081 
-0.0245326 0.00635339 0.010083 
-0.00675085 0.003763 0.0198588 

-0.0148962 -0.000945906 0.038178 
-0.0106245 0.0119803 -0.0343646 
0.00165541 0.000527138 0.00846299 

-0.605226 0.521695 -1.08631 
0.0592211 0.324034 0.526618 
0.0523777 0.000489332 0.466011 

0.0176755 0.00372625 -0.00623137 
-0.0170141 -0.00749485 -0.00666375 
-0.00492644 0.00496921 -0.00908682 

-0.152496 -0.150073 -0.384271 
0.0559274 0.14001 0.00129572 
-0.00172423 -0.00083645 0.243148 

-0.15007 -0.08497 0.61221 
0.20639 0.0866271 -0.31493 
-0.0160934 0.0136239 0.165653 

-0.114701 -0.23514 -0.298922 
0.105452 0.164186 -0.158098 
-0.03797 -0.12384 0.0475294 

-0.0152601 -0.0224696 -0.045907 
0.0135606 -0.0114315 0.0567164 
0.00175269 -0.00354375 0.0652831 

-0.00413259 0.0850663 -0.105116 
-0.0974717 0.0170527 0.0794851 
-0.000256455 -0.000637942 0.00237174 

0.00490847 0.0498418 0.0133644 
-0.112378 0.00870105 -0.0421501 
-0.0335904 0.0124353 -0.00263695 

-0.0659586 -0.093397 0.316812 
0.0667199 0.0149044 -0.238555 
0.0120562 0.000803011 0.0527125 
