# vtk DataFile Version 3.0
Output file generated by Yade's KinematicLocalisationAnalyser
ASCII
DATASET UNSTRUCTURED_GRID

POINTS 13483 float
657.642 27.3029 0.434272
864.476 44.1206 0.462066
128.689 6.14698 0.450967
914.531 4.31242 0.329718
535.584 7.58113 -0.3023
336.736 34.492 0.396718
167.667 6.77368 0.409904
614.035 9.99393 0.143873
532.425 22.4617 0.151448
798.995 11.8623 0.378148
225.43 8.83528 -0.110745
274.996 6.28338 -0.267437
712.291 28.1171 -0.177026
688.204 13.7975 0.073055
146.724 16.853 0.379009
237.227 33.9922 0.399287
233.041 12.8017 -0.27226
308.923 9.45765 0.38848
364.425 32.081 -0.0719792
563.546 8.53385 0.346471
439.864 36.1123 0.104893
639.503 43.4271 0.251686
909.777 29.8816 -0.476485
769.189 40.4885 -0.449542
491.889 15.9454 0.286711
257.773 43.6384 0.122197
527.284 26.88 -0.506983
633.189 18.8937 0.237364
48.2932 15.4264 0.457375
793.596 30.3506 0.325317
517.25 4.89919 0.314463
17.7961 22.7037 0.281557
879.805 40.5688 -0.262567
531.164 2.46387 0.487924
83.7668 43.552 -0.100316
560.158 29.7272 0.322883
570.355 16.4774 -0.408626
368.079 22.1773 -0.180796
573.699 25.056 -0.322328
375.271 32.5704 -0.412714
258.217 14.5315 -0.328787
465.245 34.9229 0.0759538
742.989 6.81752 -0.0928496
206.662 6.15966 0.375715
59.3632 6.94094 0.0958187
73.2456 8.84175 0.287455
761.914 8.5535 0.489644
25.3495 11.4565 0.294597
662.018 43.1535 -0.358175
744.66 22.2663 -0.3588
185.192 31.8782 0.29086
858.921 32.2849 -0.146873
37.5442 27.7657 0.123216
574.42 2.94257 0.324451
152.402 7.47027 -0.461594
642.126 32.9619 0.396351
541.714 25.9418 -0.138752
187.34 0.927277 -0.258521
35.1891 2.4394 0.279906
373.333 17.4905 0.267607
674.581 43.8205 -0.132692
495.859 32.8585 -0.174087
427.78 1.02943 0.187957
774.648 7.58179 -0.347388
28.3541 42.321 -0.234885
274.598 30.0521 -0.308492
799.123 7.28336 0.191836
736.062 42.7859 0.359749
447.551 8.55257 -0.473263
614.858 3.48463 -0.345417
833.914 28.4592 -0.384751
140.203 7.53051 -0.293488
535.359 24.9044 -0.125683
512.701 14.7686 -0.131831
315.585 16.5065 -0.30335
22.3216 13.3848 0.230514
886.705 31.1613 -0.313902
356.319 38.3014 -0.278451
741.79 19.4014 0.33764
761.602 12.3297 0.23676
897.576 10.9006 -0.188536
499.512 33.8981 -0.167806
99.0816 37.6157 -0.272844
755.335 32.5613 -0.208445
708.703 36.6331 0.0992735
918.584 35.0655 0.128405
889.926 0.829123 -0.459581
312.091 28.3976 0.437711
676.351 6.21065 0.0768074
26.1585 5.14604 0.459017
142.548 37.4882 -0.142158
551.97 14.1925 0.201014
877.222 23.2492 0.52115
210.095 28.2007 0.223809
47.585 33.8767 -0.277632
530.018 1.15957 0.115514
253.278 8.81147 -0.347119
837.536 37.1172 0.29932
863.393 24.6869 0.262284
387.942 20.5009 -0.254047
176.415 26.5442 -0.46429
593.845 37.5283 0.411423
408.169 15.1605 -0.439362
444.526 29.2494 -0.0978985
406.338 4.45393 0.407238
591.612 10.8137 -0.0913318
919.539 11.1146 -0.165441
86.214 38.4946 0.392595
360.265 4.77757 -0.172673
607.09 9.32853 -0.333562
386.703 43.164 0.446282
27.7395 24.0516 -0.462931
32.8335 5.68834 0.328009
615.833 31.4896 -0.414935
544.648 23.3657 0.146159
28.4313 36.3763 -0.418253
100.001 30.2071 0.214984
349.492 15.7215 -0.297331
652.757 18.4991 -0.13935
512.447 37.1283 0.307079
819.058 7.65267 -0.340933
809.771 6.05267 0.204278
416.261 36.449 0.100796
695.232 24.3252 0.111563
256.687 16.9664 0.49672
355.214 3.69171 0.459879
111.304 30.9434 0.334566
125.174 23.4508 -0.254008
588.914 37.8147 0.0694235
329.428 18.5748 0.445609
788.177 33.3407 0.107858
740.533 42.1422 0.123691
519.008 20.1258 -0.402528
867.995 8.64349 0.299162
462.592 22.796 -0.225584
298.327 23.8819 0.296306
743.182 29.5053 0.24174
300.528 27.9479 0.37253
626.35 11.5043 -0.190747
357.659 35.0748 0.197409
545.897 11.3261 0.446436
395.43 31.1547 0.095233
464.963 16.3173 -0.106634
342.998 41.2853 0.289744
206.038 29.2684 -0.120382
870.142 41.931 -0.210196
914.749 11.7129 -0.334357
6.43179 11.947 0.474447
469.187 21.9861 -0.401272
41.3212 22.2107 -0.0767096
405.898 30.6704 -0.455471
426.48 24.3536 0.287472
80.6611 11.9475 -0.480492
55.9708 32.6513 -0.424236
244.296 13.3081 0.367565
676.155 37.4147 -0.399612
629.229 19.9024 -0.425631
80.8929 20.7578 -0.461145
772.369 44.0766 0.420142
853.052 2.4234 -0.415433
728.084 39.0453 -0.482916
769.599 2.30307 -0.394982
598.309 26.0955 0.392161
641.127 43.71 -0.450476
556.022 17.6889 -0.396832
911.586 3.08941 0.303035
241.891 24.2488 0.115946
137.969 34.5289 -0.191137
267.506 6.55435 0.366381
102.052 4.09549 -0.250824
69.3799 9.96452 -0.187466
298.316 35.3779 0.287422
18.0816 24.4521 -0.358048
604.568 18.9011 -0.385158
662.011 38.081 0.218648
501.571 20.7186 -0.359236
899.927 36.9466 -0.402784
440.336 8.4596 0.0841548
472.304 35.2544 -0.36729
583.379 3.425 -0.184264
24.8385 23.5366 -0.381618
629.234 4.32691 -0.357175
593.836 4.33361 -0.285498
223.532 11.3227 0.472203
460.786 16.1776 -0.190962
337.054 6.28965 0.321314
420.133 18.8546 -0.324266
823.509 40.1626 0.140142
208.329 25.3123 0.415171
881.314 6.8978 -0.300972
822.606 36.3302 -0.339702
415.272 10.041 -0.186111
795.905 2.38247 0.383507
662.289 24.4314 -0.395189
827.851 17.6 -0.386233
467.142 41.7347 0.271774
539.7 12.3016 0.336777
505.158 43.3105 -0.218536
483.472 8.56001 0.132774
731.629 38.1459 0.286353
729.174 34.419 0.331678
208.37 38.3255 0.352666
895.369 10.7958 -0.131662
643.545 44.1326 0.242042
12.1431 16.6927 -0.180222
441.754 24.9934 0.34067
203.186 22.6984 -0.389052
100.74 38.5201 0.198157
874.817 20.782 0.436853
724.459 42.8437 0.223594
345.837 25.0995 0.357315
580.03 10.0734 0.323166
89.088 43.4904 0.163337
268.545 25.6115 -0.472212
607.651 22.6926 0.38297
528.95 18.1724 0.412104
284.997 0.89003 -0.342773
603.653 39.1518 -0.353608
581.904 40.1057 0.453787
524.086 32.3897 0.382871
542.926 0.774899 -0.488051
781.287 17.8856 -0.328633
194.98 11.7704 -0.163836
544.606 35.3515 -0.435254
616.933 38.49 0.119526
78.8692 0.947952 -0.273234
273.124 4.69697 0.168669
913.905 13.5744 0.219263
897.965 12.8559 -0.386823
921.782 15.3874 -0.520945
329.133 8.45433 -0.227453
835.304 21.5441 0.419769
442.149 40.4825 -0.316759
487.823 0.814376 -0.397822
715.764 33.9379 0.495549
29.5078 30.0463 0.0515701
358.559 40.3821 0.468542
274.022 2.83775 0.311052
883.088 37.8249 -0.237912
792.738 45.4357 -0.224379
311.773 10.803 0.196059
736.07 28.0044 -0.0951849
608.766 2.65028 0.264701
591.518 6.39459 0.414104
104.943 17.8452 0.463072
328.982 1.03488 -0.222032
372.746 2.2566 -0.367118
15.2004 7.58586 0.322518
4.7249 30.2414 -0.241557
176.018 18.8634 -0.350942
73.9661 41.0295 0.210065
72.3912 28.2671 0.31719
460.307 14.3754 -0.39208
398.639 34.581 0.471037
856.705 34.4261 0.138958
21.2727 3.95279 -0.283814
76.5031 6.84818 -0.128
687.235 36.5623 0.140718
320.043 0.932299 0.318421
396.338 15.8541 -0.0911161
256.028 4.52224 0.381304
720.446 20.767 0.189542
491.184 8.30122 0.398216
838.348 19.4304 -0.380776
694.349 27.9692 -0.328258
740.882 17.5194 -0.0824334
456.791 26.0666 0.485436
110.665 44.0136 0.313035
592.709 41.3356 0.0738569
824.977 13.2123 0.17584
258.523 29.7925 -0.23002
35.0568 16.8242 -0.169463
365.383 13.599 0.483367
116.975 39.6192 -0.467014
290.983 41.6068 -0.193113
462.543 1.07606 0.166208
883.763 28.0138 0.40243
761.628 0.803291 0.459695
360.889 3.09681 0.476409
325.894 25.9991 0.140862
504.016 40.1347 0.208985
88.4471 7.9607 -0.38448
215.321 44.1275 0.377795
866.265 27.092 0.352867
539.408 38.0976 -0.0869298
217.632 40.7544 -0.249545
174.886 41.4547 -0.191009
921.496 31.2801 -0.512546
917.7 11.2442 -0.428102
665.263 3.62684 -0.514275
206.977 24.1135 -0.0980356
600.402 27.0733 0.107583
602.448 26.7682 -0.259379
445.115 5.57131 -0.134673
524.74 0.93339 -0.277199
854.569 36.2973 -0.494017
92.3892 30.2737 -0.229709
726.381 17.7231 0.451399
298.38 15.3361 -0.33423
10.7728 2.31342 -0.337934
136.446 36.0553 0.190639
72.768 22.568 -0.447903
780.628 35.2456 -0.30774
889.301 42.8483 0.166447
202.213 27.7687 0.172579
909.342 11.488 -0.297792
48.9235 35.9127 0.254597
98.785 28.5998 0.152512
698.769 12.7245 0.355287
449.874 18.0112 -0.4676
566.963 16.449 0.117106
259.152 27.8698 0.177354
683.957 4.47222 -0.417708
922.519 10.5812 0.355685
32.5689 31.101 0.263301
293.788 7.66522 0.185132
241.91 14.9341 0.260244
1.10582 34.782 -0.145829
245.306 14.385 -0.363409
230.459 10.8837 0.124409
233.478 25.8113 -0.27413
144.669 27.2643 0.116435
598.59 14.7755 -0.333376
182.093 13.9639 -0.333318
877.239 39.17 0.215342
189.564 3.77101 0.48046
51.4735 36.933 0.366035
830.636 46.1269 -0.426527
305.756 31.04 0.382107
751.296 22.1158 -0.431854
894.895 27.5584 -0.467364
327.132 9.07509 -0.112463
820.652 28.3624 -0.347329
357.609 2.62597 -0.359016
452.854 23.4979 0.368799
747.668 15.6314 0.418845
114.985 11.8263 -0.394512
526.479 3.9639 -0.458871
842.239 17.1296 -0.221892
95.9593 7.64578 0.188992
306.437 14.5232 0.199516
461.117 11.5491 -0.189871
909.851 2.65654 0.380648
433.061 1.86718 -0.475331
192.873 38.0926 0.275616
827.827 10.2216 -0.329533
139.757 35.6786 0.180194
286.241 31.0698 -0.394956
435.994 21.3705 0.216188
628.934 13.2639 -0.318178
421.511 9.71597 -0.436623
497.609 27.1733 -0.403133
865.75 43.7756 -0.330598
51.8283 10.7915 0.104349
325.717 37.8128 0.252015
413.182 26.4586 -0.344349
445.845 20.7526 0.249763
569.774 43.4603 0.356997
847.087 34.2947 0.235016
735.064 33.6619 0.35819
245.976 33.5948 -0.394173
15.3092 30.6422 0.150819
727.47 35.4302 -0.127462
555.877 40.3454 0.0842976
249.942 38.6419 0.0999223
759.302 29.6878 0.133786
164.821 9.06644 0.197107
399.203 20.9937 0.281822
505.799 41.2443 0.100224
451.048 19.3396 0.189357
861.142 46.0149 -0.29091
464.016 3.3493 0.413786
54.2092 24.8378 -0.291464
512.786 30.8823 0.348133
473.651 40.5889 0.40538
880.562 33.4408 -0.227731
817.731 27.3886 0.281845
591.935 18.2222 -0.195913
870.682 35.0289 0.340166
319.115 2.04636 -0.427525
411.939 28.8409 0.444488
31.6582 38.1872 -0.291661
823.815 28.9218 0.130028
670.984 19.2987 -0.504746
505.053 0.778224 -0.482436
137.615 4.42802 0.284508
465.062 39.2954 0.0957795
13.3171 0.907061 0.315956
908.67 5.38803 0.191679
403.101 38.5997 -0.36585
[...]
POINT_DATA 13483
TENSORS Strain_matrix float
-0.0323478 -0.0380402 0.0801538 
-0.00970098 0.033931 -0.197183 
0.00166941 0.000753752 0.0699242 

-0.059343 -0.0213915 0.0955664 
0.0367826 0.0374622 -0.135232 
0.00206777 -1.35844e-05 0.169106 

-0.0423221 0.00209372 -0.0555987 
-0.0125522 0.0179957 0.020676 
-7.66685e-05 -0.00119439 0.0564093 

-0.114767 0.0244816 -0.137093 
-0.0351986 0.0427933 -0.0394897 
0.00580651 0.00176304 0.0983129 

-0.0692605 -0.0206701 0.0729357 
-0.0401482 0.0271012 0.0178204 
0.0479854 -0.0396242 0.249766 

-0.0238946 0.00164506 0.0158669 
-0.0153776 0.0161425 -0.0444436 
-0.038795 0.000588813 -0.107389 

-0.0342814 -0.00185607 -0.01433 
-0.00363583 0.00982376 0.00217696 
0.000421376 -0.000132763 0.0263138 

-0.025192 0.00620398 -0.0203756 
0.0154436 0.00585555 0.0248134 
-0.000152044 -0.00136764 0.034018 

-0.0363019 -0.0167762 0.140787 
0.00686138 0.0231513 0.079164 
-0.000599603 0.0005861 7.92885e-05 

-0.048859 0.00386927 0.141775 
0.0169575 -0.00414974 0.0939889 
-0.0195484 0.00947246 -0.0107375 

-0.0243415 0.00188097 -0.0571691 
0.00563355 0.00590384 0.0445902 
-0.000521721 0.00213874 0.0387354 

-0.0254648 -0.00663656 0.0428134 
0.00175326 0.00429551 0.0242525 
0.000117636 -2.16086e-06 0.00377749 

-0.031097 0.0362063 0.0608971 
-0.00696625 -0.00271227 0.0189727 
0.025912 -0.0352603 0.15076 

-0.0248015 -0.0127469 -0.00123396 
0.0039819 0.00618415 0.0082386 
-0.000459584 0.00145444 0.0238858 

-0.028528 0.0114762 -0.0184192 
-0.00631497 0.0055786 -0.0186607 
-0.00122944 -0.0148418 0.0765007 

-0.0354507 0.00441643 0.145814 
-0.0173169 0.0207895 0.156782 
-0.0124734 -0.00445871 0.0207984 

-0.0307454 -0.0045674 0.0170186 
-0.000693487 0.00967411 0.0205689 
0.000184017 0.000542784 0.0180855 

-0.0456031 -0.0165191 -0.00491842 
0.00225938 0.0175959 -0.0478758 
0.041886 0.00383293 0.0280885 

-0.06304 -0.0109203 -0.151608 
0.000900431 0.0383949 0.0952154 
0.104869 0.0377248 0.28409 

-0.0431147 0.0168079 0.0648042 
-0.000984163 0.000277236 0.0993418 
-0.00508211 -0.00701803 0.0189194 

-0.0245923 -0.00592511 -0.0524338 
0.0184755 0.0036268 -0.00593371 
0.000901067 -0.000434986 0.0315168 

-0.0297777 0.015627 -0.00698271 
-0.0397099 -0.0118987 0.0205271 
-0.00937183 -0.00909978 0.0370848 

-0.0804319 0.0276442 -0.429513 
-0.0528516 0.0622915 1.63977 
0.00967525 -0.0126946 0.602755 

-0.0527762 0.00791462 -0.892061 
-0.0164992 0.0256056 -0.609619 
-0.0044042 -0.00930295 -0.272409 

-0.0199902 -0.00503621 -0.0715514 
0.00947672 0.0070677 -0.0342968 
-0.00249093 -0.0016862 0.0496512 

-0.030396 0.00734666 -0.166914 
-0.00237647 0.0293278 0.0168057 
0.0272176 -0.0206935 0.0732823 

-0.0372098 -0.00383379 -0.215595 
0.00726114 0.0134551 1.31989 
-0.00109337 -0.00239273 -0.136409 

-0.0535239 0.00617665 0.0249207 
0.0151765 0.0215025 -0.0923482 
-0.00378954 -0.0136239 0.0184907 

-0.0264627 -0.00478475 -0.0773937 
0.00446247 0.00988185 0.253016 
-0.0049044 -0.00324707 0.127708 

-0.0281661 0.00412951 0.041855 
0.000156987 -0.00284107 0.0238321 
0.0125581 0.0104863 0.0117338 

-0.0270359 0.00987624 0.000921525 
0.00128623 0.00883442 -0.0547589 
-0.000495123 0.00102011 0.0260647 

-0.0370851 -0.00287221 0.0845254 
0.00267494 0.0155501 0.00279261 
-0.00973532 0.0280479 0.0910915 

-0.0841404 -0.0526121 -0.49941 
-0.00202706 0.044058 -0.777294 
0.00112051 0.0047715 0.0012459 

-0.0717346 0.0287063 -0.416588 
0.00577174 0.0391649 -0.503723 
-0.000415304 -0.00523198 0.112068 

-0.00219098 -0.029453 0.00174386 
0.0199813 -0.0286086 -0.0699071 
0.011484 -0.00351188 0.0207769 

-0.0526452 0.00402565 0.061733 
-0.0245203 0.0336114 -0.170654 
0.0193172 -0.00563917 0.179659 

-0.0350228 0.00312649 -0.111037 
0.00973532 0.00718619 -0.0429706 
0.00174076 0.00017137 0.0320416 

-0.0245655 -0.0101148 0.0533711 
-0.0104365 0.0149803 -0.00684829 
-0.00217341 0.000991531 0.0132655 

-0.0451726 0.0146571 0.0744792 
0.0277885 0.021815 0.0161841 
0.000544838 -0.000651554 0.00942061 

-0.0370896 -0.0303299 -0.162338 
0.0148195 0.0319093 -0.156339 
0.0282204 -0.000838472 0.770312 

-0.0517932 0.00511027 -0.0192168 
-0.0117701 0.0146863 -0.0745493 
0.00208509 -0.0180555 0.02894 

-0.0374516 -0.011571 -0.120226 
-0.00532548 0.00468755 -0.0800317 
-0.00771666 0.0240344 0.0275742 

-0.0843603 0.011516 0.0891769 
-0.00735361 0.0255501 -0.0240404 
0.00150123 -0.0153812 0.10459 

-0.015871 0.0021389 -0.0735777 
-0.00229071 0.0134558 0.00271719 
0.00486235 -0.00109602 -0.0588191 

-0.0303055 -0.00469617 0.0084586 
-0.000312681 0.0138524 -0.0115136 
-0.00134727 3.82274e-05 0.0239918 

-0.0359249 -0.0045926 -0.107128 
-0.0201665 0.019379 0.0219337 
-0.000578516 0.00144177 0.00745395 

-0.0502234 0.00964631 0.119844 
-0.00548333 0.028383 0.202524 
0.00831309 0.0203215 1.67741 

-0.0169378 -0.00257017 -7.68042e-05 
-0.00208067 0.00336361 0.0127514 
0.00104387 0.000903045 0.0242812 

-0.0668539 0.0297644 -0.0381929 
-0.0141607 0.041227 -0.109149 
-0.0267985 -0.0769007 0.165129 

-0.0166107 0.0507076 0.0222275 
-0.0326687 0.0126054 -0.0884947 
-0.0285458 -0.0066671 0.464756 

-0.0194702 -0.0182236 -0.226595 
0.0305754 0.0288073 0.202489 
0.00622308 3.84531e-05 0.0969385 

-0.0606318 -0.00801179 -0.14702 
-0.0109587 0.00728752 -0.0886184 
-0.00217184 -0.0021223 0.0535323 

-0.0808033 -0.0153792 0.136892 
0.0162503 0.0424826 -0.034884 
-0.000126169 2.76209e-05 0.0134901 

-0.0450231 0.0101551 0.0542641 
-0.0121118 0.0053874 0.0719884 
7.76101e-05 0.000579498 0.0494567 

-0.032396 0.00569695 -0.103748 
-0.00439844 0.0159514 -0.358215 
6.76155e-05 0.00881709 -0.130497 

-0.0477667 -1.58267e-05 -0.170214 
-0.0169336 0.0225973 -0.00210965 
0.00362423 -0.00665909 0.144562 

-0.0346523 -0.0197705 0.0396668 
0.0158088 0.0417412 0.0797588 
0.000918745 0.00127111 0.0200906 

-0.0401151 -0.117779 -0.0482054 
0.0015258 0.0503064 0.0486954 
0.00792306 0.0894353 0.135299 

-0.0141972 -0.00140835 0.0592339 
-0.00640401 0.00393438 -0.0241987 
6.87836e-05 -9.4874e-06 0.0226157 

-0.0222549 -0.00529975 -0.215419 
-0.0124057 0.0112393 0.0454858 
-0.00530937 0.00368599 0.035467 

-0.0215535 0.0167925 0.0210984 
0.00167559 0.026814 -0.0276272 
0.00299644 -0.00391697 0.0414572 

-0.0437553 -0.00853365 -0.172935 
0.0149558 0.0253016 -0.148495 
0.00692829 0.0142728 -0.0499724 

-0.0295108 -0.0267763 -0.100518 
-0.000886423 -0.00957723 -0.0396663 
0.00164727 0.0349586 0.0727734 

-0.0394271 0.00974336 0.237841 
0.00365886 0.0137435 0.0245326 
0.00171861 0.00395856 0.0625393 

-0.0689289 0.0427914 0.0255005 
0.00311279 0.0475259 -0.114601 
0.00407746 -0.0420847 0.224807 

-0.0489229 0.0307009 -0.0256145 
-0.0221104 0.0171603 0.0480535 
0.00318585 -0.00262129 0.0637428 

-0.0436198 0.00386531 -0.0182907 
0.0136012 -0.00229067 0.0332616 
-0.00081453 -0.00473724 0.0629704 

-0.0518323 -0.0253317 0.124656 
0.0356546 0.0159783 0.33639 
0.0102282 -0.0148675 0.0823102 

-0.0344697 -0.00620481 -0.0630952 
-0.00401037 0.0120417 0.0705966 
0.000181837 0.000197117 0.0600439 

-0.0531385 0.0147528 0.0119136 
-0.0136934 0.0142612 0.0208984 
-0.00044367 -0.00187998 0.0566248 

-0.0766625 0.0201041 -0.150284 
-0.0108448 0.0468811 0.101791 
0.00365132 -0.00606304 0.0711741 

-0.0218871 -0.00472252 0.0386536 
0.00391121 0.0111303 -0.00652017 
-0.00181939 0.0131731 -0.0842934 

-0.0314987 -0.0181526 -0.0199335 
0.00182114 0.0251986 0.0488764 
0.000603034 6.84158e-05 -0.0106315 

-0.0405787 -0.0125117 0.0562368 
-0.00627954 0.0168172 -0.106469 
-0.00125338 0.000390648 0.0417688 

-0.0381277 0.0125893 -0.162273 
0.00187521 0.0179567 -0.0739546 
-0.007122 -0.0656108 1.02311 

-0.0223628 0.00322904 0.0245497 
-0.0025598 0.00706151 0.0196829 
-0.00123988 -0.00200481 0.0269174 

-0.134647 0.0297742 0.338945 
-0.118076 0.0699589 0.300116 
0.0462494 0.0194181 0.342588 

-0.0276054 0.0168349 -0.156992 
-0.0272331 0.0096818 -0.0410197 
0.00385709 -0.0187385 0.0380863 

-0.12013 -0.0535945 0.0890243 
0.0146471 0.0860527 -0.124311 
0.00783599 0.0133834 0.0948713 

-0.0387776 0.010275 -0.00768439 
0.00101405 0.0178668 -0.0134711 
-0.00143563 -0.00152067 0.0046847 

-0.076948 0.0139041 0.0537412 
-0.0179683 0.014959 0.00467946 
-0.0019461 0.000997725 0.102539 

-0.0227123 -0.00706893 -0.0969389 
2.74868e-05 0.00457527 0.0478333 
0.00165183 0.000810954 0.0215424 

-0.0157157 0.000301327 -0.00220025 
0.00599413 0.0105248 0.0179275 
0.00265849 -0.000225354 0.00918392 

-0.0399043 0.0177755 0.0147971 
-0.028544 0.0199488 -0.0474517 
-0.00308115 -0.00158166 0.0202886 

-0.0455042 0.0177878 -0.153905 
-0.05748 0.0123832 -0.204886 
0.0180685 0.00367932 0.229669 

-0.0941222 0.0327278 -0.234571 
-0.00894654 0.0245348 0.0294244 
-0.00547736 0.00336543 0.150959 

-0.101682 1.34262 0.311514 
-0.000424073 0.0911378 -0.364524 
0.00113788 -0.0420356 0.217121 

-0.0313568 0.0153412 -0.119045 
-0.00233994 -0.00618017 -0.0259479 
-0.00205927 0.00216728 0.178602 

-0.0277429 0.00110136 0.0192174 
-0.00277371 0.0092207 -0.0114494 
-0.00327336 0.000226862 0.0248811 

-0.0363992 0.0146463 0.0724624 
0.000721932 0.0107018 -0.0193329 
-0.00218797 0.00822157 -0.178469 

-0.0176064 0.0399158 0.0136379 
-0.0239543 0.0115727 0.0609739 
0.00554635 -0.0543131 0.0688119 

-0.042878 0.0133554 0.00812278 
-0.00767329 0.0112254 0.0172832 
0.000770224 0.00040919 0.0410407 

-0.0549928 0.00678311 -3.04805 
0.0117787 0.0288141 1.19752 
-0.00022999 -0.000478901 0.552209 

-0.0527741 -0.0336227 0.00385303 
0.00978922 0.0296742 0.0889639 
-0.0185879 0.00470064 0.0234051 

-0.0367162 0.0208621 -0.117281 
-0.013807 0.0161024 -0.102043 
0.0131594 -0.00144566 0.272439 

-0.0554109 0.0562267 -0.0808682 
0.00567243 0.0368971 -0.0245841 
0.000583706 -0.0175487 0.0727554 

-0.0332351 0.0233827 -0.0687537 
-0.0152372 0.0138942 0.00523174 
-0.00103681 -0.000695699 0.0127815 

-0.0423317 0.0238039 0.00236338 
-0.0283067 0.0177277 -0.0199872 
0.000611977 0.00345509 0.0586932 

-0.0626109 -0.0174647 -0.105584 
-0.0162914 0.0424401 0.0473228 
-0.00179308 -0.000541838 0.0965188 

-0.0260458 0.00858431 0.000720382 
-0.00790094 0.0219457 -0.0419431 
0.00398632 0.00985167 0.115251 

-0.0283573 0.00400581 -0.446164 
-0.00359875 0.0131152 -1.45071 
-0.00545684 -0.00529736 0.0899981 

-0.0584719 -0.00220357 -0.0359334 
-0.00643671 0.0307404 -0.476072 
-0.00260995 -0.0112595 0.00585911 

-0.0459851 0.00646281 -0.932741 
-0.0222354 0.0281881 0.0849924 
0.00239654 0.00239622 0.12723 

-0.0374675 0.012908 0.0967141 
0.00152861 0.01569 0.0489782 
0.0103029 0.00531068 0.050716 

-0.0296205 -0.0143697 -0.0998192 
0.00640941 0.0228902 0.282624 
0.00480754 0.0038731 -0.130773 

-0.0544682 -0.0058636 -0.0129137 
-0.000225965 0.0210975 -0.00316633 
-0.00270696 0.00137711 0.0230136 

-0.0744542 0.0423784 0.0740466 
-0.0218181 0.00953545 0.0156033 
-0.0244928 -0.023037 0.11769 

-0.0377793 0.0241173 -0.164804 
-0.0302243 0.0171036 -0.151212 
-0.00962583 0.028674 0.100267 

-0.0488166 0.0194046 0.0860473 
0.00804736 0.00873726 -0.0391013 
0.00257414 0.00187479 0.0447118 

-0.0382215 -0.00334578 0.0256574 
-0.00178029 0.00943702 0.0225378 
-0.00572226 -6.86555e-05 0.0743114 

-0.0318809 0.00752225 -0.82047 
0.00464558 0.000227595 -2.15749 
0.00647208 -0.00155702 -0.514597 

-0.039628 0.0235373 -0.357509 
0.00404449 0.0109095 0.342357 
0.0268966 0.00704763 -0.10606 

-0.0210364 0.00729303 -0.0108251 
-0.00482591 -0.00188269 -0.00982801 
0.000660971 0.00105111 0.0294823 

-0.0541814 -0.00251617 0.350019 
0.00573278 0.0132985 -0.323426 
0.0165603 -0.0173915 0.0556964 

-0.0645949 0.0298168 -0.00424929 
0.000838379 0.049478 -0.125441 
-0.00477981 -0.013405 0.157615 

-0.0350125 -0.0201145 0.191192 
0.0170412 0.0200128 -0.0270182 
0.00729898 -0.00819773 0.0423746 

-0.0289493 0.0117221 -0.000950023 
-0.00575367 -0.00631264 -0.0330019 
0.00129129 -0.00761023 -0.0260138 

-0.0245496 0.00112778 0.0102009 
0.00196785 0.0111205 0.0228892 
-0.00346197 0.00498773 0.0229403 

-0.0487504 -0.000149875 0.032144 
0.0258283 0.0111994 0.0324079 
-0.0159801 -0.00144175 0.0966948 

-0.0417952 -0.00617202 0.0145164 
0.0153491 0.0102778 0.130241 
0.00661396 -0.00151621 0.0449762 

-0.0619628 0.0107164 -0.0232958 
0.00735991 0.0173102 0.0214345 
-0.00516648 -0.0112784 -0.0916642 

-0.0562202 0.0359726 0.0113585 
-0.0218313 0.00620811 -2.14445e-06 
0.00124609 -0.00274602 0.066678 

-0.0268716 0.0111037 0.0087783 
-0.0288282 0.0057063 -0.00102339 
-0.0446875 -0.0342427 0.607078 

-0.0248695 -0.00452025 0.0277285 
0.00849276 0.0231458 -0.0924093 
0.00613101 0.0138381 0.0314631 

-0.0330573 0.0011492 -0.337136 
-0.00587734 0.00832279 1.10819 
-0.00180836 0.00165927 0.255367 

-0.0319617 0.0173684 0.0339548 
-0.0046446 0.0137104 0.403718 
-0.000824556 -0.000680484 0.0428808 

-0.0335198 0.00294508 0.095541 
-0.0106755 0.00322354 -0.0163525 
-0.0199426 0.0171433 0.313606 

-0.0709156 0.00879459 -0.00113809 
0.00359926 0.0706863 -0.146489 
5.78484e-05 0.0015834 0.0518675 

-0.0204365 -0.0112074 0.00376863 
0.016268 -0.000449978 0.0202285 
0.0361688 -0.0233858 0.0923722 

-0.0316133 0.00370016 0.104533 
0.000775755 0.00931287 -0.0573163 
-0.00840166 -0.00566536 -0.16697 

-0.0269431 0.00363678 -0.0466245 
-0.00842727 0.00792349 -0.0362362 
0.0021229 0.000349635 0.052521 

-0.0799694 0.0186464 -0.0711014 
-0.0181285 0.043392 -0.0535636 
-0.00311909 -0.0766233 0.252715 

-0.036202 -0.0139215 -0.146573 
0.0171012 0.0176914 -0.454135 
-0.000934755 -0.00291398 0.0932115 

-0.0411655 0.0317194 0.0542678 
0.0101769 0.00220283 -0.00965754 
-0.00299526 -0.00389703 0.0704859 

-0.0433841 0.0107984 -0.00510877 
-0.00448799 0.0197185 -0.0135561 
0.000213934 -0.00029393 0.0150531 

-0.0344822 0.0267712 -0.0559781 
0.00852346 0.0282012 -0.124877 
-0.00190082 -0.000742036 0.176443 

-0.0471759 -0.022029 -0.057762 
0.0227421 0.0149822 -0.16501 
-0.00637319 -0.0315889 0.192575 

-0.0349244 0.00765345 0.0243463 
-0.00786337 0.0185474 -0.145274 
0.000151379 -0.00192315 0.138716 

-0.0407319 -0.0154348 -0.0231937 
0.00439906 0.0267396 0.00678076 
0.00121478 0.0015371 0.0213327 

-0.0150631 -0.0382301 -0.0368178 
0.000956685 -0.000781102 0.0230674 
0.00695978 -0.00257511 0.161158 

-0.0609115 0.0109505 0.0481982 
0.0156931 0.0207314 0.136386 
0.0048854 -0.0189253 0.0451252 

-0.0227839 -0.0157068 0.0386739 
-0.0109067 0.00740664 0.00196437 
0.00128556 -0.0129008 0.0497884 

-0.037829 -0.0115964 0.0753137 
0.0139585 0.0119097 -0.00610341 
-0.0161724 0.0201033 0.148311 

-0.0494432 -0.0318845 0.0973144 
0.00338905 0.0341601 0.089416 
0.00201383 0.0152374 0.0433523 

-0.0289564 -0.016621 0.113196 
-0.000607716 0.00495159 0.0344614 
0.0102729 0.0087426 0.164574 

-0.0577331 -0.059462 -0.0188462 
0.0530777 0.0358198 -0.072089 
0.00499155 -0.00395138 0.0869573 

-0.100894 -0.0413822 0.168355 
0.00687951 0.00296844 0.0334171 
-0.00139469 0.00356123 0.111461 

-0.0310686 -0.000570725 0.484393 
-0.0113551 0.0104885 0.0193818 
-0.00255876 -0.000445499 -0.0517635 

-0.0374729 0.0124655 -0.0592788 
-0.0110352 0.0168408 -0.0982003 
-0.0199643 -0.00449957 0.104001 

-0.0442665 -0.0121763 0.0105775 
-0.00892241 0.0293391 0.0138039 
-0.00559628 0.00768211 0.0349377 

-0.0371045 -0.00262409 -1.11047 
-0.00740769 0.0283361 0.258461 
-0.000509984 -0.0206051 3.2404 

-0.0630802 -0.016704 -0.0812992 
0.0197677 0.0190422 0.085021 
-0.00111694 -0.00140803 0.025411 

-0.044579 -0.0302239 -0.307802 
0.00918743 0.0185044 0.456656 
-0.00353975 -0.000343344 0.0584628 

-0.0484569 -4.13932e-05 -0.166524 
0.00959549 0.0226664 0.10707 
0.00317931 -0.00835711 0.622411 

-0.0193466 0.00527253 0.0448138 
0.00236591 0.0038714 0.00839504 
-0.00148304 5.72395e-05 0.0295499 

-0.0556738 -0.0108381 -0.182609 
0.00469726 0.0176399 -0.110498 
-0.0244737 -0.0136042 -0.119374 

-0.0497814 0.00373542 0.197476 
0.016179 0.0370368 -0.194741 
-0.0272465 -0.0119562 -0.164787 

-0.0297948 -0.0172838 -0.517448 
0.00360315 0.0179926 -0.122586 
0.00255264 0.000318237 0.0185254 

-0.0594923 0.00655335 0.378815 
0.0115217 0.0564713 -0.140952 
0.00156248 0.00744434 0.384704 

-0.0412019 0.0106008 -0.0532941 
-0.00448306 0.00911805 -0.0143784 
-0.000474473 -0.00157458 0.0362195 

-0.050333 -0.010901 1.23619 
-0.00265052 0.0235379 0.121289 
0.00541245 0.00413889 0.0314156 

-0.0373662 -0.0256739 -0.0546146 
-0.00997741 0.0126867 -0.0990249 
0.017508 -0.00973904 -0.00865897 

-0.0585489 -0.0107314 0.0943456 
0.00783714 0.0605555 0.132765 
-0.000952358 0.00114254 0.0386926 

-0.0418962 -0.0226741 0.800613 
-0.0103063 -0.0338894 0.406834 
-0.00237881 0.0162625 -0.0761008 

-0.082065 -0.0251247 0.0159032 
0.00124834 0.0265158 0.205228 
0.0177458 -0.0750706 1.23137 

-0.15676 -0.0230998 0.0645724 
-0.0137875 0.00731333 0.0105904 
0.00233204 0.00299172 0.160345 

-0.021104 0.00682542 -0.00342495 
-0.00998514 -0.00780015 -0.0123004 
0.00843915 -0.0322804 0.00823453 

-0.0479046 0.0248988 0.0587996 
0.0216324 0.0333829 0.0265199 
-0.06331 -0.0355804 0.376421 

-0.0283141 0.0154332 -0.00917287 
-0.0021585 0.0102324 -0.0673422 
0.000701731 0.000883113 0.0127076 

-0.0278155 0.0176612 0.0230855 
-0.00447383 0.0231998 -0.160222 
0.000280565 -4.25967e-05 0.0261237 

-0.0210995 -0.00704913 0.0145506 
0.00185666 0.010978 0.0150162 
-0.00201959 0.00202565 0.0224942 

-0.030519 -0.00573913 0.0166712 
-0.00106849 0.0215813 -0.0466724 
0.00129551 -0.0055684 0.134743 

-0.0427412 0.0125338 -0.0330005 
-0.00522793 0.0163156 0.0462299 
-0.00337313 0.00968643 0.0200085 

-0.0513449 -0.00875402 -0.230328 
-0.00362468 0.00729585 0.155301 
0.0022474 0.000295759 0.0723037 

-0.0322999 0.00460523 -0.059093 
-0.0128089 0.0112052 -0.0116075 
0.00477526 0.0182414 0.0769594 

-0.0436475 -0.0112011 0.0247794 
-0.0105056 0.00677143 0.00337493 
-0.0025557 0.00393979 0.0553717 

-0.0416845 -0.00645448 -0.152753 
-0.0417109 -0.00953527 0.0623227 
0.00225481 0.00100028 0.0493384 

-0.0344156 -0.0159616 0.031148 
-0.0180991 0.00773145 -0.0216196 
0.00686348 0.00289714 0.0392648 

-0.0420735 -0.0131153 0.0450178 
0.00603086 0.0252894 0.0973675 
-0.00321947 0.0163758 -0.0300897 

-0.0592656 0.026637 -0.0484546 
-0.00622327 0.00950168 -0.0123512 
-0.00708729 -0.00504153 0.023259 

-0.0291637 0.016895 -0.0523387 
-0.00771468 0.0420992 0.0664876 
-0.00387685 0.00618684 0.0692799 

-0.0384912 0.0148611 0.0987156 
-0.0523385 0.00277286 -0.020045 
-0.00307211 0.000778486 0.0391818 

-0.0253547 -0.0114089 0.0403956 
-0.000628019 0.00465237 -0.0288364 
-0.00126291 -0.00122691 0.0187014 

-0.0331877 0.00249709 -0.24148 
-0.00161954 0.0131557 0.246206 
0.00103036 0.00379121 -0.207776 

-0.071035 0.00239572 0.0287693 
0.016558 0.042987 -0.125818 
0.0726376 0.0583216 0.360256 

-0.0314666 -0.00329385 0.0477462 
0.00197961 0.00751645 0.0147872 
0.00279208 -0.00240679 -0.00156081 

-0.0540845 -0.00772344 0.262951 
-0.00470115 0.0421288 0.160005 
-0.00477078 0.0515224 0.220974 

-0.0558609 -0.0363642 0.117027 
0.0454123 0.0206074 0.113296 
-0.00298622 -0.0104059 0.0723545 

-0.0421947 -0.0063696 -0.0474869 
-0.0291154 0.0235546 0.0657126 
-0.00818211 0.00726895 -0.0723984 

-0.0825435 -0.0342969 0.0563688 
0.0442464 0.039023 -0.0814767 
0.0145604 -0.0100496 0.00903555 

-0.0373063 -0.0242519 -0.00630115 
0.0162232 0.00122021 -0.0592829 
0.000980662 0.00107241 0.0367137 

-0.0424023 -0.0385055 -0.00305118 
0.0351575 0.0130592 -0.0163615 
0.00034738 0.0015052 0.0185457 

-0.0479609 -0.0177834 0.0528796 
0.0173496 -0.0100639 0.122046 
0.00396617 -0.000672794 0.0591115 

-0.0597152 -0.0233248 0.270891 
0.00313104 0.0334765 -0.00526388 
0.00129238 0.00994285 -0.0477679 

-0.0495957 0.00178481 0.0252501 
-0.0247896 -0.0111352 -0.0968018 
-0.00102917 -0.00867283 0.133266 

-0.0467962 0.0196107 0.278108 
-0.0150123 0.0156678 0.140633 
-0.0259254 0.00169586 0.0432486 

-0.0323092 0.0464922 0.00353624 
-0.0268314 0.0311913 -0.0315058 
-0.0323654 -0.0179507 -0.08717 

-0.0577989 -0.0472952 -0.190908 
-0.0152653 -0.00215499 -0.120509 
-0.0138276 -0.0167966 0.511759 

-0.043628 -0.0112302 -0.0579828 
-0.00741312 0.0205527 0.0562685 
-7.09899e-05 0.00160311 0.0214208 

-0.0226877 0.0146724 0.113248 
-0.00145079 0.0150667 0.120003 