# vtk DataFile Version 3.0
Output file generated by Yade's KinematicLocalisationAnalyser
ASCII
DATASET UNSTRUCTURED_GRID

POINTS 13483 float
627.696 28.3928 0.434948
804.939 59.5582 0.561467
123.201 6.14213 0.457067
833.804 4.24522 0.424381
513.065 7.77132 -0.262113
322.679 35.0664 0.26257
160.336 6.9049 0.430609
588.136 10.1675 0.150139
509.717 23.0158 0.169341
753.705 12.7061 0.431658
215.76 9.02926 -0.112383
263.484 6.29383 -0.261838
680.131 29.9023 -0.163491
656.424 14.0191 -0.0836143
140.445 17.0697 0.414853
227.007 34.4926 0.407973
223.104 12.9794 -0.284516
296.231 9.64443 0.390576
349.317 32.7172 -0.360984
539.253 8.51254 0.351842
421.329 36.6546 0.103913
611.334 45.8949 -0.255366
830.381 37.9464 -0.530984
728.102 43.1838 -0.484969
470.846 16.0606 0.283977
247.259 44.1497 -0.127638
504.726 27.3607 -0.539276
606.037 20.2818 0.228925
46.0777 15.5483 0.457352
751.585 36.8393 0.327341
495.422 4.92297 0.322332
16.8304 23.4498 0.305187
819.478 59.8954 -0.284987
508.821 2.4895 0.481028
80.3034 44.466 0.104046
536.394 30.7462 0.335497
545.822 16.5419 -0.408981
352.749 22.5165 -0.187871
548.673 25.4015 -0.325818
359.594 33.1905 -0.429736
247.387 14.6601 -0.359823
445.662 35.7009 0.0803546
706.166 6.9992 0.119046
197.715 6.25223 0.367082
56.7367 7.039 0.0833786
70.1984 8.93671 0.289004
723.462 7.94742 0.633671
23.9923 11.6503 0.284819
633.005 45.0174 -0.370642
708.109 22.5466 -0.363558
177.157 32.4005 0.308672
803.794 47.0551 -0.143682
35.8065 28.148 0.123546
549.841 2.94496 0.334849
145.725 7.45802 -0.497624
614.353 35.183 0.436233
518.821 26.8004 -0.143658
179.389 0.94048 -0.271229
33.4752 2.42271 0.295375
357.96 17.7981 0.269972
644.286 45.9451 -0.139453
474.714 33.723 0.191487
409.813 1.02931 0.197853
734.966 9.97651 -0.368904
27.1808 43.0454 -0.234955
263.16 30.4888 -0.32402
753.578 8.02456 0.269562
700.663 46.5565 0.374614
428.671 8.68907 -0.475129
589.053 3.5621 -0.3387
783.095 32.895 -0.500677
134.121 7.68687 -0.310042
512.545 25.6163 -0.118994
490.985 14.9515 -0.149718
302.466 16.7382 -0.340031
21.109 13.6525 0.238839
827.139 52.3112 -0.359519
341.623 39.1361 -0.287755
705.231 19.7545 0.379372
724.38 12.8815 0.209504
822.375 13.8233 -0.20306
478.187 34.5055 -0.191635
94.9707 38.4325 -0.27954
716.017 34.3898 0.23147
675.834 38.6422 0.116877
837.784 43.0424 0.139025
817.582 0.768011 -0.769443
299.117 28.7369 0.467696
645.008 6.37392 -0.127677
24.879 5.27502 0.525023
136.753 38.3168 -0.151254
528.145 14.4685 0.239148
815.208 37.375 0.481844
201.081 28.6369 0.231163
45.4684 34.2573 -0.300556
507.73 1.15739 0.134923
242.577 8.89144 -0.363713
783.434 44.2727 -0.247983
801.561 35.2081 0.241922
371.824 20.9571 -0.257199
168.711 26.964 -0.462898
568.146 37.9341 0.42404
390.818 15.6854 -0.446478
425.626 29.6493 -0.106939
389.017 4.51203 0.409636
566.426 10.8872 -0.0876506
838.783 10.9106 -0.296702
82.6182 39.2706 0.399482
345.263 5.01378 -0.19428
581.421 9.48229 -0.355767
370.909 43.7496 0.455981
26.1956 24.3073 -0.497952
31.1144 5.7526 0.325137
589.323 32.5863 -0.43976
521.523 24.1101 0.14062
27.1684 36.9563 -0.423952
95.9194 30.8841 0.221255
334.855 15.9664 -0.28043
624.107 18.7687 -0.149168
490.373 37.7384 0.319309
771.182 7.84861 -0.369371
763.762 6.88471 0.217727
399.018 37.3175 0.104464
663.213 25.2147 0.11523
245.801 17.0813 0.496632
340.536 3.88285 0.458454
106.664 31.5306 0.377427
119.823 23.8202 -0.257235
563.3 38.1714 0.0743622
315.816 18.8179 0.478743
746.767 39.1506 0.123378
704.56 45.7717 0.131265
496.837 20.4519 -0.431345
807.601 19.6615 0.314941
442.748 23.2793 -0.232737
286.363 24.0274 0.291762
706.469 33.8196 0.362763
288.327 28.6061 0.386953
599.8 12.5216 -0.203938
342.784 35.8277 0.203672
522.525 11.3011 0.487038
379.182 31.7001 0.0926162
444.924 16.7481 -0.108325
328.66 42.2253 -0.356468
197.254 29.8704 -0.126631
809.987 58.791 0.0692311
835.828 13.0979 -0.431423
6.21219 12.4603 0.473903
449.091 22.4307 -0.416431
39.4926 22.4635 0.0842178
389.184 31.4973 -0.374192
408.514 24.7965 0.291981
77.3925 12.042 -0.518802
53.5355 33.0863 -0.426148
233.883 13.5398 0.412118
645.714 38.3939 -0.401266
602.249 21.3895 -0.471758
77.472 20.8749 -0.505828
730.298 47.0059 0.445607
800.51 2.27111 -0.501318
693.323 41.5755 -0.507109
731.135 2.37154 -0.546868
572.695 26.5092 0.398123
613.09 46.07 -0.454334
532.014 17.9363 -0.419326
832.169 3.63661 -0.394293
231.49 24.6542 0.112056
132.33 35.3073 -0.200618
256.258 6.73291 0.400125
97.709 4.26392 -0.280108
66.4437 10.1311 -0.207469
286.064 36.1259 0.297489
17.0968 25.1865 -0.368218
578.84 19.1457 -0.395769
632.408 39.925 0.226175
480.104 20.8318 -0.392294
836.119 63.5145 -0.377784
421.637 8.59097 -0.101425
452.215 36.1181 -0.393554
558.53 3.44514 -0.187838
23.5418 23.8871 -0.407621
602.28 4.61108 0.409528
568.667 4.34951 -0.287966
213.959 11.5123 0.488896
440.994 16.5299 -0.19708
323.05 6.33339 0.340877
402.465 19.1285 -0.320535
771.633 42.9747 -0.111129
199.413 25.7026 0.423272
813.886 10.3075 -0.547338
771.556 38.9969 -0.354983
397.695 10.2436 -0.160398
751.638 2.26369 0.43164
632.094 25.4748 -0.389456
779.15 18.1639 -0.433994
447.4 42.7061 0.318946
516.672 12.6719 0.382797
483.497 44.1589 -0.225693
462.703 8.60138 0.126052
697.012 40.8581 0.252702
694.581 36.8187 0.329059
199.569 38.9808 0.365729
820.657 15.1042 -0.172182
615.132 46.4548 -0.0764263
11.7584 17.0683 0.228406
423.12 25.416 0.347673
194.432 23.0185 -0.410417
96.6195 39.3019 0.206935
812.312 35.5178 0.493043
690.516 46.4419 -0.240362
331.286 25.5536 0.347598
555.174 10.1271 0.319723
85.4887 44.4016 0.170258
257.368 25.8542 -0.474214
581.847 22.9852 0.363964
506.426 18.5719 0.410771
273.04 0.889046 -0.343271
577.725 39.6539 -0.36783
556.619 40.3953 0.467756
501.56 32.8285 0.399245
519.813 0.83081 -0.54524
739.958 21.4454 -0.400363
186.538 12.0498 -0.173517
521.21 36.6981 -0.455932
590.044 39.7797 0.134324
75.6113 0.969314 -0.276833
261.666 4.6975 0.181212
835.064 16.3898 0.232435
823.649 15.2983 -0.43647
840.912 15.4257 -0.731417
315.441 8.56682 -0.228784
784.129 23.2898 -0.441848
423.214 41.4575 -0.32812
466.985 0.811201 -0.401082
682.214 36.7624 0.528873
27.985 30.6475 0.242966
343.786 41.0804 0.534664
262.542 2.84425 0.331535
822.491 56.7439 -0.246615
749.515 52.1995 -0.227866
298.821 11.0093 0.234071
700.375 29.6985 -0.0855411
583.27 2.66466 0.296641
566.381 6.43584 0.418483
100.468 18.317 0.485976
315.328 1.03043 -0.225037
356.764 2.25957 -0.365152
14.3627 7.59424 0.410121
4.53256 31.0766 -0.271435
168.287 19.0565 -0.392912
70.8359 41.6957 -0.207807
69.4536 28.7612 0.31423
440.654 14.6522 -0.43523
382.144 35.2309 0.482205
800.81 48.2186 0.150393
20.1624 4.03337 -0.266756
73.3498 6.95212 -0.137588
655.464 37.5489 0.171369
306.511 0.918117 0.361665
379.739 16.0181 -0.104645
245.174 4.60307 0.374264
685.631 22.1806 0.20255
470.258 8.32111 0.410266
787.484 22.2845 -0.446161
662.276 29.4257 -0.34179
704.248 17.8217 0.0897738
437.425 26.8005 0.518571
106.291 44.6933 0.322112
566.948 41.7163 0.0774085
776.889 13.3452 0.302041
247.685 30.2968 -0.237012
33.2821 17.0792 -0.184226
350.149 13.9533 0.49457
111.905 40.3741 -0.464609
278.999 42.1157 -0.199606
442.961 1.6051 -0.296561
824.998 47.0836 0.416001
724.115 0.801773 0.548471
345.789 3.44632 0.548882
312.387 26.4221 0.152872
482.217 41.075 0.227748
84.7872 8.10454 -0.455275
205.918 44.9656 0.37746
806.537 40.7704 0.394407
516.206 39.0063 -0.0971431
208.419 41.1713 -0.274376
167.707 42.465 0.226501
839.403 38.3819 -0.394382
837.416 12.2217 -0.566125
635.915 3.4521 -0.470015
198.098 24.5055 -0.104056
574.565 27.3048 0.104024
576.619 27.0716 -0.262153
426.342 5.67018 -0.136029
502.598 0.927026 -0.29314
798.099 49.4706 -0.480209
88.4517 30.8916 -0.236303
691.643 18.4077 0.437439
285.83 15.4421 -0.361847
9.8761 2.33503 -0.35034
130.833 36.9337 0.194712
69.6851 22.7551 -0.477131
739.347 39.4446 -0.337726
824.999 64.5913 0.160583
193.49 28.3555 0.186352
831.235 14.167 -0.323848
46.8969 36.3848 0.261138
94.6785 29.3052 0.178827
666.305 12.4947 0.585127
430.818 18.121 -0.488257
542.543 16.573 0.121967
248.253 28.3395 0.181644
652.438 4.45182 -0.389344
841.239 10.7087 0.584477
30.9991 31.6651 0.283891
281.552 7.69836 0.192463
231.54 15.1683 0.274406
1.08727 35.6839 -0.150886
234.871 14.6108 -0.367255
220.711 10.9938 0.11518
223.367 26.3603 0.270168
138.651 27.7863 0.118722
573.186 14.9565 -0.348661
174.108 14.1406 -0.357716
816.838 57.3406 -0.233887
181.441 3.81146 0.509884
49.2328 37.402 0.415002
776.124 51.1594 -0.436179
293.223 31.8478 0.378984
714.705 22.0836 -0.47291
827.521 46.883 -0.506398
313.465 9.17594 -0.107666
770.771 30.7447 -0.353356
342.658 2.552 -0.3981
433.499 23.927 0.357337
710.89 15.7867 0.426462
109.955 12.1193 -0.407899
504.29 3.90586 -0.482841
790.859 20.1309 -0.188805
91.9211 7.67421 0.20776
293.724 14.7072 0.201088
441.44 11.8392 -0.204479
830.876 3.95751 0.55929
414.794 1.93893 -0.53427
184.493 38.7296 0.295614
779.475 10.2304 -0.421082
134.062 36.4733 0.193846
274.348 31.4917 -0.424967
417.512 21.695 0.224636
602.267 14.4297 -0.313663
403.612 9.79985 -0.486255
476.51 27.8521 -0.438578
805.964 59.2326 -0.432018
49.509 10.9425 0.130205
312.059 38.387 0.26216
395.831 27.4081 -0.35052
426.953 20.8842 0.277548
545.062 44.5901 0.356454
792.145 44.6917 -0.253524
700.059 35.7328 0.347796
235.56 34.1325 -0.397019
14.4489 31.5134 0.150727
692.952 37.8667 -0.131918
531.978 41.593 -0.239163
239.491 39.2651 0.113992
719.923 31.1056 0.159634
157.589 9.27499 0.212828
382.288 21.1875 0.346881
484.062 42.0614 0.101837
431.864 19.5057 0.20977
801.431 60.2206 0.289947
444.49 3.85963 0.500855
51.8074 25.2055 -0.31999
490.585 31.4327 0.352129
453.681 41.5079 0.443829
821.289 50.5525 -0.230412
768.452 27.8641 0.248478
566.706 18.3964 -0.213918
813.36 51.6434 0.482104
306.047 2.20753 -0.4615
394.779 29.8344 0.466894
30.3027 38.8063 -0.297825
773.747 31.3783 -0.16042
640.509 20.0755 -0.502427
483.513 0.770304 -0.476263
131.607 4.50302 0.280193
445.221 40.1297 0.101226
12.3572 0.909199 0.31588
830.441 6.38088 0.187117
386.206 39.4446 -0.398311
[...]
POINT_DATA 13483
TENSORS Strain_matrix float
-0.0258333 0.0577976 -0.208713 
0.0431758 -0.0419051 0.190329 
-0.00396512 -0.01645 0.27981 

-0.178038 0.142085 -16.4675 
0.0530598 0.409135 12.5774 
-0.0177562 0.0427472 -0.339874 

-0.0215683 -0.00648943 0.0899586 
0.00123682 0.0137465 -0.0553364 
-0.0473507 0.00740771 -0.0501342 

-0.0660583 0.0815265 -0.0271884 
-0.0900616 0.021152 -0.0375729 
0.00972783 0.0200339 0.0389471 

-0.13611 -0.020107 -0.00884979 
0.0273591 0.101111 -0.33457 
-0.0194708 0.0466316 0.341628 

-0.0178802 -0.0192053 -0.00736008 
0.020164 0.00743834 -0.00183128 
-0.00150458 -0.00406737 0.0304548 

-0.0117345 0.00105996 -0.00969867 
-0.00286709 0.00749409 -0.0269746 
0.00106159 0.000902431 -0.00670125 

-0.012459 0.00898719 0.0157796 
0.0112237 0.0109871 0.0104391 
-0.000704838 -0.000195451 -0.0135134 

-0.0382498 -0.0164707 0.0277176 
0.0228037 0.0205134 0.0609992 
-0.00827373 -0.0238696 0.304741 

-0.0401216 0.0624883 -0.248975 
-0.0513736 0.00887225 0.172351 
0.00294766 -0.0023022 0.0886236 

-0.0116681 5.93641e-05 -0.0185306 
0.000537503 0.00142176 -0.0102922 
0.000256592 0.000208485 0.0189666 

-0.0107597 -0.00925711 0.00952174 
0.0179501 0.00178244 -0.00050077 
0.00134445 0.000174804 0.00559837 

-0.0831158 0.161351 0.937694 
-0.0437407 -0.0182404 0.069509 
0.00819543 0.00984265 0.0037165 

-0.0154516 -0.00229837 -0.00652748 
-0.000236842 0.0141957 -0.00136217 
-0.00260075 0.00228204 0.00781583 

-0.0117731 -0.00624399 -0.0202935 
-0.000973826 0.00655842 -0.00789738 
-0.000182309 0.000922285 0.011593 

-0.00792856 0.0128093 -0.0436316 
-0.00793936 0.00298716 -0.0422109 
0.00127015 0.00183734 0.00287385 

-0.0146586 -0.00441997 0.00454948 
0.00199422 0.0028488 0.00693192 
0.00946087 -0.00296527 -0.00327137 

-0.0182388 -0.00860861 0.0112864 
0.00533346 -0.00173742 -0.0205043 
0.000128311 0.00072165 0.0323664 

-0.0179949 0.0197117 -0.101342 
-0.0126097 0.0045169 0.0175057 
0.0065018 -0.00206164 -0.0469565 

-0.0113408 0.00740233 0.0773383 
-0.0293179 -0.00166365 0.131976 
0.0016469 0.00355935 0.0866579 

-0.0366351 -0.0160977 -0.0215514 
-0.00361576 0.00260104 -0.0192041 
-3.68484e-05 0.00055866 0.0151363 

-0.00384466 -0.0125017 -0.00337898 
0.0117348 -0.000764775 0.00222671 
0.00037006 0.000346669 0.00767888 

-0.515119 -0.481426 -1.59322 
-0.444399 0.156264 0.12117 
-0.0237044 0.0158317 -0.0761708 

-0.0437607 -0.0342826 -0.841085 
0.118655 0.0387375 -0.947056 
-0.00150907 -0.000357115 0.198702 

-0.0197587 0.00508287 -0.0279539 
-0.000607878 0.00522207 -0.00557317 
0.0070915 0.00266406 0.0986355 

-0.0212983 0.0022651 -0.022543 
-0.0010418 0.00960942 0.0201817 
-0.0012727 0.00552658 0.0302927 

-0.0157589 -0.0121707 0.668035 
0.0175776 0.00321751 -1.2776 
-0.00312728 0.00671029 0.336633 

-0.00885485 -0.0147446 -0.345237 
0.00555834 -0.00991625 -0.261522 
0.0182625 -0.0233283 -0.0884286 

-0.0118133 -0.00285343 0.0987993 
0.000200237 0.00193336 0.215042 
1.11557e-05 0.000271141 -0.0104025 

-0.0142103 -0.133076 0.061737 
0.172092 -0.00990532 0.0806314 
0.0123023 0.0272954 0.1332 

-0.0211608 0.00889022 -0.0685917 
-0.0610345 -0.0118846 -0.0244387 
-0.00191932 0.000489805 0.0429342 

-0.0307623 0.00460769 -0.066844 
-0.0308214 0.00532007 -0.0198878 
0.00100916 0.000355839 0.0233649 

-0.0394782 -0.324202 0.370763 
0.136097 0.0863767 -0.0658878 
-0.00466485 -0.0160363 0.0795069 

-0.0300155 0.0605153 -1.00998 
0.0092153 0.0338884 -0.253793 
0.00243021 -0.00601206 0.142056 

0.00831966 -0.0318182 -0.0848286 
-0.040537 -0.0199983 -0.073765 
-0.0242122 0.0578513 0.198323 

-0.171957 -0.00761198 0.306219 
-0.1093 0.116507 0.0444276 
-0.041102 -0.0408743 0.213874 

-0.0259563 -0.00224333 0.0222006 
0.00173957 0.00720403 -0.079357 
0.000377795 0.0108405 -0.104596 

-0.00652597 -0.00539538 -0.0336253 
0.00617654 0.00286895 -0.00220127 
0.000440235 0.000722617 -0.00196998 

-0.0445524 -0.114034 0.115239 
-0.00492561 0.0868758 -0.0408999 
-0.0010088 0.00297526 0.00629885 

-0.00856466 0.0112125 0.0158456 
-0.0119663 0.00383367 -0.0626775 
8.81613e-05 -1.9627e-05 -0.004782 

-0.0123886 -0.00450308 0.000953772 
-0.0010138 0.000611793 -0.0121425 
-0.000461051 -0.000233171 0.00804032 

-0.0178347 0.00104887 0.00615458 
-0.00323757 0.00161184 0.0124271 
0.000988461 0.00304203 0.0491522 

-0.0289307 0.0361421 -0.010553 
-0.0151165 0.0096104 0.00797529 
-0.000542411 0.000312381 0.0149649 

-0.0126663 0.00585924 0.00290142 
-0.00568486 0.0077165 0.0330454 
0.00327235 -0.000626161 0.0357319 

-0.0161288 0.00268693 0.00129935 
-0.00492453 0.00798736 -0.00812471 
-0.00114768 6.92818e-05 0.00972941 

-0.00879997 -0.00189461 -0.00421654 
-0.000332083 0.00275161 0.0110285 
-0.000246172 0.00012501 0.00366769 

-0.0744877 0.0456365 -5.7736 
-0.00750485 0.0582993 4.13381 
0.012197 0.000946649 0.19761 

-0.0092038 -0.00924043 0.00225377 
0.00870726 0.00743774 -0.00338935 
0.000613966 4.20537e-05 0.00149759 

-0.0288085 0.066906 -0.0116058 
-0.066257 0.0103583 -0.0528734 
-0.00840728 -0.00753144 0.0305803 

-0.107005 -0.178354 -0.907663 
-0.0649388 0.0867427 -0.326453 
-0.0141832 -0.0360285 0.565921 

-0.00782236 0.0014653 0.0146201 
0.000591821 0.0026052 0.00350505 
0.00258693 0.00160186 0.0260397 

0.0068006 -0.142791 0.0306438 
0.0982254 0.00739581 0.108352 
0.00433332 0.00149541 -0.00872206 

-0.00576237 0.00893919 -0.0191505 
-0.00590022 0.00218626 -0.0536199 
0.000400964 -0.00022474 0.00590219 

-0.0135979 0.00496869 0.0175944 
-0.000621928 0.00247754 0.0134913 
0.000406787 9.21826e-05 0.00836074 

-0.0257637 0.0011437 1.38634 
-0.00613572 0.0069227 0.230826 
-0.00643494 0.000632391 -0.020768 

-0.0385824 0.000106111 -0.114058 
-0.00373229 0.034056 -0.104877 
0.00470336 -0.0112702 0.0441946 

0.00390552 0.0120109 -0.0898763 
0.00994298 -0.0486406 -0.0114812 
0.000279697 -0.00150819 0.00618099 

-0.0123191 -0.0675524 0.103821 
0.00114943 0.0595539 -0.0464815 
0.00243525 -0.22146 0.572276 

-0.00347819 -0.00381436 0.00395555 
-0.00624256 0.00520326 0.00244828 
0.000921395 -0.000801112 0.00584922 

-0.0079997 -0.00602396 -0.00705247 
0.000504486 0.00685982 0.00259909 
0.000925024 -0.00244086 0.0131729 

-0.0699778 0.107624 -0.0810685 
0.130061 -0.0242051 -0.00374916 
0.00655913 0.0532329 0.263598 

-0.00761327 -0.0822692 0.213523 
0.00122811 -0.0369513 0.1595 
0.00302892 -0.00104607 0.0706332 

-0.0152315 0.00268094 0.00394516 
-0.00757364 -0.000848652 -0.0116123 
0.000738522 0.00023257 0.0254036 

-0.112582 -0.0234672 -0.35793 
0.172647 0.128895 0.299789 
0.00869556 -0.00566971 0.0119221 

-0.0260814 -0.000259733 -0.0753099 
-0.0111507 0.0218984 -0.018055 
0.00913815 -0.0337609 -0.00736139 

-0.0233462 0.00986034 -0.0184501 
-0.00130454 0.00537924 0.00969956 
0.000269569 -0.000519997 0.0225946 

-0.0198514 -0.0432089 0.00717092 
-0.0707461 -0.0292576 -0.0320796 
-0.00447528 -0.00659867 0.0623335 

-0.0255971 -0.0783798 -0.389808 
0.0737221 0.00522257 0.702208 
-0.00565555 -0.0196017 -0.246283 

-0.0144071 -0.000819141 0.0792811 
-0.00637553 0.0053858 0.120257 
0.00110651 0.000650783 0.0194509 

-0.0148039 0.0061019 0.00557285 
-0.00069007 0.0147926 -0.00866358 
0.000600845 -0.00110374 0.0064352 

-0.359898 -0.289973 0.976638 
0.484318 0.299721 -0.304679 
0.0385424 -0.0113027 0.236605 

-0.0157279 -0.00250585 0.0381614 
0.00553712 0.00654768 0.0455813 
0.00531711 3.46176e-05 -0.0128614 

0.00565344 0.0356846 -0.0343037 
0.0477281 0.00220648 -0.0442445 
0.0264114 0.0496446 0.372275 

-0.0191161 -0.0114423 0.0273045 
0.00169472 0.00487836 -0.0722893 
-0.000813456 0.00018959 0.0267735 

-0.0108527 -0.000782846 -0.0260616 
-0.00397996 0.00290625 -0.00784683 
-0.00037186 0.000513007 0.0285571 

-0.0236925 0.000924801 -0.0236626 
0.00714941 0.0195892 -0.00254695 
-0.000448386 -0.000688737 -0.0060364 

0.0600388 -0.157817 0.0787167 
0.230503 -0.0459528 0.0560381 
0.0355749 0.0162166 0.647239 

-0.0146888 0.0314876 -0.097367 
-0.0310277 0.00581543 0.0303169 
-0.00177397 -0.00213667 0.023449 

-0.0264858 0.0237246 0.011019 
-0.0277381 0.000109701 0.0522308 
-0.000563661 0.00319699 0.0267461 

0.0416307 -0.0892428 -0.670731 
0.133668 0.0196903 -0.913736 
-0.0220183 -0.0315252 0.254207 

0.120524 0.46396 -0.0623022 
-0.490755 0.141651 0.138289 
-0.0230097 0.0709649 0.569519 

-0.0206579 -0.0677684 0.186126 
0.0840056 0.00876651 -0.15288 
0.0195328 0.03416 0.239809 

-0.00597181 0.00482534 -0.000997169 
-0.0039763 -0.0113844 0.0230035 
-0.0150677 0.0535521 0.0544834 

-0.282149 0.079827 -0.0407511 
-0.0954546 0.17567 0.368768 
0.0237426 0.00086147 0.505414 

-0.0730028 -0.10198 0.0680468 
0.102308 0.0188775 -0.0607528 
0.00228413 -0.0271005 0.0759646 

-0.0552239 0.0353257 -0.294798 
0.0290236 0.00937126 0.0620667 
0.00521568 -0.00767478 0.0497407 

-0.112515 2.39629 166.364 
0.00180161 0.105931 6.53041 
-0.000969416 0.0132854 1.69175 

-0.0115395 0.0446414 -0.0839727 
-0.0721818 -0.00815674 -0.0433245 
0.00729418 -0.00223026 0.0550885 

-0.0264478 0.0370382 -0.0423005 
-0.0609636 -0.000575626 -0.0612186 
0.000908454 2.66846e-05 0.0341631 

0.0275142 0.40279 -192.475 
-0.0021231 -0.00946989 11.487 
-0.00573302 -0.0218874 5.0935 

-0.0163545 -0.0149905 0.0100918 
-0.0121 -0.00320173 -0.021107 
0.00201454 0.00484728 -0.00553566 

-0.0226245 -0.0166758 -0.0289737 
0.00132287 0.0058278 0.0417236 
-0.00245732 -0.000294706 0.0296697 

-0.267618 0.102938 -9.70823 
-0.300443 0.220081 1.26703 
0.0125447 -0.0133421 0.0431816 

-0.00926212 -0.00413121 -0.00317223 
0.00100625 0.000797604 0.0164251 
-0.00134019 0.000725045 -0.000833759 

-0.0122291 0.00205084 -0.0115928 
-7.28203e-05 0.00406654 -0.0236325 
-8.48826e-07 0.000116365 0.0253573 

-0.0188966 0.186768 -0.3284 
0.00884836 0.0312353 -0.0825641 
0.00963344 -0.025853 -0.0724768 

-0.0107787 0.00137863 -0.0020201 
-0.00154286 0.00309664 -0.0065383 
-0.000648364 -5.4091e-05 0.00351694 

-0.142065 -0.177175 -0.164409 
0.38577 0.190406 0.151287 
0.0778146 0.0664295 0.0923577 

-0.156681 0.139606 1.73626 
0.318125 0.199092 0.126283 
-0.0105888 -0.00466565 0.0241043 

-0.0122921 0.00930192 0.0205003 
-0.0105564 0.00506635 0.0585294 
0.00115505 -0.00135217 0.0206095 

-0.0202567 -0.00482167 -0.897777 
0.00568273 0.00667788 0.211098 
0.00128947 -0.000201462 0.0349141 

-0.00829313 -0.00846948 0.0230391 
0.00614157 0.00107108 -0.00887834 
-0.00042131 0.000322902 -0.0164121 

-0.0284792 0.0046262 -0.808701 
-0.0211925 0.0115421 -0.155848 
-0.00711456 -0.000852135 0.102954 

-0.0217709 0.0195886 0.0105175 
-0.0130677 -0.0159349 -0.0346055 
0.00314717 0.0148866 0.0766679 

-0.0213066 0.00327117 0.15839 
0.00997465 0.0149295 0.016334 
0.0140133 -0.0127296 -0.0282615 

-0.0153561 -0.00137993 -0.00349752 
-0.00703302 0.00538075 -0.00181844 
-0.000839359 -0.000135549 0.0078027 

-0.090078 0.0279228 0.0489909 
0.00571713 0.0372932 -0.16191 
0.0303798 0.033533 -0.00437963 

-0.010777 0.00843908 0.00766113 
-0.0198378 0.00723898 -0.111179 
-0.0275 -0.00976243 -0.282376 

-0.0146106 0.0134091 0.016881 
0.0212201 -0.00521385 -0.0431477 
-0.00143805 0.00555195 0.0758056 

-0.0175754 -0.00652459 -0.00912674 
0.00719475 0.00576447 0.0823332 
-0.00083203 0.000512997 0.0168512 

-0.0326371 0.00564459 0.809936 
0.00627527 0.0190933 1.18975 
0.0182786 -0.0323864 -0.583138 

-0.0183629 0.011008 -2.50346 
-0.00813583 0.00611126 1.03892 
2.78522e-05 -0.000298091 0.258368 

-0.00216802 0.0140112 -0.0150006 
-0.0129567 0.00473266 0.00446828 
-0.00136998 -7.12868e-05 -0.001242 

-0.0308317 -0.0443018 -0.0295111 
0.0758167 0.00663143 0.106785 
-0.00254356 0.00402777 0.102422 

-0.0595045 0.122797 0.0580557 
-0.157327 0.0601646 0.166599 
0.00335064 0.000426147 0.0258951 

-0.0161899 0.00795622 -0.0230108 
-0.00246524 0.00239103 -0.115974 
-2.4941e-05 -0.000154069 0.0183404 

-0.0348992 0.00884303 -0.060674 
-0.00740568 0.00497006 0.00632204 
0.0186419 0.0447422 0.296164 

-0.0378199 0.00947366 -0.0710846 
-0.00378496 0.0244857 0.0614609 
-0.0233635 0.051703 0.292406 

-0.00801251 -0.0227713 0.0131934 
0.0336075 0.00169982 -0.00890725 
0.0012799 0.0035471 0.00972264 

-0.025406 0.0146965 -0.015504 
-0.00970437 0.00423035 0.0502415 
0.000406847 -0.00073644 0.0178713 

-0.103077 -0.0131018 -0.4466 
0.0468316 0.0707174 0.375107 
0.00984431 -0.00571789 0.0560068 

-0.0143626 0.110546 -0.0397845 
-0.0463943 -0.0135048 0.146091 
0.00447749 0.00236182 0.129889 

-0.0116781 -0.00662184 0.00118936 
0.00430797 0.00493542 0.0116148 
0.00142361 -0.000755368 0.0187625 

-0.0858117 0.0553944 0.207084 
0.04603 0.111399 -0.0394603 
-0.0153224 -0.0145331 0.0344908 

-0.0129248 -0.000397383 0.000603185 
-0.00379957 0.00415498 0.00837155 
0.000276554 -5.97617e-05 0.151527 

-0.0265669 -0.0213753 -0.0907787 
0.00314379 0.0290369 0.012818 
0.0278615 -0.0916846 0.247503 

-0.0155327 -0.00547039 0.0262383 
-0.00484095 0.00131406 -0.0306921 
-0.00161481 0.00299246 0.0566157 

-0.020854 0.0177525 -0.0900179 
0.026712 0.0196797 0.0190161 
0.000316294 0.000808716 0.0334401 

-0.00787114 -0.00142814 0.00928036 
-0.000894157 -0.00100545 0.0138459 
0.000754101 -4.92156e-05 0.0151371 

-0.0199171 -0.0041383 -0.172764 
0.0109738 0.00332124 -0.0920501 
-0.000454717 0.000278702 0.10865 

-0.0212272 -0.121726 -0.00423393 
0.153843 0.028504 -4.64677e-05 
0.000609177 0.00107308 0.0271188 

-0.0837741 0.0265331 -0.0700049 
-0.015029 0.0032659 0.173366 
0.0609859 -0.0432103 0.332256 

-0.029326 -0.0153151 -0.222653 
-0.00422333 0.0116167 -0.934467 
-0.00337511 0.0109048 0.230199 

-0.0766414 -0.0412294 -0.0170227 
-0.107561 0.0525668 -0.0882638 
0.0911187 -0.0146345 0.144735 

-0.0142047 0.018758 -0.105207 
-0.0102629 0.00849101 -0.0068311 
0.000453868 -0.000496484 0.0135525 

-0.0288906 0.0318623 -0.0111748 
0.00071993 0.0469382 -0.220983 
0.000253568 -0.00150927 0.0482593 

-0.182049 0.258576 -0.162449 
0.054247 0.152638 -0.907901 
0.0118306 0.00316986 -0.140346 

-0.0173576 0.0011647 -0.157978 
0.0169511 0.021 -0.312837 
0.00104703 -0.000424632 0.0687306 

-0.00508783 0.0422916 0.0760469 
0.035269 0.0109975 -0.0120144 
0.00832724 -0.0065011 -0.0395651 

-0.0011612 -0.000704712 0.046519 
-0.0161688 -0.00119986 0.00398362 
-0.000891657 0.000599662 0.0164247 

-0.0276717 0.0195608 0.0274879 
-0.00330696 -0.0115113 -0.0289463 
-0.000312597 0.00674222 0.15847 

-0.0150858 -0.00656344 -0.0444193 
-0.00187573 0.0121337 0.0221915 
-0.00605187 -0.0419487 0.105702 

-0.0188059 -0.00646743 0.0275038 
-0.00534225 -0.000468398 0.0104905 
7.18905e-05 -0.000369998 0.0214742 

-0.0121277 -0.0260007 -0.0245345 
0.0268128 0.00595379 0.018575 
0.0208735 -0.0239133 0.112722 

-0.00875981 0.000877404 0.0265167 
-0.00401997 0.00165093 0.0123002 
-0.000122183 0.000292908 0.0106422 

-0.00868589 -0.203687 -0.209123 
0.14682 0.0611956 0.194895 
0.000189666 0.000342711 0.016937 

-0.063758 0.14288 -0.00929953 
-0.311897 0.123367 -0.158825 
-0.00241541 0.0313384 0.116129 

-0.0249528 0.0100763 -0.207628 
-0.021842 7.65691e-06 -0.0874071 
0.000370152 -0.00270889 0.0786398 

-0.0134775 0.0119325 -0.0077099 
-0.0106416 0.00288497 -0.00570608 
-0.000777724 -2.79754e-05 0.0194785 

-0.0294299 0.0232185 -0.0159004 
-0.00560232 0.0173563 -0.000349161 
0.0125821 0.055437 0.219015 

-0.0249433 -0.0171944 0.141284 
0.0258083 0.000165984 0.477514 
-0.0007336 0.00943397 0.0957083 

-0.0146527 0.0390119 -0.0379931 
-0.0258055 0.00253376 0.00369294 
0.00261526 0.000577622 -0.00707339 

-0.0101739 -0.00238614 -0.10808 
0.000403385 -0.000485054 0.85068 
0.000343419 -0.000387873 0.0571221 

-0.0139485 -0.00265129 -0.0537119 
0.0133006 0.00450626 0.0437985 
-0.000148832 -0.000130746 0.0282847 

-0.00821895 -0.000658554 0.0190576 
0.00204962 0.00159778 0.0232603 
-0.000882865 -0.000151521 0.0177187 

-0.199114 0.0684121 -0.342432 
0.190008 0.198753 -0.402876 
-0.0627437 -0.127791 0.372975 

-0.0248617 0.00376735 -0.163611 
-0.000178481 -0.00424383 -0.328037 
0.0660397 -0.023763 0.403659 

-0.0187304 -0.00147934 -0.0807661 
0.00122652 0.0102195 0.292166 
-0.000427918 -7.20471e-06 0.214924 

-0.138526 0.299381 0.934053 
-0.0312391 0.356406 0.939807 
-0.00981093 -0.00401058 0.587074 

-0.45607 -0.179763 0.107992 
0.0903869 0.284728 -0.81753 
0.0175664 -0.0298143 0.154003 

-0.0294514 -0.034449 2.25127 
0.0522513 0.0253199 -3.68655 
-0.00356867 0.0120171 -0.750345 

-0.232758 -0.178205 0.0942489 
-0.0170319 0.00406845 -0.113991 
-0.0125671 0.0828498 0.689098 

-0.0263581 -0.0130971 4.15659e-05 
-0.0140898 0.0142673 -0.0265266 
0.00010244 0.000938985 0.0104034 

0.00317599 -0.822326 7.53736 
-0.0206688 0.7771 -4.52469 
0.00175391 -0.0272234 0.92469 

-0.0169977 -0.0185674 0.161871 
0.00344234 -0.0164569 -0.0019614 
-0.00319503 -0.000284113 0.0577221 

-0.127261 0.0325628 0.151676 
-0.000201419 0.0919648 0.108164 
0.00183143 0.00996984 0.0160276 

-0.00746906 -0.00749655 -0.0205666 
-0.0053 0.0110019 0.0239604 
-0.00047493 -0.000826547 0.00682355 

-0.0087304 -0.0192282 0.00413845 
-0.00972054 0.00536675 0.00617343 
-0.000650412 0.000974069 0.00510268 

-0.0178184 0.0179678 -0.115867 
0.00123599 0.00726087 -0.203801 
0.000363059 -0.000271143 0.0328782 

-0.0257679 -0.00586437 0.0156732 
0.00513808 0.00662064 -0.0007735 
8.14224e-05 0.00123717 0.068132 

-0.00819448 -0.00547607 0.00823983 
-0.000193193 0.00254493 0.00731609 
-0.000374846 0.000486606 0.00206291 

-0.00927323 -0.00947865 0.00870544 
0.0128433 0.000209726 0.0456017 
-0.00134837 -0.000273296 0.0236704 

-0.00120643 -0.0141639 -0.0111998 
-0.0212665 0.00247439 0.0690963 
-0.000236936 -0.000135018 0.0320615 

-0.0196922 -0.0105109 0.0351747 
-0.00113276 0.00343148 0.0250289 
-0.00257293 -0.0149378 0.0663289 

-0.00404514 0.114378 0.0261456 
-0.0860136 0.0338822 0.169187 
-0.00171795 0.0247532 0.0610873 

-0.0196842 -0.00964831 0.0678179 
0.0010512 -0.0110654 -0.0023821 
-0.00250922 -0.000970341 0.0649502 

0.0515452 -0.317586 -0.0890674 
0.326454 0.0461325 0.0159556 
0.000317317 0.000852664 -0.00808885 

-0.00937501 -0.00402143 -0.00537854 
0.00206043 0.000164076 -0.00392134 
0.000472423 -0.00101126 0.0150319 

-0.0312233 0.00756412 0.00792617 
-0.0108647 0.0108952 0.0265442 
0.000830933 -0.000795671 0.0245446 

-0.0327964 -0.0174899 -0.0100635 
0.0169625 0.0107337 0.00939427 
0.00441049 0.000782467 0.0257493 

-0.015098 0.0147884 -0.00742859 
-0.0116571 0.00785292 0.0342768 
0.00210939 -0.00242519 0.0344863 

-0.104635 0.013363 0.0236019 
-0.0728633 0.0237877 0.0842624 
-0.0284313 -0.0267459 0.455865 

-0.00925677 -0.00159475 0.00381836 
-0.00302268 0.00377179 0.00681249 
-0.000194728 -2.36724e-05 0.00473734 

-0.0133117 0.00317642 0.0564963 
-0.00180403 0.00421634 0.555045 
-0.00121231 0.00150961 -0.555016 

-0.0357049 -0.0156625 0.00109348 
0.0195218 0.011007 -0.034073 
0.00550269 -0.00335182 0.0358442 

-0.0161431 -0.0100525 0.00419846 
0.0070785 0.005403 0.0085276 
0.00134692 -0.000565277 0.00944506 

-0.0265219 -0.00400918 0.0409406 
-0.00886213 0.0180078 0.0412457 
0.0419919 -0.0262831 0.204427 

-0.0527326 -0.359408 -0.05414 
0.343612 0.129226 0.0448015 
0.0336578 0.0194624 0.895794 

-0.00947593 -0.00149495 -0.000802833 
-0.00421148 0.00639585 -0.0362327 
0.00109227 -0.00066703 -0.0095329 

-0.374945 -0.145181 -1.30651 
0.074954 0.119883 0.302069 
-0.016467 0.0444996 0.0738294 

-0.0102031 -0.321168 0.543874 
0.310593 0.0918295 -0.557527 
-0.00527677 -0.0227052 -0.0622811 

-0.0182736 3.00681e-05 0.0107851 
0.00157089 0.00553809 -0.00755066 
0.00280717 -0.000286903 0.0213938 

-0.132187 -0.0567579 -0.212589 
0.0949344 0.143507 0.358464 
-0.00905066 0.073906 0.0161654 

0.0117076 0.0298425 0.248614 
-0.0037209 -0.00295059 1.04925 
0.00881338 -0.0215068 -0.437832 

-0.153382 -0.113731 0.417911 
-0.0313278 0.0811964 0.223131 
0.0217437 -0.0404429 0.336844 

-0.0186123 0.0109914 0.00536002 
-0.00916515 0.00531459 -0.00140132 
0.00208253 0.00193438 0.0148988 

-0.0403002 0.0591598 0.00934362 
-0.0335079 0.000761268 0.00342971 
0.0291491 0.00550392 0.280065 

-0.0388512 0.026423 -0.0717762 
-0.0182305 0.0054161 -0.0352469 
0.0057704 0.015851 0.0565573 

-0.0100562 0.000194787 -0.018609 
-0.00388423 0.00324597 2.8736e-05 