# vtk DataFile Version 3.0
Output file generated by Yade's KinematicLocalisationAnalyser
ASCII
DATASET UNSTRUCTURED_GRID

POINTS 13483 float
399.82 41.9089 -0.463035
486.748 84.3898 0.470122
102.647 5.90167 -0.457439
515.735 8.46078 0.654421
342.387 9.78776 0.335998
247.697 38.3754 -0.610154
132.515 8.80567 0.451706
390.258 12.4017 -0.240379
343.989 35.7771 -0.156118
465.087 20.1282 0.42957
175.995 9.70683 -0.120984
210.242 6.79147 0.448864
417.801 82.1995 -0.153534
430.55 18.4689 0.11482
116.577 20.0715 0.440696
182.534 39.6117 -0.395178
181.209 16.1989 -0.352647
229.668 16.1726 0.717773
259.124 42.7737 0.609522
362.333 8.37629 0.576297
306.741 79.0154 -0.107858
399.081 86.2313 0.262643
503.208 69.037 -0.48094
453.366 88.3911 -0.492186
321.456 44.1664 -0.379657
188.747 58.4733 -0.121818
337.802 49.9108 0.556889
398.438 29.6362 -0.267931
39.3592 16.5414 0.522103
476.741 88.5797 0.375472
330.407 11.1567 -0.456085
15.6458 26.5329 -0.301033
497.005 92.0494 0.28345
339.15 2.93567 0.649432
69.9005 49.6594 0.113201
356.168 40.4995 -0.336021
360.586 24.3749 -0.543771
266.255 30.1592 -0.179071
365.202 36.6253 0.330306
264.464 46.1747 0.500814
200.824 17.4181 0.387198
324.339 70.6937 -0.0709414
437.322 36.3622 0.138226
161.053 6.58179 0.452273
47.7814 8.16961 -0.077955
58.2266 11.2387 0.264492
449.751 23.1921 0.637528
21.0294 13.2018 0.273796
401.071 64.3239 0.456998
435.659 64.5411 0.32396
136.139 40.5358 -0.336527
490.546 71.7953 -0.152958
28.9549 33.6714 0.115142
369.68 4.42575 0.599508
122.386 10.7448 -0.724234
394.896 61.7798 -0.482366
339.76 43.1317 0.190075
147.3 0.976612 -0.34688
28.7455 2.42439 0.416799
276.959 20.0309 0.28161
401.027 73.4576 -0.183646
347.793 66.0396 0.186315
301.814 1.01711 0.361715
457.024 17.6683 0.555988
21.2832 49.7954 0.237691
206.87 53.7954 -0.32208
466.673 12.7945 0.335733
432.892 95.7407 -0.355673
311.207 16.106 -0.559012
388.138 4.15344 -0.426385
470.807 59.3316 0.399676
113.16 7.71873 -0.273942
345.455 34.0888 -0.15565
333.775 30.7127 -0.203845
235.995 18.6485 -0.513342
18.767 15.3742 -0.342568
509.253 91.5958 0.281889
251.679 59.2047 -0.334175
436.652 55.374 0.385047
448.481 35.9212 -0.27703
506.541 14.3206 -0.364033
349.915 68.4317 0.140805
82.9389 41.9875 -0.273539
443.016 76.601 -0.204444
408.632 82.3751 0.114193
509.386 74.567 0.112174
500.839 0.747433 -0.581139
228.614 36.2602 0.521172
426.528 5.6212 -0.150577
22.4595 6.84361 0.655763
100.474 55.6813 -0.15272
355.082 14.7541 0.271251
500.537 58.9735 -0.500514
158.08 32.2485 0.263969
38.3322 40.2171 0.298498
337.797 2.47987 0.144865
195.915 11.0813 -0.401282
470.181 68.7504 0.264347
493.53 58.3642 -0.273476
272.014 37.7432 -0.241141
126.927 38.8164 -0.478751
375.159 54.0681 -0.529685
289.166 36.6669 0.580757
306.944 64.216 -0.106832
288.395 23.6151 0.416101
375.348 17.8575 0.185717
511.605 28.1959 0.175111
71.2251 44.041 0.440158
267.564 5.6857 -0.279383
384.817 11.889 -0.533279
265.706 63.2587 0.490774
22.3539 28.19 -0.487184
27.5177 6.89637 0.598405
385.815 70.836 0.411731
347.013 32.6014 -0.196414
20.9746 43.4951 0.429501
80.9166 32.8897 -0.232648
259.796 16.4044 -0.436723
410.483 24.9582 0.151299
355.365 80.1839 0.0390509
481.701 18.5419 -0.39876
474.898 12.5486 -0.231429
291.441 67.3365 -0.124422
422.877 37.9435 0.151711
199.368 20.3539 0.576018
264.76 4.21717 -0.628871
90.9472 32.8883 -0.421452
102.084 25.4726 0.2968
372.773 58.3934 -0.069821
244.238 20.9052 0.571069
472.072 89.9353 0.10039
435.499 92.905 -0.124037
336.805 32.4412 -0.400757
498.431 32.7577 0.326622
315.021 56.2247 0.232941
220.183 40.0212 -0.308679
431.571 79.4467 -0.283945
221.719 43.3818 -0.405657
393.135 20.4565 0.227399
252.703 56.156 -0.243344
349.233 11.8095 0.690301
278.444 53.9138 0.0959116
308.51 43.3162 -0.122751
239.5 62.7999 0.465267
154.392 34.0449 -0.123901
490.904 86.7553 0.151025
509.726 30.6347 -0.389466
5.87895 12.7879 0.458335
311.723 50.973 -0.445128
33.2274 26.0686 0.0702108
287.32 57.113 -0.48061
298.869 57.0291 -0.256237
63.7682 13.9642 -0.570115
45.6417 39.1347 0.428556
190.198 18.8286 0.446879
410.247 48.8558 0.476056
396.102 32.2934 -0.487425
64.679 24.9481 -0.476639
452.827 93.0212 -0.408857
485.267 2.31304 0.635457
424.25 98.591 0.45106
461.679 4.70066 -0.652791
380.137 42.7353 0.488928
399.263 84.4078 0.443237
358.054 17.4335 -0.670185
514.112 7.22593 0.45251
187.657 29.8344 0.13031
112.694 37.9337 0.200491
204.819 8.66697 0.643446
79.8629 4.88592 0.273258
54.8421 13.2308 0.269961
224.359 50.652 -0.310839
16.7087 28.3595 0.388681
384.902 27.1037 -0.518538
403.847 53.8179 0.256807
328.915 46.0379 -0.3669
511.794 105.514 0.375641
307.047 13.9522 0.177856
328.604 70.5554 0.507202
374.405 3.60671 0.181883
20.8871 25.6823 0.415242
398.301 3.77545 0.647623
378.309 7.51504 0.43457
174.386 12.1884 0.557161
306.599 46.192 -0.193245
250.786 6.95072 0.521561
296.106 38.8934 -0.379649
456.554 68.0645 -0.100437
157.429 29.2373 -0.434627
494.026 6.09579 -0.519686
457.448 63.3453 0.369159
293.766 29.964 0.217599
473.549 2.68851 -0.558231
410.461 34.4299 -0.539861
479.05 33.1524 -0.412395
328.554 79.5311 -0.29185
345.922 13.9287 0.519918
346.443 81.9681 0.225417
319.519 27.0097 -0.18962
426.085 94.8933 0.252655
422.745 96.4529 0.29845
158.709 45.6875 0.360187
504.17 13.0143 -0.273383
396.435 69.8773 0.250827
10.6742 18.9067 0.25636
303.537 52.8111 -0.361746
153.906 28.2329 -0.413032
84.5678 42.8567 0.214549
504.793 55.4159 -0.404797
408.959 99.0314 -0.221971
255.651 28.8802 0.357498
368.92 16.4102 0.5107
74.7965 48.6204 0.181333
207.615 45.4648 -0.487966
381.668 38.2853 0.446923
341.028 23.3124 -0.490414
218.043 0.903386 -0.496729
375.302 63.7522 -0.405689
369.747 53.4793 -0.603049
365.626 80.4269 -0.444291
347.267 2.30387 -0.650037
456.969 35.5865 -0.438797
152.291 14.3777 0.259657
345.292 49.8008 0.528986
380.605 75.9677 -0.112256
62.673 2.24227 0.589304
208.188 4.36384 0.208901
507.991 31.5909 -0.183125
505.389 16.0543 -0.448136
513.637 33.9548 -0.549943
243.519 8.37583 -0.316173
474.87 50.0356 -0.509869
307.879 85.7801 -0.311996
319.224 2.4204 -0.638621
412.694 87.5609 -0.42205
22.7469 37.4944 -0.434366
252.509 63.0481 0.465693
209.58 2.86273 0.585452
502.04 93.5356 0.171221
471.813 102.625 -0.216738
231.488 16.1635 0.321903
426.347 78.565 0.078762
385.45 2.53013 0.361237
375.973 12.111 0.669802
83.1973 19.0544 -0.569592
244.166 0.973807 -0.279094
275.792 2.20056 -0.4002
12.8726 8.32832 0.617464
4.32454 31.8127 0.313753
138.516 20.7752 0.370946
60.7843 49.1103 -0.208337
57.7835 35.9385 -0.354949
309.741 32.6478 -0.564439
279.172 58.5073 -0.49467
488.193 71.9696 0.119229
18.5297 5.00339 -0.289545
59.3509 8.10489 0.121528
414.391 60.3293 0.154567
235.994 0.896119 0.413299
277.259 33.995 -0.0900854
196.74 5.82932 0.436358
423.294 56.2217 -0.191544
325.389 24.724 0.512729
474.722 48.3044 -0.421929
421.767 64.7611 -0.445214
437.877 51.3314 0.0817025
314.077 62.5505 0.472765
92.4044 49.449 -0.313545
368.634 64.0582 0.0674134
482.733 26.8556 0.296359
200.18 42.3163 0.253757
28.9892 20.0436 -0.240091
271.042 15.1715 0.64455
95.4377 42.1325 0.577821
221.729 62.0658 -0.191043
315.871 3.84006 0.253731
503.986 77.3452 -0.490862
458.917 0.754383 -0.631114
267.845 4.07783 0.573577
240.03 29.6921 0.157454
347.941 78.8146 -0.19828
69.8163 9.10205 0.562753
164.16 50.9025 0.37988
492.937 65.5379 0.367402
380.588 87.6783 0.0684415
164.591 46.205 -0.281513
131.605 54.5017 0.435101
512.097 69.7154 -0.396439
509.952 28.8186 -0.60939
417.704 4.53528 -0.630655
158.401 27.8013 0.102188
385.528 54.8305 -0.116658
387.403 55.3503 0.313268
309.346 11.4076 -0.159473
336.471 0.954084 0.537387
485.247 72.668 -0.540437
74.8234 34.5379 -0.28585
427.033 52.7361 -0.517275
221.281 23.2171 -0.455444
8.96101 2.42233 -0.306739
99.8698 51.1553 0.201706
57.6687 26.8305 -0.450373
464.809 88.2727 0.344206
499.058 101.502 -0.196876
150.468 32.8266 0.170379
507.478 25.1111 -0.462731
39.9714 42.3601 -0.269537
79.5562 31.425 0.15177
438.829 17.5558 0.510989
302.974 31.0701 -0.623433
358.901 24.5804 0.160527
202.039 41.5691 -0.154094
431.682 5.19968 0.742223
514.215 29.3032 0.415686
25.3055 38.2461 -0.269682
217.467 15.3201 0.381777
188.035 20.3694 0.367524
1.04699 36.2847 0.158894
191.207 19.8806 -0.386824
179.064 14.1145 0.146674
179.49 31.4697 -0.297236
120.895 32.7039 -0.133032
380.139 23.1477 0.514276
143.969 17.1056 -0.433413
496.935 90.2332 -0.30722
149.674 3.60263 0.511124
41.4464 45.1229 0.331894
475.887 81.788 0.430224
227.232 42.4062 -0.506738
438.76 61.2432 0.456274
498.921 64.2765 -0.589847
241.844 9.22287 0.158153
462.054 54.649 0.335428
265.724 2.80574 -0.492287
307.707 53.4314 0.372374
441.454 46.6947 -0.653413
91.6119 12.8129 0.562611
334.791 6.17632 0.494461
477.402 41.9894 -0.227393
75.1745 7.77368 0.233644
228.311 21.0702 0.239169
312.961 31.0915 0.210472
514.333 3.26059 0.578477
305.972 1.88529 -0.563589
144.315 45.3017 -0.304241
486.661 24.4413 -0.490656
114.111 39.4938 -0.174189
215.271 51.0204 0.482237
299.092 44.4051 -0.238795
395.769 22.0473 -0.392107
294.665 10.0044 -0.533593
351.488 61.3418 -0.450646
487.79 85.044 -0.413855
42.2016 12.6437 -0.15413
241.123 41.631 -0.402809
294.155 57.3063 0.357583
302.368 39.8781 -0.260127
363.198 58.8472 0.435212
479.156 67.7564 0.243665
427.004 87.6467 -0.344134
190.55 40.0806 -0.453596
12.5225 34.7532 0.197173
420.86 97.4036 0.121319
355.062 52.7762 -0.525614
192.395 47.7098 0.10674
447.832 74.8561 -0.106382
130.396 11.9063 -0.387932
280.661 41.0149 -0.26239
348.351 80.9503 -0.126521
301.983 34.1258 -0.196798
483.114 84.5191 0.323803
315.857 14.2516 0.583028
43.0382 30.0006 -0.312429
358.687 74.0435 -0.26685
332.542 76.0414 0.377306
503.942 87.2582 0.265281
465.561 50.0695 -0.252742
376.031 29.6756 -0.178424
496.48 82.0002 -0.45629
236.374 2.3175 -0.461719
291.209 58.496 0.491385
23.9335 45.5021 -0.304547
462.519 56.5129 -0.24516
419.626 24.0296 -0.612916
327.071 1.02324 0.684979
110.528 4.57331 -0.363728
324.629 76.2225 0.124707
11.3512 0.849063 0.32262
512.038 11.2718 0.194766
278.903 65.8431 0.410832
[...]
POINT_DATA 13483
TENSORS Strain_matrix float
0.000214148 0.00703258 -0.0159934 
0.012639 0.00541962 0.0920231 
-0.000835063 -0.000609647 -0.0169916 

0.020321 -0.048082 -0.269714 
0.0115454 0.0011374 0.153714 
-0.00184073 0.00409431 0.0183753 

0.0072903 0.00872909 -0.0379923 
-0.0162906 -0.00702072 -0.0555832 
-0.00311182 -0.00172715 0.00891201 

0.00426072 0.00181855 0.00963752 
0.160694 0.0391834 0.152916 
0.0218143 0.00280869 0.0441644 

0.0714932 0.134319 -0.21769 
0.0148136 0.000948737 0.225695 
0.0336214 -0.0398609 0.0022526 

-0.222894 -0.0681251 8.29662 
-0.0592977 0.198655 -22.6929 
0.00126076 -0.0016454 -0.585042 

-0.0197748 0.0520818 0.212978 
-0.0890072 0.0154012 0.293047 
-0.0320444 0.023611 -0.0708691 

-0.000968656 0.0189243 0.00188148 
-0.00967394 -0.0024184 -0.00399095 
0.000278409 0.000100723 0.00254627 

-0.566234 -0.452007 -0.169522 
0.0703382 0.336097 -0.466459 
-0.0417921 -0.00851535 0.145189 

0.000522714 0.00397017 0.0734813 
0.0219033 0.0652898 0.0563697 
0.00171283 0.00429815 -0.027858 

-0.0697593 0.0148401 -0.544604 
0.0836228 0.0701497 0.474339 
-0.00655642 0.0128559 0.0203468 

-0.00907248 -0.0108822 0.0137845 
-0.0225895 -0.0403477 0.191317 
-0.0254573 0.0107895 -0.00518138 

-5.94828e-05 -0.153612 -0.157422 
0.00903242 -0.0347069 0.0484893 
-0.000133033 0.000868127 0.0135565 

0.00121409 0.0123863 -0.00497967 
0.000845234 0.00286452 -0.00322951 
0.00134659 -6.58366e-05 -0.00451741 

-0.0512098 0.0380292 0.314597 
0.0356136 -0.0169071 -0.375279 
-0.0250286 0.00538747 -0.0264472 

0.0271742 -0.0709982 0.0257951 
0.0620816 -0.0117345 0.0915266 
0.00369441 3.96577e-05 -0.0104362 

0.0290057 -0.0501508 0.0489357 
0.0442067 -0.0183589 -0.0369245 
0.0032474 -0.00598492 -0.00456789 

-0.184049 -0.077901 14.9796 
-0.0848889 0.228586 21.7672 
0.000720697 -0.00169354 0.461441 

-0.225989 -0.15155 -1.72169 
0.0265213 0.216779 30.2692 
-0.0107132 -0.0211482 -2.46179 

-0.0356371 0.0293632 0.092577 
-0.00324685 -0.00351637 0.112377 
0.000787955 4.22036e-05 -0.015509 

0.0209335 0.0699531 0.0636206 
-0.0509966 0.00718928 0.0531294 
-0.0406801 0.0289502 -0.0937006 

-0.277152 0.197419 0.691667 
-0.408292 0.15823 0.163827 
0.00110391 0.00176343 0.0387793 

0.0162209 -0.0139221 -0.0286931 
0.00907014 0.0111751 0.0231451 
0.00203282 0.000989279 -0.0130379 

0.019132 -0.0547836 4.42384 
0.0154503 -0.014532 3.59836 
0.00026878 -0.00125827 -0.360491 

-0.0478913 -0.0266334 0.0954895 
-0.0673633 -0.0423753 1.75923 
-0.00309341 -0.00131321 0.0478188 

-0.146689 -0.219278 -1.78012 
0.312473 0.276525 -1.7846 
0.0024981 -0.0229337 0.109666 

-0.150757 0.287186 1.96707 
-0.336428 0.181679 -4.9501 
-0.0158496 -0.000539008 0.191031 

-0.00752665 -0.000292509 -0.0311247 
0.00439413 0.0100396 -0.0208908 
0.00722964 0.00234963 -0.00619406 

-0.0930507 -0.0672834 -0.243639 
0.0317581 0.0483922 0.303184 
0.029938 -0.0191302 -0.0926159 

0.00342606 0.00788218 0.0319465 
-0.00457051 -0.0020258 -0.0233148 
-0.00058059 0.000200214 -0.0123953 

-0.22759 0.123818 -0.243678 
-0.234745 0.259831 -0.289779 
0.0138641 -0.00681927 -0.0130376 

-0.0211005 -0.0319358 0.0799067 
0.0225704 0.0131348 -0.0173883 
-0.00106261 -0.000833107 0.0187313 

0.00873818 0.000907235 0.0381 
-0.0133592 0.0027242 0.00510543 
-0.00239267 -0.00293768 0.00744382 

-0.132981 -0.107993 -1.54018 
-0.0514738 0.0423874 0.046447 
0.000639742 0.00291858 0.124233 

0.00911611 0.0712767 0.0381966 
-0.0889976 0.000359792 -0.0195412 
0.000724736 0.000914413 -0.00899826 

0.041132 0.0562643 -0.113986 
0.00679952 -0.00332896 0.177787 
-0.00344317 -0.000915383 -0.0878742 

-0.0559558 0.0530616 -1.18119 
-0.0208059 0.0644043 1.45868 
-0.00205369 -0.00595283 -0.00179399 

-0.405267 -0.720516 1.33854 
0.150213 0.496443 0.0278244 
-0.00302167 0.0126415 -0.0374405 

0.00694029 -0.0940125 0.202487 
-0.000924665 -0.143364 -0.112229 
-0.0104989 0.00216349 0.095862 

0.0125114 -0.199196 0.174375 
0.143201 0.022526 -0.0145998 
-0.00263572 -0.0171397 0.0220853 

-0.228279 -0.1496 -1.71665 
0.131893 0.0490501 0.0676972 
-0.0086494 0.00925317 0.0534597 

-0.00439976 0.113456 0.0181362 
-0.153933 -0.000687222 0.0117103 
0.000847017 0.000229358 -0.0104197 

0.00593695 9.5411e-06 -0.0133434 
-0.00989839 -0.00296245 -0.00917192 
0.000581304 0.000982082 -0.0133246 

-0.278843 0.0917037 -0.596926 
-0.180846 0.15189 -0.304521 
-0.0435068 -0.0915536 0.562101 

0.0146253 0.0889223 -0.0737532 
-0.0399809 -0.0671309 -0.0791967 
0.00500596 1.74884e-05 0.0530714 

-0.406057 0.384225 -0.345858 
-0.113334 0.297031 -0.413487 
-0.0121518 -0.213375 0.707869 

0.00268634 0.0248748 0.414308 
0.0457438 0.0371384 -0.0816011 
-0.000738232 -0.000808179 0.0838041 

-0.00548999 0.00079603 0.0110138 
0.000949603 0.000390365 0.0128821 
-0.0132128 -0.00686032 0.00168747 

0.00203525 -0.00397065 -0.0411342 
-0.0343323 0.00799513 -0.0733112 
0.0144394 -0.0340001 0.00981209 

0.000716974 -0.103816 -0.894236 
0.0580348 0.0370353 0.510973 
-0.00552128 -0.00669023 -0.0212834 

0.0413386 0.147042 0.126158 
-0.228823 -0.00506284 -0.643603 
-0.000508864 -0.00377468 -0.0276737 

0.0185208 0.00579215 -0.0398426 
-0.000737201 -0.00789006 0.0394681 
0.000137219 0.00116337 -0.014461 

0.0167645 -0.0627385 0.0239575 
0.0178505 0.0105948 0.10942 
0.0448427 -0.0214955 0.197851 

-0.0324713 -0.00394403 -0.0375611 
0.0122269 0.00351742 -0.00119728 
0.00242886 -0.0030315 -0.00326061 

-0.0818537 -0.0405627 -0.335223 
0.00431376 0.0716304 -1.13937 
0.0014754 0.00452621 0.599449 

-0.0327281 0.0126021 -0.322571 
-0.0227873 -0.00973288 0.0509957 
0.00377122 -0.00574154 0.142707 

-0.237414 0.104377 0.430195 
-0.354976 0.131019 0.184786 
-0.0326723 0.0108906 0.463646 

0.00603347 0.038206 0.0349461 
-0.000360898 0.0138759 -0.0264051 
-0.000553991 -0.00848957 -0.00458226 

-0.0286718 0.0244172 -0.0376932 
-0.000617229 0.000835528 0.0236219 
0.00116277 -0.000693831 0.0473933 

-2.61041e-05 -0.273539 0.435532 
-0.0348592 -0.0690034 0.10374 
-0.0366439 0.0104437 0.113066 

-0.014961 -0.0508606 0.00264114 
0.00993586 0.0311834 -0.0413494 
-0.00323412 0.0018875 -0.0163988 

-0.0126113 0.160122 0.123572 
0.113699 0.0105079 0.0853305 
-0.0152862 0.0255269 -0.181257 

-0.107297 -0.103636 -0.988874 
0.023093 0.0535441 0.587145 
0.00224167 0.107487 0.221726 

-0.00364407 -0.0333773 -0.0054549 
0.0197176 0.0108192 -0.00999671 
0.00131959 0.000189627 -0.00189436 

-0.0377954 -0.0508907 -0.0312266 
0.0183979 0.0308531 0.254218 
-0.00102177 -0.000811018 0.0332446 

0.0653745 -0.218501 0.129226 
0.32299 -0.0889147 -0.302905 
-0.0207223 0.0225221 0.124425 

-0.00377171 0.00381671 -0.00660302 
0.0263443 0.0128674 0.0010505 
0.00158851 0.000197579 -0.00589284 

-0.00149837 -0.00315122 -0.0758602 
-0.0196223 0.00159991 -0.0321677 
3.21108e-05 -0.0101494 -0.0593153 

-0.175817 -0.0752345 2.05742 
-0.00709055 0.149755 -2.34321 
-0.0097574 -0.000355594 0.323025 

-0.0220009 0.00369032 0.156342 
-0.0313822 0.0103657 0.145077 
-0.0834282 0.0859447 -0.0120572 

0.0229744 -0.0109563 -0.00260672 
-3.76505e-05 0.00096922 0.0107175 
0.00072865 0.000128179 -0.0171813 

-0.0369625 -0.0801557 0.0844488 
0.125975 0.00808163 -0.0531565 
0.00716383 -0.00916746 0.169948 

-0.329715 0.0277521 0.0906301 
-0.166119 0.271545 0.633638 
0.00583928 -0.0180552 -0.0124721 

0.0105533 0.0970725 -0.0852939 
-0.17747 0.0190603 0.217774 
-0.00927688 0.0135055 0.11166 

-0.0799408 0.277744 0.916624 
-0.398831 0.155696 0.702955 
-0.0011296 0.024137 0.280554 

-0.00401126 0.00886805 -0.190428 
0.0126671 0.00788956 -0.0147476 
0.000171362 -0.000317937 0.0148899 

0.0167184 0.00406986 0.00275989 
-0.00436407 -0.0040312 0.000651342 
0.00279106 0.00208846 -0.0102676 

-0.00716517 0.0879934 -0.770075 
-0.151078 -0.0152764 0.349719 
0.0244266 -0.00544789 0.068252 

0.0106011 -0.0570049 -0.103572 
-0.117355 0.031019 0.364525 
0.0059992 -0.0018147 -0.0924836 

0.00393715 -0.00576363 0.00661331 
-0.00224758 -0.0104282 0.0158676 
0.000555373 -0.001401 0.0193821 

-0.00393303 0.00625876 0.0216851 
-0.00231658 0.0234163 -0.0167351 
-0.0053639 0.00436162 -0.0173476 

-0.0316123 0.162546 0.4939 
0.124603 0.0366118 0.264414 
-0.000648977 0.00390591 0.0895242 

-0.018471 0.0750468 0.0692265 
-0.0872548 0.0148497 -0.0129274 
-0.00159834 0.000883929 0.0264004 

0.0514722 0.0132599 -0.0126659 
-0.025482 -0.0332865 0.0200151 
0.00420678 -0.00738087 -0.0296457 

-0.0230991 -0.122589 0.150493 
0.0948899 0.0309394 -0.157067 
-0.0292316 -0.0213532 0.0214246 

0.0118346 0.00533978 0.0037108 
0.00625649 0.00393009 0.000801509 
-0.00264682 -0.00117676 -0.0293789 

0.0293957 -0.677335 0.125921 
0.00108027 -0.0335292 -0.0499386 
-0.00109912 -0.0559055 -0.00267157 

0.0867573 0.481524 -0.0143175 
-0.509016 0.0918733 -0.114705 
0.0302872 0.0153091 0.0115865 

0.000317702 0.0222546 0.00592493 
0.000323986 0.00450076 -0.0171171 
-0.00014403 -0.00118126 -0.00192343 

-0.013304 0.00702139 -0.258359 
-0.00508832 -0.000771932 -0.039846 
0.00113698 -0.000478278 0.111549 

0.127542 0.0752913 0.367499 
0.366641 -0.10789 -0.0040788 
-0.0187879 -0.0710266 0.131301 

-0.0174627 0.122743 0.0266123 
-0.107751 0.00090865 0.0637973 
0.0114013 0.00178217 0.00893617 

0.014894 -0.0113991 -0.28657 
0.0167575 0.0031024 0.58588 
-0.00120951 -0.00174708 -0.0477314 

0.0423799 -0.0987932 0.88286 
0.0580869 0.00117703 0.101398 
0.0109269 -0.0260639 -0.168014 

0.00750656 -0.0112369 0.10052 
0.0489142 0.0167931 -0.0468507 
0.0276904 0.00552525 -0.16744 

-0.063304 -0.201662 0.570242 
-0.161586 0.0177183 0.0136964 
-0.0180419 0.00068683 0.0628799 

-0.0421483 0.192838 0.0177266 
-0.191581 0.0364221 0.100283 
-0.00458819 -0.0186346 0.240421 

0.00815519 0.00427882 -0.00234375 
0.00240812 0.0104151 -0.0138887 
0.00417885 -0.00274417 -0.0443895 

0.00520636 -0.0202986 0.0024952 
0.0175072 0.00947605 0.0036307 
0.00019788 0.000427812 -0.0234408 

-0.32691 0.31519 -0.462549 
-0.0905751 0.298859 -0.0461595 
-0.0232072 0.0160798 0.078904 

-0.187698 -0.665153 -2.61053 
-0.0781549 0.222884 1.54583 
0.00306541 -0.00153357 0.045677 

-0.0116694 -0.0440285 1.39168 
0.060551 0.00466034 0.213653 
-0.00273267 0.00017484 0.0577977 

-0.0373374 -0.166708 -0.0756565 
0.229471 0.0145436 0.0470691 
-0.00567399 0.00199383 0.0256974 

-0.126806 -0.182016 -0.192523 
-0.226146 0.0721943 0.474769 
-0.0291451 0.0662516 0.702974 

0.00790643 -0.221319 0.0538186 
0.139095 0.0581838 0.0324285 
-0.0129634 0.00892301 -0.0419754 

0.00115228 0.0343009 -0.0199559 
-0.0545707 0.0432119 0.129334 
-0.0050268 -0.00280466 -0.0305432 

0.00773772 -0.00925809 -0.00171361 
0.00237635 0.00211677 0.0092896 
-0.00554232 -0.0025714 -0.0082995 

-0.00621774 0.0553486 0.00692109 
-0.0890726 -0.000174977 -0.123317 
0.000405446 -0.00190827 0.00908971 

-0.0589843 0.0473469 -0.0286967 
-0.0463056 0.0046561 -0.0268057 
0.00616985 0.000719762 0.046302 

-0.0106128 0.0263042 -0.035589 
0.0276115 0.00219642 0.177623 
0.00326814 -0.000745068 0.0106799 

-0.117783 -0.100909 2.02474 
0.0109858 0.165267 3.71167 
-0.0191731 0.0280829 -0.528669 

0.0184276 0.0209639 0.226735 
0.000694933 -0.0103972 0.24154 
0.00173521 0.00167983 -0.0173957 

-0.00930383 0.019445 -0.236526 
-0.0091058 -0.00107649 -0.0592934 
-0.000392285 -0.0036578 0.0716889 

0.000559878 0.0415307 0.137831 
-0.0618579 -0.0221813 -0.0691901 
-0.0042393 0.00335556 0.0230312 

-0.268024 0.0185587 -1.55947 
-0.0242646 0.218001 0.842604 
-0.00676017 0.00505731 0.00108306 

-0.00708584 -0.0403617 -0.339306 
0.0279836 0.00941348 0.45453 
-0.00165833 0.00139957 0.0225101 

-0.0116017 0.0621246 0.0513919 
-0.0971446 0.0180148 -0.0273063 
-0.0158442 -0.0118983 -0.00207282 

-0.0390051 -0.0273234 -0.0256948 
-0.014947 -0.00233591 0.0221371 
-0.00277292 -0.000227881 0.0186544 

-0.000471997 0.0115914 0.00525257 
-0.00821569 0.0028937 -0.0101712 
-0.000428315 0.00128111 -0.00495081 

0.0160311 0.00712229 -0.0403307 
-0.0120992 -0.018266 -0.0365556 
-0.00151492 0.000576545 -0.00782258 

0.0105587 -0.00831199 0.0052084 
-0.00209695 0.00612537 0.00179394 
-0.00212154 2.92034e-05 -0.0123563 

0.00278005 0.00939961 0.00890889 
0.0219781 -0.00179946 0.00856864 
-0.000215178 0.00142065 -0.0141114 

0.00247523 -0.0741332 -0.0537598 
0.0948364 0.0196876 -0.0408279 
-0.000632602 0.00349555 -0.028365 

-0.0083911 0.057753 0.211679 
-0.0275914 0.0322235 0.10762 
-0.00947538 -0.00546828 -0.0191808 

-0.367139 -0.174279 -5.63212 
-0.0353861 0.250795 2.98286 
0.00454912 0.00739582 0.351304 

-0.0720433 -0.0158808 -0.417095 
0.0362563 -0.0513297 0.0162759 
0.00340427 0.00683235 -0.0031916 

0.00162022 0.0577329 -0.012014 
-0.0601229 -0.00784431 0.0115061 
-0.00034182 0.000949376 0.00786553 

-0.0433887 0.0995109 0.835137 
0.0599004 0.0328924 0.296761 
-0.00536903 0.00821044 -0.0223389 

0.0212842 -0.115327 -0.0159459 
0.1671 0.0050588 -0.102764 
-0.0584056 0.00296421 0.168432 

-0.0183631 -0.142209 0.740224 
-0.0722942 -0.0872835 0.322123 
-0.0101651 -0.0132178 0.161154 

0.0016174 0.00457616 0.000549755 
-0.00595956 -0.000558132 -0.000336234 
9.5181e-05 0.000236562 -0.000529417 

0.00596122 -0.0468669 -0.012288 
0.00922633 0.00765252 -0.0510717 
0.00298374 -0.00245477 -0.0279212 

-0.240818 -0.245292 -0.29419 
-0.654663 0.199229 -0.485077 
0.0167451 -0.00357248 0.140722 

-0.0453095 0.0796078 -0.0545098 
0.172531 0.14025 0.185165 
0.0191079 -0.0244553 0.0498355 

-0.178459 0.0565316 -0.388326 
0.112964 0.18267 -0.504954 
-0.0103102 -0.00700427 -0.0415015 

-0.369806 -0.0899212 -0.561848 
-0.0328194 0.465091 0.818505 
-0.0159879 -0.0289146 0.230786 

0.0296787 -0.0258909 -0.0479834 
0.0105893 -0.0117682 -0.0225088 
-0.038127 -0.0131513 -0.0424021 

0.108979 0.447963 0.0147097 
-0.474637 0.100792 0.248287 
-0.00389489 -0.0286218 0.15675 

-0.0112852 0.0136249 -0.0331005 
0.00140587 0.00415458 0.0130081 
0.00273148 -0.00306514 0.00247313 

0.0092556 -0.0218024 -0.209432 
-0.153488 0.00676366 0.166387 
0.00187668 -0.0105244 0.101957 

0.0228061 0.0955028 -1.38263 
-0.0613158 -0.00360937 0.812394 
-0.00352314 -0.00113381 0.149818 

-0.00343976 -0.203898 -0.0568685 
0.259515 0.0391442 -0.0398186 
0.0109708 0.0150893 0.0120204 

-0.0320001 0.0175507 0.0648993 
0.0501901 0.00738603 0.0487186 
-0.0275521 -0.0116967 0.105476 

-0.412771 -0.327832 -5.85421 
-0.199544 0.109295 -2.71093 
0.000676917 0.00585242 0.789578 

0.0172732 -0.0582576 0.0155237 
0.0689353 -0.000362475 0.026697 
-0.000539663 -0.00312826 -0.0292941 

0.0367609 -0.0172247 -0.105404 
-0.000755632 -0.0207555 -0.0281835 
0.00119637 -0.000927292 -0.0166521 

0.119218 0.00103646 0.148845 
0.0290985 0.00908258 -0.0792673 
-0.00328381 0.00274064 -0.0496077 

-0.00635376 0.00315448 0.00274668 
0.00235709 -0.000213254 -0.0196305 
-0.000879743 -0.000635452 0.00727852 

-0.0680039 0.164988 0.313621 
-0.118205 0.0551007 0.0411427 
-0.0383406 -0.0130133 0.109105 

-0.0820786 0.0504462 -0.125492 
-0.06666 0.0568815 0.101492 
0.00131344 -0.00287501 0.00152206 

-0.106545 -0.0641088 6.09849 
0.0658382 0.128553 5.71906 
0.0102958 -0.00602241 -0.0157419 

-0.0930768 0.139334 0.891073 
0.0862111 0.0697112 1.03349 
0.00442946 -0.0090152 -0.0581351 

-0.0536524 0.147141 -1.51283 
-0.0503322 0.0490153 -0.00612861 
0.00684029 0.000562301 -0.00352181 

-0.0691612 -0.134518 -0.629488 
0.114129 0.123008 0.0496045 
0.0402658 -0.00244016 0.223124 

-0.141996 0.226495 0.918069 
-0.245174 0.186725 0.84234 
0.00528644 0.0101612 0.297688 

-0.0272819 -0.0222407 -1.68998 
-0.00432922 0.0230663 0.482256 
-0.00620647 -0.00396806 0.0380243 

0.00666852 0.00773836 0.135725 
-0.00703832 0.025319 -0.00717753 
-0.00248893 -6.86161e-05 -0.0339101 

-0.054762 0.00427083 -3.39158 
0.0032911 0.0576936 0.226716 
0.00292628 0.00977893 0.132127 

0.00201798 0.319999 -0.0798053 
0.0600231 -0.14874 0.572072 
-0.00221177 -0.00385683 0.0658014 

0.00794609 0.0917669 0.0553437 
-0.0716526 0.00199489 -0.150182 
-0.0037739 0.00191443 0.0320229 

0.0275266 0.0587715 0.103196 
-0.0609229 -0.0179425 0.346026 
-0.00156322 0.000865831 -0.00814828 

-0.00708583 -0.0130002 0.119618 
0.0204347 0.0331949 -0.0399154 
0.0466104 -0.00614615 -0.0970512 

-0.109549 0.223403 -0.982439 
-0.128672 0.144243 -0.327188 
0.00231856 -0.00160719 0.0756955 

-0.207291 0.0124173 0.687989 
-0.122132 0.136663 -1.09751 
-0.0287275 0.0227427 -0.60394 

-0.0373401 0.0115561 -0.24742 
0.000635057 0.0526369 1.47535 
-0.000194875 -0.0017025 0.0535108 

0.0234367 0.00875149 -0.00917913 
-0.0139043 0.0034115 0.0161327 
-0.00486945 -0.00055428 -0.0171737 

-0.0271778 0.0489252 -0.231201 
0.319406 0.0948462 -0.174215 
0.00248547 -0.00197561 0.00540167 

-0.188546 -0.611491 -0.674848 
0.386351 0.335476 0.904848 
-0.00818262 -0.0553763 0.260711 

-0.0927249 0.0928032 0.391349 
-0.0292219 0.0271643 -0.131978 
0.0475366 0.0222032 -0.0172249 

-0.0108632 -0.0182007 -0.0159357 
0.0052995 -0.00289971 -0.0165125 
0.000916426 0.000138153 0.0140712 

0.0265939 -0.124155 -0.134223 
0.203502 0.0220746 0.0117326 
0.000799746 0.000702003 -0.00790859 

-0.0179241 0.325366 1.34629 
-0.373046 0.146849 -0.167827 
-0.0204117 -0.021286 0.0769028 

-0.000994035 -0.00716692 -0.0477229 
0.026328 -0.0235446 0.0222844 
-1.44094e-05 0.000924412 0.0295081 

-0.0153418 0.00593113 0.0241209 
-0.00380863 -0.00644018 0.0143588 
-0.000836422 -0.00104851 0.0364529 

0.0100945 0.0123588 -0.13935 
0.0155983 0.00641162 -0.0130401 
-0.00272012 0.000687708 0.00322194 

-0.0212619 -0.117361 0.0678566 
0.0898573 0.0282283 -0.117004 
-0.00591092 0.0012156 0.044952 

-0.00123837 0.00360138 0.0167421 
-0.00449783 0.00438357 0.00484429 
0.000412247 0.000449331 -0.0135202 

-0.432772 0.224992 0.478873 
0.169332 0.328866 1.20739 
-0.0100313 0.0440909 0.255814 

0.0181473 0.129904 -0.270405 
-0.135472 -0.00142209 0.277786 
-0.00112891 0.00116317 0.037608 

-0.00760594 0.00977078 0.0192928 
-0.0234507 -0.00761968 -0.016821 
0.00174793 -0.00024043 0.00936147 

-0.00471857 0.000191826 -0.0419646 
-0.00481597 -0.00494514 0.0576233 
0.00208067 0.00101181 0.0330204 

0.0171325 0.00587953 -0.0395774 
0.0107284 0.00301785 0.00651766 
0.00163069 -0.0019535 -0.0139943 

-0.00962562 0.00255859 0.0261494 
-0.0160194 -0.00215563 -0.0551942 
0.00103859 0.00120696 0.00347509 

-0.131087 -0.0330604 -0.789278 
0.190538 0.0645889 1.43675 
0.0363218 0.0397928 0.128983 

-0.167462 0.176116 0.609232 
-0.0997334 0.179136 0.422707 
-0.0150574 0.000592456 0.0601737 

-0.0364827 -0.0313135 -0.0164601 
-0.0383539 -0.00889186 -0.00641074 
-0.0531247 0.0142592 0.218724 

-0.316029 -0.516635 -0.857366 
0.595298 0.496429 0.549537 
0.00241818 -0.00660664 0.132092 

0.0135089 0.0343573 -0.0096422 
-0.0133945 0.0064367 -0.00376029 
0.000997903 0.00182004 -0.0327902 

0.0690928 -0.346494 -0.539801 
0.0578546 -0.0455182 -0.00572996 
0.0104841 0.0117486 0.148017 

0.0312288 0.0067026 -0.0286293 
-0.00274535 0.00986209 -0.0278558 
-0.00148193 0.000515919 -0.0120962 

0.0193676 -0.0125023 -0.0430736 
0.00857189 0.00841719 -0.0118142 
0.00488784 -0.00203523 -0.0566291 

-0.0513712 -0.103845 -0.235215 
0.198434 0.0144178 -0.043006 
0.00271359 0.0010349 0.0906003 

0.00697218 -0.0803561 0.0881307 
0.0722155 0.00115383 -0.423858 
-0.0035903 0.0250616 0.047825 

-0.0113108 0.0215752 0.0267814 
-0.0138425 0.00419057 0.0239798 
-0.000204417 -0.000227409 0.0158151 

0.00927826 -0.0362692 0.174398 
0.0306291 0.0385709 -0.115619 
-0.00402304 0.000395795 -0.00958592 

0.0406604 0.122548 0.26914 
-0.122178 0.0152131 -0.0472652 
-0.00288547 0.0022755 -0.0108165 

-0.000235709 0.146586 0.00847512 
-0.0797481 0.00374642 0.0330121 
-0.00108526 0.00221636 0.00511819 

0.0915617 0.0536588 -0.165364 
0.0475742 -0.0545036 -0.231113 
-0.0906294 -0.0587312 0.4415 

-0.244096 -0.0703022 0.671551 
0.000727526 0.171802 -0.436731 
0.00257343 0.00284935 0.0678233 

0.00288592 0.0475893 0.0503299 
-0.111812 -0.0314167 0.298849 
-0.0071684 -0.018004 -0.164647 

0.0117196 0.0681739 -0.0410232 
0.0194839 -0.0200172 0.0136693 
-0.00143814 -0.000925645 0.0237083 

-0.020582 -0.00938732 -0.00121116 
0.0730355 0.0104218 0.0663455 
0.00604596 -0.00204773 0.019714 

0.0311947 0.0117756 0.00526067 