# vtk DataFile Version 3.0
Output file generated by Yade's KinematicLocalisationAnalyser
ASCII
DATASET UNSTRUCTURED_GRID

POINTS 13483 float
440.808 41.6955 -0.452453
528.164 83.7004 0.453082
106.679 5.96408 -0.452373
556.745 8.44252 0.6704
383.375 9.29339 0.464117
268.627 39.6182 -0.623359
138.751 8.64659 0.474391
431.696 12.3625 -0.24397
380.625 32.9454 0.165795
506.875 19.6506 0.523001
184.433 8.76264 -0.150174
223.579 7.03516 0.392579
459.9 80.2067 -0.146558
471.954 18.4599 0.120135
121.919 19.0563 0.447773
192.714 36.3468 -0.403808
190.786 13.4347 -0.371086
250.711 10.9871 0.539717
287.05 39.4848 0.588841
403.336 8.49233 0.565667
339.686 68.9208 -0.115583
440.659 84.0828 -0.253561
544.453 68.4578 -0.503424
495.67 87.6109 -0.536881
357.704 36.3146 -0.350412
205.924 52.369 0.124996
374.711 42.5698 0.53169
439.671 29.5131 -0.268519
39.8133 16.6364 0.536147
518.675 87.9514 0.373207
369.382 9.30275 -0.568198
15.5779 26.2834 -0.290346
538.363 91.3878 0.286232
379.253 2.86689 0.62072
70.7207 47.2034 0.112087
396.339 39.4897 -0.394246
401.204 23.6575 -0.526566
293.951 26.8434 0.245493
404.724 35.0281 0.356533
293.371 41.7893 0.527214
212.483 16.1287 0.292051
357.543 62.1265 -0.0712668
478.93 36.1506 0.138457
168.418 6.43964 0.392544
48.3147 8.1237 -0.0872863
59.3323 9.48662 0.308342
491.194 23.0575 0.666767
21.1678 13.1226 0.276004
441.429 63.9673 0.470097
476.851 63.6615 0.331445
146.69 37.9212 -0.360367
531.928 71.0935 -0.160048
28.8425 33.3828 0.119369
410.985 4.40511 0.60208
127.701 8.29988 -0.45528
435.233 61.383 -0.450773
379.503 38.8476 0.144253
153.632 0.987942 -0.351658
29.0555 2.42902 0.397035
300.928 19.9323 0.25008
441.889 73.0985 -0.177474
381.442 60.163 0.180487
328.507 1.03791 0.233388
498.655 17.4311 0.558904
21.6645 49.7277 0.23625
222.472 40.8762 -0.354363
508.206 12.3997 0.358077
475.083 93.9953 -0.364673
343.067 12.3615 -0.693337
429.685 4.02916 -0.377976
512.526 58.6591 0.408564
117.21 7.67681 0.287635
382.854 32.7953 -0.123111
369.791 24.6611 -0.224428
256.571 16.7245 -0.418496
18.8909 15.2869 -0.340988
550.391 90.8955 0.30109
281.191 53.5334 -0.314747
477.474 55.0369 0.383292
490.012 35.6493 -0.286031
547.914 14.126 -0.373572
382.776 62.2682 -0.006329
84.3205 40.7436 -0.269245
485.001 75.3496 -0.234331
450.388 81.2751 0.111103
550.545 73.8968 0.111458
542.292 0.748326 -0.588504
251.546 30.4373 0.455894
468.123 5.64116 -0.159642
22.6376 6.77547 0.653463
111.978 51.7828 -0.146569
395.31 15.0588 0.241912
541.932 58.1186 -0.505051
168.478 30.3808 0.26085
38.4028 39.2238 0.288062
377.802 2.53219 0.197975
207.906 10.4018 -0.375377
511.957 68.0163 0.275833
534.945 57.6588 -0.28044
302.497 34.1932 -0.247341
138.022 33.9192 -0.469194
414.96 53.074 -0.5442
320.689 31.5045 0.515156
340.359 54.1558 0.100764
317.81 19.0256 0.422698
416.554 17.8286 0.167107
552.777 27.3212 0.186515
72.3243 41.7618 0.424665
291.114 5.62093 -0.238037
426.27 11.8002 -0.53873
297.669 58.5293 0.486859
22.3249 28.028 -0.46669
27.7699 6.83886 0.579236
426.294 69.4388 0.398753
384.887 31.9229 -0.177258
21.2234 43.4065 0.425872
82.8449 31.5622 -0.239083
283.13 16.5162 -0.427768
451.855 24.9241 0.153378
388.573 73.4619 -0.114858
523.166 17.9899 -0.410509
516.44 12.0984 -0.240685
324.045 57.6578 -0.131843
464.283 38.0146 0.133101
210.904 18.1799 0.581878
288.225 3.8236 -0.31361
93.0674 32.2304 -0.415487
104.982 25.4724 0.260528
412.689 57.7267 0.000426545
267.16 20.0647 0.507235
514.004 89.3024 0.100912
477.547 91.2528 -0.126721
375.346 28.2318 -0.4071
540.113 32.0441 0.320213
349.24 47.3197 0.227782
241.488 29.2451 -0.328669
473.799 77.6507 -0.309735
242.063 33.7128 -0.394936
434.431 20.4171 0.2259
282.569 50.573 -0.223042
389.836 11.7672 0.698316
308.77 46.7383 -0.110196
343.599 35.9245 0.0981584
268.443 55.3891 0.440303
164.918 32.4641 -0.131187
532.337 86.1247 0.153288
551.109 29.8655 -0.457462
5.90643 12.7839 0.453959
346.967 42.7375 -0.454218
33.4068 25.7106 -0.0681686
318.053 48.4039 -0.514124
330.993 47.2053 -0.268817
65.8685 12.3705 -0.521164
45.5199 37.768 0.524034
199.961 15.4798 0.43772
451.107 48.6167 0.48588
437.254 32.007 -0.484597
65.7098 22.7676 -0.531972
495.099 92.2076 -0.405031
527.22 2.23072 0.605225
466.372 96.4367 0.460088
502.614 5.02637 -0.666438
421.046 42.8052 0.404939
440.831 82.4172 0.440377
397.993 17.8253 -0.710721
555.138 7.20164 0.470965
197.627 26.7441 0.123381
114.661 37.7083 0.228385
218.047 8.01939 0.531153
83.6159 4.85207 0.266305
56.1806 11.8734 0.269281
241.29 41.3354 -0.33036
16.6562 28.2218 0.373126
425.915 27.0636 -0.509549
444.547 53.6635 0.27885
365.417 38.6606 -0.353029
552.854 104.813 0.379874
337.909 8.95515 -0.194761
361.708 62.6152 0.518183
415.763 3.53968 0.188204
20.8585 25.5217 0.417864
439.859 3.76547 0.648531
419.705 7.53915 0.43193
182.737 11.2784 0.528042
341.352 39.1131 -0.184344
273.562 6.86715 0.504765
329.424 31.7385 -0.381002
498.528 67.4575 -0.104189
167.697 27.4603 -0.447673
535.622 6.06109 -0.52513
499.379 62.7541 0.384539
324.392 23.8593 0.1852
514.599 2.72577 -0.492639
451.642 34.322 -0.523173
520.642 32.6406 -0.419927
360.717 71.7758 -0.307979
386.24 13.7587 0.519358
379.639 74.5825 0.237842
354.844 19.6184 -0.149446
468.49 93 0.248024
464.891 94.3452 0.302057
169.27 43.9722 0.35321
545.605 12.8341 -0.309656
437.153 69.6 0.268222
10.7008 18.8604 0.267398
337.456 45.541 -0.346022
164.157 26.4685 -0.391044
85.8809 41.7682 0.207576
545.997 54.7185 -0.467801
452.32 97.7752 -0.22112
278.214 28.9116 0.351329
409.889 16.0603 0.508275
75.6526 46.6248 0.184621
220.806 33.455 -0.502224
422.724 38.2716 0.430166
379.917 22.3689 -0.469842
231.406 0.934438 -0.490945
415.346 62.7312 -0.383973
409.394 52.7961 -0.558907
398.622 73.6473 -0.459142
387.846 2.09995 -0.64557
498.551 35.2711 -0.437224
158.636 13.7262 0.2166
384.07 47.4577 0.424206
420.973 74.401 -0.117181
64.8597 0.964296 0.331238
221.57 4.34749 0.222209
549.339 30.7963 -0.280699
546.739 15.7633 -0.50191
554.656 33.0441 -0.583755
266.56 8.68175 -0.288912
516.541 49.3572 -0.520317
339.882 75.738 -0.31195
357.945 2.20344 -0.464499
454.757 86.0673 -0.436848
22.7924 37.3554 -0.433873
281.59 57.3124 0.478684
222.996 2.95254 0.561669
543.395 92.9166 0.17098
513.672 102.025 -0.216721
252.795 12.3248 0.350921
469.199 76.6206 0.0952519
426.819 2.54752 0.380884
417.308 12.0812 0.672308
87.018 19.1562 -0.521704
266.819 1.13751 -0.273999
300.129 2.36769 -0.324374
13.0193 8.33248 0.603554
4.32049 31.8473 0.314654
144.286 20.7878 0.331546
61.8231 46.1114 -0.211155
58.137 33.4696 -0.337324
343.88 26.2105 -0.491972
310.375 50.9801 -0.492539
529.658 71.253 0.126379
18.6861 4.90474 -0.28749
62.0553 7.68736 -0.136281
455.202 59.1379 0.15931
258.621 0.933775 0.488471
308.162 30.1033 -0.0843414
209.3 5.14822 0.477251
464.358 55.39 -0.169
361.049 18.2137 0.545971
516.384 47.6195 -0.435796
462.613 64.3347 -0.29296
478.941 50.9802 0.0924923
348.36 52.993 0.478174
93.5165 48.8774 -0.313109
408.304 63.732 0.0808506
524.292 26.2525 0.30776
211.985 35.4791 0.254502
29.1332 19.9019 -0.22627
294.894 14.9964 0.598727
97.0246 41.8921 0.568237
236.285 50.2246 -0.214073
350.652 3.48901 0.35324
545.226 76.7116 -0.498209
500.322 0.754975 -0.628086
291.544 4.00536 0.567376
263.322 28.0257 0.185774
381.526 71.4609 0.0294385
72.6953 8.78285 0.536233
175.174 48.8502 0.379642
534.427 64.8089 0.362653
414.403 78.1782 0.0647603
175.372 44.1545 -0.277775
140.392 50.5186 0.453574
553.107 68.9645 -0.389902
551.166 27.9871 -0.622394
459.333 4.4368 -0.630048
167.273 25.7405 0.105576
425.015 53.4169 -0.128552
426.54 54.5581 0.338494
342.45 6.94172 -0.173169
374.78 0.747827 0.296298
526.717 71.9839 -0.546138
76.6715 32.5833 -0.288082
468.18 52.0076 -0.510532
241.289 16.5858 -0.453632
9.01694 2.4171 -0.309522
111.491 47.1159 0.202021
59.0359 25.4376 -0.474346
506.767 87.5703 0.336953
540.136 100.761 -0.20518
161.024 31.557 0.196877
548.84 24.5197 -0.477542
39.9471 41.1221 -0.296664
81.6037 29.996 0.153623
480.198 17.5582 0.529569
336.8 25.5891 -0.539696
399.404 23.8346 0.123915
213.15 33.798 0.225992
473.31 5.20953 0.746343
555.399 28.3709 0.426875
25.3634 38.0405 -0.270937
238.134 8.37673 -0.32089
197.869 17.2605 0.358102
1.05123 36.3278 0.15981
200.888 16.4819 -0.426166
188.699 11.2654 0.126572
189.202 28.2856 -0.274414
122.201 30.8773 -0.127647
421.181 23.108 0.518322
149.858 17.0494 -0.42596
538.292 89.5734 -0.310774
156.003 3.63859 0.49931
41.7345 43.326 -0.346546
517.475 81.1704 0.426918
247.461 35.4877 -0.450652
479.451 60.8164 0.471154
540.351 63.4369 -0.57555
264.792 9.33353 0.199292
503.81 54.0307 0.334121
289.466 2.53165 -0.442956
342.04 44.6265 0.361615
482.908 46.6851 -0.650101
95.5744 12.7202 0.559856
374.565 5.20535 0.445482
519.107 41.2769 -0.234566
78.9706 7.76686 0.233248
248.493 16.0333 0.212607
346.503 25.1452 0.287271
555.416 3.28165 0.600379
333.041 1.80745 -0.666456
154.877 43.8724 -0.261449
528.174 23.7987 -0.502867
116.185 39.0576 -0.202393
231.199 38.5505 0.442136
333.424 35.8129 -0.225406
437.055 21.9913 -0.400823
323.375 10.2375 -0.585202
385.087 55.4107 -0.541146
529.361 84.2566 -0.397312
42.6828 12.6762 -0.134381
262.369 40.5917 -0.261007
324.854 47.8079 0.398052
336.033 32.1575 -0.309159
402.485 57.8889 0.406394
520.773 67.0568 0.255951
469.149 85.7534 -0.360015
200.91 36.5766 -0.336089
12.5347 34.7663 0.19596
463.014 95.2738 0.117736
394.324 51.6832 -0.469314
204.361 42.3033 0.0995005
489.695 73.8308 -0.122054
136.277 11.4557 -0.360671
311.421 35.1948 0.272467
381.563 73.6801 -0.155552
336.367 28.2777 -0.205185
524.496 83.7293 0.333492
349.009 9.44663 0.431313
43.5914 29.5819 -0.302304
391.771 67.2682 -0.372271
364.918 68.5822 0.385363
545.102 86.5616 0.265976
507.279 49.4486 -0.25504
416.757 29.7211 -0.170159
537.779 81.3261 -0.456526
258.55 2.16833 -0.539128
322.636 49.194 0.505194
24.269 45.3534 -0.300674
504.322 55.8861 -0.246251
461.036 24.0188 -0.60787
365.665 0.826379 0.684382
114.462 4.61557 -0.371865
357.083 67.7422 0.131325
11.4116 0.856646 0.321311
553.098 11.2553 0.238051
311.604 58.1157 0.424593
464.689 6.50301 0.550346
[...]
POINT_DATA 13483
TENSORS Strain_matrix float
0.0147913 -0.16776 0.19705 
0.0465215 0.0170986 0.13911 
-0.00235268 -0.00246737 -0.00426482 

0.00544607 0.0094828 0.00361788 
0.0601958 0.0106577 0.0934347 
-0.00063095 -0.000190501 -0.0419351 

-0.0109564 -0.0072187 0.00661705 
-0.00348861 -0.0257913 -0.0116962 
-0.00158566 -0.00159397 0.0643969 

-0.0332764 -0.0139563 -0.0435383 
-0.0944369 0.143899 -0.224552 
0.0315725 0.00522129 0.0568564 

-0.0717388 -0.00229762 0.0036195 
-0.0826397 -0.00403705 0.0335366 
0.00050207 -0.000286776 0.0286979 

-0.095436 -0.143657 2.72615 
0.0463587 0.0756565 17.489 
-7.28542e-05 -0.00495553 0.900365 

-0.0754119 0.0293245 -0.0814392 
0.0116932 0.0227776 -0.152142 
-0.0539038 0.0287967 -0.160259 

-0.035492 0.00108511 0.0444983 
0.0028557 0.00812056 0.00044165 
0.00262289 0.00239785 0.0154659 

-0.0701518 -0.0626222 0.0800794 
-0.0363791 0.0999088 -0.66708 
0.00452212 -0.00104584 0.0506961 

-0.0313463 -0.0514928 0.250343 
0.0393291 0.0663651 0.244839 
-0.00878249 0.00813753 -0.0179437 

-0.0444467 -0.0520015 0.0214456 
0.0442086 0.00338364 -0.000809197 
-0.000280585 -0.00117676 0.0728033 

-0.0701302 0.0720925 0.247189 
0.00535309 0.0534135 -0.283592 
-0.00126023 -0.0293214 -0.0579525 

-0.363245 -0.282294 -2.56623 
0.175605 0.323484 -0.0930786 
0.00801733 -0.00959758 0.0705868 

-0.0277511 -0.0322401 0.0215723 
0.00456721 -0.00839236 0.00459909 
-0.00411585 -0.00231923 0.0426952 

-0.0808709 -0.0188818 -0.0302503 
0.0454473 0.0697372 -0.273672 
-0.00792349 0.000367963 0.0879758 

0.0136473 -0.0203789 0.0232509 
0.0108477 -0.0057605 0.0136049 
-0.000849372 -0.000898767 -0.0229412 

-0.0771257 -0.0999292 0.053865 
0.0934196 0.0373458 -0.0634234 
0.0295075 -0.102908 0.317637 

-0.0488421 0.0105817 -0.11445 
-0.0109884 -0.0125338 -0.0881787 
0.00891167 0.0221309 0.0539772 

-0.193337 -0.268657 -3.99595 
0.0871655 0.172457 2.45239 
0.00320523 0.00548873 -0.306126 

-0.0107893 0.00150336 0.0834577 
-0.00444886 -0.00129877 -0.124008 
-0.000456519 -0.00119454 0.000173726 

0.0170374 0.0485403 -0.0446092 
-0.0483416 0.0185024 0.0648668 
-0.000948124 0.013116 -0.071907 

-1.42829 -0.67568 2.61497 
-1.21437 -0.481256 1.68282 
-0.0074502 0.0475687 0.136066 

0.0228225 -0.0770333 -0.116951 
-0.0278975 -0.0419456 -0.210848 
-0.00888641 0.0066273 0.0346527 

-0.0380537 0.0505904 -21.3371 
0.00364336 0.0510276 -1.28585 
0.000757064 0.00142424 0.281284 

0.00503255 -0.0271955 0.675008 
-0.0280674 0.00893533 -0.391663 
-0.00167852 -1.62057e-05 -0.0669483 

0.00569809 -0.344403 0.124472 
0.382362 0.0688541 -0.11392 
0.0250995 0.00686977 0.477419 

-0.0669522 0.215437 7.75674 
-0.105874 0.14776 -3.57708 
-0.00188526 0.00343215 0.176274 

-0.0293675 -0.016398 -0.00145178 
0.0111244 0.00493249 0.0204823 
-0.00254585 -0.00153212 0.016497 

-0.0236999 -0.0156457 -0.191309 
-0.0638013 0.0306 0.283124 
-0.0290176 0.0242387 -0.00661648 

0.0194036 -0.0172709 0.0208797 
0.00853115 -0.00827638 0.0146731 
-0.00136502 -0.000837845 -0.0140122 

-0.260849 -0.039052 0.205874 
0.07709 0.0651762 -0.309368 
0.00107521 0.0148485 -0.0142913 

-0.0398273 -0.0140302 -0.0173659 
0.113007 0.0472148 -0.0164533 
0.000908591 0.00254075 0.0218837 

0.0112683 0.0229354 0.00115177 
-0.0328894 0.00343516 -0.00664459 
0.00114988 -0.00121115 -0.00943545 

-0.181102 -0.0787552 3.49184 
-0.139536 0.238275 -1.90995 
-0.0318128 0.0182591 -0.194714 

-0.00481104 0.0222149 -0.0070842 
-0.0208691 -0.000833746 -0.00330331 
-0.000230086 -0.000548062 0.00415873 

0.0444637 0.0771115 0.0412251 
-0.135268 -0.0927948 0.179706 
0.00783602 -0.0338514 0.0971033 

-0.0499203 -0.00560426 -0.619433 
0.000542378 0.0088974 1.09974 
0.00124501 0.0015909 0.192845 

-0.394464 -1.57847 -0.110519 
0.0885418 0.39598 0.287477 
0.00429569 0.00255538 0.0599379 

-0.0361324 0.125417 -0.0854582 
0.0222494 0.0341594 0.0210645 
0.00333657 -0.00100538 0.0648904 

-0.168396 -0.168777 0.0786693 
0.392417 0.0955109 2.25667 
0.0116923 -0.00853923 0.0684461 

-0.123959 -0.0583345 -0.328509 
0.0798708 0.0764946 -0.271485 
0.0405522 0.0898653 0.344294 

-0.0197616 0.0716184 0.356578 
-0.217965 0.0385689 -0.0358631 
-0.0172163 0.0134693 0.0835057 

-0.0288994 -0.040297 0.0490096 
0.0864481 0.00697257 0.0688926 
-0.00177607 -0.00574355 0.0715719 

-0.0430315 0.0195804 0.00200754 
-0.0191892 0.0251575 -0.239722 
-0.00216116 -0.00545963 0.0181531 

-0.0066689 0.0152909 -0.0117291 
-0.000252815 0.00269361 0.0201681 
0.000483464 -0.000755828 0.0120318 

-0.00685128 0.00261502 0.00934624 
0.00225646 0.00027127 0.000711598 
0.000350256 0.000531968 0.0138453 

0.00605922 -0.0979268 0.370475 
0.0941274 0.010759 -0.360317 
-0.000544506 -0.00605225 0.175806 

-0.0720286 -0.0493213 0.0193104 
0.00658898 0.0417699 -0.0112196 
0.000861908 0.0610023 0.143221 

-0.033549 0.141044 0.367564 
-0.17317 -0.0387615 0.516552 
0.00202928 0.00348518 0.165664 

-0.0515881 0.0945165 -1.18729 
-0.12934 0.108785 2.11012 
0.0186234 0.00776412 0.0294006 

-0.0273203 0.0625976 0.201384 
-0.0297148 0.0354316 0.491675 
-0.0458114 0.0137568 0.14789 

0.007265 -0.012113 0.000798282 
0.00792405 -0.00524071 0.0739502 
-0.000470395 0.00158431 -0.00759729 

-0.00919687 -0.00412719 0.00931807 
0.0150917 -0.00153835 -0.0214005 
0.00185044 -0.00136777 0.0244457 

-0.0351281 0.0199225 -0.128161 
-0.0572336 -0.0358134 -0.115608 
0.0111133 -0.00120455 0.0429927 

-0.0734762 0.0635844 0.103859 
0.0661641 0.149131 0.0592806 
-0.00836129 0.00432381 -0.0218902 

-0.0476602 -0.342045 1.46106 
-0.209782 -0.0804085 2.25823 
0.00894715 0.0155131 0.191676 

0.0107336 -0.885695 -0.254131 
0.0346819 0.0160662 0.972782 
0.0400222 -0.00405588 0.0476627 

-0.0537051 -0.188533 -0.323839 
-0.0290438 0.00213908 0.160654 
-0.00709428 -0.0494011 0.107429 

-0.130096 0.0497879 0.0970333 
0.0780666 0.0616635 0.133755 
-0.0679116 -0.103328 0.878951 

-0.150975 0.14179 0.051607 
0.00816641 0.0353482 -0.13738 
0.00306707 0.0246222 0.0661129 

-0.346564 0.000405149 0.264787 
-0.162038 0.0724252 0.46219 
0.0729427 -0.0169279 0.320534 

-0.0105216 0.074844 0.444318 
0.0176763 0.0363679 0.172034 
-0.000147934 0.00990207 -0.0578573 

-0.0240117 -0.0718671 0.0830336 
0.0101493 -0.0127535 -0.127192 
-0.000817562 -0.00366573 0.173383 

-0.0774318 -0.00931647 0.81983 
-0.018591 0.0661686 -0.808076 
-0.00843702 -0.0310738 0.00167944 

0.00240484 -0.00868595 0.0164358 
0.00850058 -0.000949923 -0.0136685 
0.000395193 0.000297666 0.00161028 

-0.135223 -0.216512 0.198482 
0.0809278 0.180359 0.0861455 
0.0685117 -0.0715378 0.686651 

0.0257627 -0.0391219 -0.000779924 
0.0687777 -0.0138054 -0.0229008 
0.00172748 0.00140556 0.00817794 

-0.0456065 0.174082 -0.746529 
-0.115054 -0.00222733 -0.577512 
-0.00609104 -0.0262412 -0.0075681 

-0.0791413 -0.0808761 1.73176 
0.103841 0.176197 -14.085 
0.00319191 0.000277101 -1.10741 

-0.0390386 -0.0194959 -0.0154923 
-0.0123081 -0.000618254 0.0319338 
-0.000796819 0.00197086 0.0315123 

0.0889059 -0.0790347 -0.00330499 
0.0357754 -0.00292488 0.0614609 
0.00598111 0.00582675 -0.0489942 

-0.0181618 -0.033053 0.00800146 
0.0234995 -0.00441482 -0.0376268 
0.00258756 0.00388973 0.0695874 

-0.199844 -0.0682507 0.568981 
-0.0676262 0.105163 -0.0387687 
-0.0246674 0.0115089 0.075665 

0.0360089 0.258115 0.0391059 
-0.278249 0.00876601 0.0943892 
0.0252759 -0.00758988 0.0878619 

-0.0627765 -0.019097 -0.236337 
0.0440465 -0.0136362 -0.0281731 
0.0109496 0.0218432 0.146318 

-0.0247386 -0.014208 -0.0851479 
0.0360132 0.0152318 0.105555 
0.017607 -0.00587676 0.143992 

0.000620326 0.0716259 -0.0535902 
0.019591 -0.0297874 0.108085 
-0.00180108 -0.0020381 0.00396561 

-0.0993081 -0.00814703 1.39577 
-0.00288473 0.0978509 1.10411 
-0.0283848 0.0237955 0.0201608 

-0.062944 -0.290802 -0.277613 
0.184489 0.115984 0.539006 
-0.00520414 -0.000510952 0.0665425 

-0.0176284 -0.0375194 -0.0202936 
0.0535793 0.00442711 -0.0225702 
-0.00081939 -0.000954603 0.0181152 

-0.221526 0.0791309 0.187713 
-0.0738211 0.0664723 -0.462499 
0.000401159 -0.00920691 0.131213 

0.00423293 0.0666621 0.226103 
0.0293329 0.0229988 0.102812 
0.0280343 -0.00615419 0.279852 

-0.0113678 0.0185931 0.260886 
0.108955 0.0208709 -0.0322192 
0.0136475 -0.00474915 -0.0657295 

0.0011183 0.0225312 0.0158197 
-0.0293682 0.0125263 -0.0261467 
2.89322e-05 -0.00250572 -0.0209917 

0.0648975 -0.409576 -0.284808 
0.293219 0.0381496 -0.00700949 
-0.0467037 -0.00641051 0.00901235 

0.0143804 -0.0197637 0.00978269 
0.004158 -0.00162148 -0.02605 
-8.14908e-05 0.000167581 -0.0252023 

-0.0291848 -0.0115686 0.167626 
0.00130423 0.00222791 0.218369 
0.000208082 -0.0847998 0.00555494 

0.016049 0.0467184 0.0429357 
0.0185588 -0.00122781 0.00436252 
-0.0149715 -0.0265308 0.0305491 

-0.0417789 0.016216 -0.0585619 
0.0537054 0.0207124 -0.0931967 
0.00506465 0.00104671 0.0446625 

-0.0362656 0.0211511 0.828671 
-0.0410139 0.0153102 -1.29113 
0.00604426 -0.00768967 -0.561681 

0.0062787 0.0200492 0.0266518 
0.0274769 -0.0116098 0.274831 
0.0782031 0.0490166 0.669062 

-0.193095 -0.0577226 0.183752 
0.0322763 0.114027 -0.194571 
0.0241754 -0.103238 0.2643 

0.0711531 0.0106452 1.23851 
-0.0174324 -0.0875561 -0.372491 
0.00169967 0.000544476 -0.0165792 

0.0189563 -0.163888 0.344491 
0.0314797 0.047 -0.342113 
-0.000136586 0.00088514 -0.0194117 

-0.00431527 0.00265463 -0.0133055 
-0.012251 -0.000663453 -0.0401542 
-0.000258368 -0.000467194 0.00210254 

-0.272633 -0.303595 -0.20926 
-0.0542983 0.362011 -0.0530578 
0.0219568 -0.0164302 0.0792265 

-0.0473804 0.077472 -0.113731 
-0.00252393 0.0376751 -0.051186 
0.000249246 -0.00505701 0.0159051 

0.00423587 -0.00881348 -0.0152796 
0.0383418 0.00428752 -0.0118655 
0.0014323 -0.000960085 -0.0213379 

0.00801782 -0.175126 0.364408 
0.140025 -0.0517847 0.123958 
0.00288335 -0.00541876 0.0885427 

0.282655 -0.100144 0.788991 
0.811446 -0.0951284 0.296898 
0.0116661 0.0114815 0.0846387 

-0.0977845 -0.26995 -5.52892 
-0.160688 0.0431575 1.36934 
0.00139433 0.00884361 0.223298 

-0.02927 -0.0513626 0.0305171 
0.0737444 0.0122694 -0.318659 
0.000144585 0.00985825 0.103486 

0.0766959 -0.0441952 0.0726124 
0.0443944 -0.0180226 -0.00767231 
0.0170516 0.0182093 -0.0815497 

-0.0635203 0.704763 -0.909117 
-0.668204 0.304397 -1.07861 
0.078547 -0.075252 0.425961 

0.0903207 -0.0976108 0.0463519 
0.0845445 -0.0261703 -0.0307332 
-0.0129717 -0.00452399 -0.0202434 

-0.0189604 -0.152716 0.222483 
0.0308665 -0.00804573 0.048887 
0.0777528 -0.0590381 0.0654854 

0.0134965 0.0144454 0.000164904 
-0.0358496 -0.00295444 0.00660531 
-0.00193411 0.00173968 -0.0328885 

0.00118413 0.0251791 0.0214349 
-0.0167901 -0.00486772 -0.0783813 
-0.00113431 0.00157823 0.0291266 

-0.049238 -0.0172663 -0.0645473 
-0.0211207 -0.00764905 -0.0446602 
-0.00600037 -0.00286972 0.0573359 

-0.0351025 0.031547 -0.20099 
-0.0429281 0.0431732 -0.0382261 
-0.0129365 -0.0132666 0.230567 

-0.242398 0.424737 5.11577 
0.0242749 0.320694 4.27171 
-0.0360376 0.039872 1.44899 

0.00140601 0.0085568 -0.134808 
-0.00179952 -0.00289095 0.06358 
0.000886625 7.30888e-05 0.0261809 

-0.0913207 -0.0156758 0.622842 
0.0309664 0.0607594 -0.0411431 
0.00116046 -0.0140825 0.176265 

0.00294449 -0.0668779 0.000150752 
-0.0317035 0.0146998 0.0521307 
-0.155582 0.0219363 0.109745 

-0.172675 -0.00101431 0.819009 
-0.115467 0.166739 0.836034 
0.00490591 0.0346404 0.0594379 

-0.00489717 -0.0117008 0.0834835 
0.00940052 0.00168807 -0.0852083 
-0.000449494 -0.000679878 -0.0028655 

0.00538789 0.00688416 -0.0558797 
0.0231366 -0.000642654 0.0107288 
0.0115105 0.0174235 0.0236859 

0.00835708 -0.0599583 0.111783 
0.0574082 -0.0112544 -0.219568 
0.00179701 -0.0048853 0.0283506 

-0.0620956 0.0293435 0.0373743 
0.00177755 0.0227355 0.0247414 
0.00288914 0.00325471 0.0552543 

-0.0546325 -0.051856 0.178002 
0.0611233 0.0477168 0.0191058 
0.000943475 -0.00166917 0.0278377 

0.0337658 -0.0151554 -0.00797914 
0.0351119 -0.0019337 0.00100906 
0.00202433 0.00231001 -0.027844 

0.0695107 -0.0824826 -0.102941 
0.252709 -0.07476 0.155175 
-0.00162107 0.0223626 -0.0608688 

0.0147422 -0.0678809 -0.00415303 
0.0981212 0.0110241 0.00749255 
-0.00223252 -0.105705 0.490341 

-0.0715556 -0.137463 0.376052 
-0.371607 -0.0350503 0.0593407 
0.00300517 -0.00668256 0.177709 

-0.0374339 -0.0194456 -2.32962 
0.0675898 0.0506677 -0.269806 
0.00772374 -0.00254688 0.0763924 

-0.0334537 0.0405148 -0.0734152 
-0.000389058 -0.0234642 -0.0391241 
0.00848568 -0.00105745 0.0216397 

0.00281326 0.015146 0.0141703 
-0.0623885 -0.0142004 0.0766339 
0.010596 0.0175338 0.13115 

0.0107615 0.0392699 0.216994 
0.193227 0.00820573 -0.619329 
-0.00339213 0.000193404 0.0219847 

0.0355756 -0.102727 -0.0491978 
0.0595501 0.0100862 0.0632888 
-0.00300499 0.00114727 -0.0652463 

-0.0137908 -0.036457 0.142189 
-0.000604735 -0.0218847 -0.0919086 
0.000764693 -0.000209002 0.0219523 

0.00544045 -0.0126652 -0.0288574 
0.0187218 -0.00780197 0.0183536 
-0.0697352 -0.0708608 0.344245 

0.00453219 0.0778295 -0.00576159 
-0.0880561 0.0076526 -0.0298337 
0.000682252 -0.000683764 -0.00567906 

-0.078315 -0.0348574 0.084594 
-0.0591804 -0.021791 0.276844 
-0.010162 0.0193232 0.361739 

-0.0537451 0.148144 -0.051952 
-0.270777 0.161232 -0.258683 
0.0185265 -0.0165035 -0.0874332 

-0.14344 0.550961 1.18205 
-0.316269 0.355807 -1.34171 
0.000684453 -0.000840239 -0.0421254 

-0.126053 -0.193547 0.0218822 
-0.0207947 0.192322 0.638435 
0.0220711 -0.00379093 0.0703477 

0.0143672 0.0176473 0.0110775 
-0.0752104 0.0432063 -0.182472 
0.00409678 0.00422211 -0.0513351 

0.0275466 0.222006 -0.317575 
-0.216539 -0.00239772 0.453563 
0.00534034 -0.00339736 0.0306922 

-0.0285092 -0.0193872 -0.079181 
0.019423 -0.00450905 0.0244428 
0.00473156 -0.00220298 0.0393798 

-0.339381 0.0390206 1.17405 
-0.13378 0.0567724 2.02855 
-0.0146385 0.0300685 0.597733 

-0.0095018 0.00855309 2.47745 
-0.0412561 -0.00173416 -0.00445897 
-5.4401e-05 -0.00103507 0.0334799 

0.0156249 -0.217388 0.039412 
0.219106 0.03093 0.00303327 
-0.00332555 0.00046398 0.00779526 

0.0879876 0.368317 -0.0341296 
-0.394458 0.0852017 -0.0417141 
0.0215075 0.0222216 0.00783034 

-0.20593 -0.117694 4.24083 
0.122215 0.481325 7.50479 
-0.00248328 -0.00825663 3.5931 

0.011223 -0.0425785 0.000993854 
0.0573414 -0.0162719 0.0534816 
-0.00721659 0.00329219 0.065576 

0.011351 0.0171382 0.0110228 
-0.012782 0.00322765 -0.00235301 
0.00109432 0.000556016 -0.0297689 

0.0170305 0.0366142 0.0352719 
-0.0300623 0.00992534 -0.00158622 
-0.000733964 0.0001736 -0.00563447 

-0.0146662 -0.0300642 -0.0483298 
0.0368213 0.0169928 0.0163365 
0.000308891 0.00235252 0.00665326 

-0.191061 0.254284 -0.939259 
-0.0247629 0.19665 0.339878 
0.00997243 0.004553 0.00816915 

-0.0696946 -0.0369647 -0.0136985 
0.00447165 0.051598 0.0443368 
-0.00388273 -0.000151933 -0.0232039 

0.0116011 -0.219562 -3.52025 
0.112453 0.0454627 1.87056 
-0.00268102 0.0121596 -0.182836 

-0.0336016 -0.277886 -1.97051 
-0.0825956 0.217934 0.189808 
0.00653519 0.0343562 0.138778 

-0.00958863 0.0011353 -0.00510528 
0.00840179 0.00174569 0.0248027 
0.00325639 0.000482299 0.0179362 

-0.0123942 0.00901238 -0.204747 
-0.0114426 0.00192517 -0.170604 
0.000586301 -0.00127647 0.0169936 

-0.023778 -0.0122239 -0.0288538 
-0.00281912 0.0078134 0.0168395 
-0.000170737 -0.00064687 0.0112689 

-0.0171649 -0.0620236 -0.0110825 
0.0550642 0.0194886 0.288984 
-0.00163648 -0.00189575 0.067241 

-0.0258031 -0.0255083 -0.0713199 
0.0471887 -0.0334976 -0.00568113 
0.000866471 -2.20412e-05 0.069711 

-0.00744853 0.0217531 -0.432347 
-0.000601513 0.00862684 -0.149717 
-0.000221101 9.58664e-05 0.0285494 

0.00824813 0.00276992 -0.044317 
-0.0142581 0.0144945 -0.13975 
-0.0005393 -0.000344464 -0.0309806 

-0.0527531 -0.0456669 -0.00284981 
-0.00506432 0.0424274 0.0659541 
0.00967845 -0.00886118 0.0114312 

0.0662946 0.37352 1.74348 
-0.579252 0.100428 3.43941 
-0.00245301 -0.0469222 0.473705 

-0.0593276 0.0937534 0.858054 
0.0354049 0.0396899 -0.208974 
-0.00187507 -0.000758423 -0.0122943 

-0.362297 0.0988352 -0.359765 
-0.216263 0.29025 0.113778 
-0.0146483 0.0446364 -0.269875 

-0.438902 -0.116612 -4.9065 
-0.218249 0.0717093 -5.47252 
-0.0439217 -0.0259105 -0.559825 

-0.0591719 0.0592589 -21.8842 
-0.0522502 0.0626872 2.32796 
0.00336609 0.00239446 0.748132 

-0.0240317 0.194569 -0.0928735 
-0.16571 0.0841876 -0.0337128 
-0.00509012 0.00718751 0.010358 

-0.000442294 -0.0133613 0.0221874 
0.0201905 0.0211651 0.00788628 
-0.00014379 -0.000566655 -0.0252317 

0.151588 -0.406593 0.730633 
-0.112322 -0.105461 0.448405 
-0.0112974 0.101923 0.458731 

-0.10916 0.057949 -0.513613 
0.0304678 0.068667 -0.259015 
-0.0240583 -0.0182282 0.0457027 

-0.0129484 0.00105977 0.00601385 
0.00334165 0.00570429 0.0159018 
0.00135692 0.000417721 0.0146459 

-0.0124831 0.00612074 -0.0277768 
-0.00128301 0.00152236 -0.0234369 
0.000442776 0.00188985 0.013498 

0.0107824 0.0526109 -0.384429 
-0.224779 -0.00639605 -0.0381597 
0.000595485 0.00056713 -0.01507 

-0.00850714 0.0290504 0.128042 
0.0438763 0.0267319 -0.103584 
-0.00218767 0.000516607 0.0338847 

-0.0160019 -0.0094486 0.0185311 
-0.00532609 -0.0104872 -0.0136283 
-0.00257705 -0.000694573 0.0397937 

-0.0132856 -0.03733 0.0758761 
0.0532897 0.00466938 0.0838806 
-0.00166423 -0.00183053 0.00667278 

-0.209811 -0.273859 2.29541 
-0.781871 -0.13064 0.486999 
-0.00891844 -0.00132433 0.0356049 

0.00839538 0.0142076 -0.0278922 
-0.0146431 -0.00726955 0.00536756 
-0.00119086 0.000456505 0.0124757 

-0.0461761 -0.0300938 -0.0338692 
-0.0358917 0.0498082 -0.176732 
-0.000671077 0.0777506 0.249498 

0.00678453 0.160585 0.120778 
-0.22998 -0.0451131 0.0179589 
0.00702229 0.0127882 0.384069 

-0.283739 -0.148205 -0.287452 
0.375861 0.213135 0.127804 
0.00968787 0.000278461 0.0572711 

-0.000894173 0.0111811 0.0717329 
0.0139878 -0.00653573 -0.131863 
0.000154532 -0.000288234 0.0246163 

-0.0734472 -0.0322519 -0.26346 
0.0204041 0.0265751 0.0873835 
0.000203039 0.00650843 0.0316316 

-0.0414952 0.0759112 -0.39371 
-0.12842 -0.00296661 0.081733 
0.0139857 0.002434 0.0733513 

-0.0344676 -0.0443623 0.0615713 
0.0256292 0.00428484 -0.563941 
0.00415012 0.00639025 0.110751 

0.0689289 0.31624 0.326021 
-0.493576 0.249286 -0.303339 
0.0286169 -0.0482527 -0.135123 

-0.0960543 0.0498947 -0.341858 
-0.0618569 -0.07801 0.0409885 
-0.0102937 -0.00667934 0.221874 

-0.0679483 -0.536956 0.381186 
-0.0258887 0.108818 -0.567952 
-0.0378111 0.0175959 0.0484933 

0.000988984 -0.00649455 -0.00187066 
0.00442659 0.00455396 0.0128177 
0.000899823 -0.00043951 -0.0119333 

-0.0153503 -0.185423 -0.18394 
-0.0886006 0.0527665 -1.01296 
0.00486736 -0.00199767 0.0405023 

-0.00622703 0.0157005 -0.0144944 
0.0139396 -0.0181807 -0.00627968 
0.00746262 -0.00197077 0.020078 

0.00588805 -0.0171852 -0.0228784 
-0.00410648 0.0126906 0.0270929 
3.71687e-05 0.00168069 -0.0285266 

0.0584176 -0.201383 -0.0390725 
-0.255574 0.0141045 -1.80525 
0.0403409 0.03497 0.119504 

-0.375821 0.123446 0.202661 
0.0778461 0.243366 0.365917 
-0.031004 0.0224383 0.194292 

-0.0906643 -0.0687855 0.253178 
0.0609611 0.0373703 -0.081986 
0.00766223 -0.000734962 0.14022 

0.00545422 -0.157505 0.0861873 
0.154083 0.0360072 -0.124329 
-0.0407914 -0.00345003 -0.0275159 

0.0230493 0.224825 0.0225328 
-0.217009 0.0364684 -0.0375129 
0.00146084 0.00114045 -0.00539832 

0.0119494 0.00186658 -0.0112339 
-0.0230591 -0.008758 -0.00458221 
0.00171571 0.00327325 0.00110102 

-0.0341068 -0.184223 -0.103536 
0.128632 0.0257854 0.154458 
-0.000348376 -0.0101454 0.0531376 

-0.281165 -0.158774 0.0773761 
0.142916 0.286666 0.452938 
0.00826811 -0.021129 0.167839 

0.062132 0.103289 0.753165 
-0.288963 0.0417173 1.01099 
-0.0179837 -0.0957376 0.929385 

0.279158 0.336048 0.278698 
-0.929714 0.0172629 1.07957 
-0.0847824 0.0131524 0.211234 

-0.129331 0.0694832 0.581346 
-0.10031 0.143001 0.58281 
0.0301079 -0.0169458 -0.201019 

-0.000102934 -0.0836466 -0.0267188 
0.223031 0.00892394 -0.234554 
-0.0198011 0.00323061 0.0641975 

-0.264726 -0.0277752 0.439302 
-0.49033 0.119427 0.558512 
-0.0310792 0.0258565 0.126967 
