# vtk DataFile Version 3.0
Output file generated by Yade's KinematicLocalisationAnalyser
ASCII
DATASET UNSTRUCTURED_GRID

POINTS 13483 float
631.262 29.5549 -0.417023
807.814 56.5581 0.54503
123.251 6.08544 -0.478158
838.617 4.81232 0.544176
516.066 7.75616 -0.280948
323.893 35.0135 0.279012
160.627 6.86167 0.425288
590.637 10.3358 0.149573
513.194 23.9382 -0.14531
752.398 13.3276 0.557995
216.123 8.87708 -0.122214
264.169 6.30858 -0.261178
681.993 30.7251 0.17251
659.297 13.9863 0.0711328
140.749 17.215 0.446412
227.584 34.4356 -0.394118
223.646 12.9462 -0.281996
297.127 9.54532 0.384366
350.723 32.8042 0.303978
541.945 8.59781 0.347442
423.722 36.5468 0.102665
613.422 45.4501 -0.270878
829.715 40.427 -0.474962
732.125 45.6716 0.431013
473.814 16.1592 0.284507
247.698 44.1118 -0.122878
507.813 27.8089 -0.485611
608.379 20.337 -0.235287
46.1299 15.5542 -0.459713
756.282 39.6102 -0.349655
498.385 4.93331 0.314069
17.0011 23.589 -0.301503
820.08 59.6289 0.29478
511.758 2.50653 0.471665
80.1185 44.337 0.106356
539.465 31.2647 -0.381064
548.323 16.7532 -0.41717
353.931 22.3942 0.1859
551.756 25.6886 -0.315223
361.271 33.2215 0.469932
247.901 14.5615 0.304837
448.316 35.7687 0.0692821
707.109 8.4976 0.135446
198.105 6.22491 0.373227
56.7849 6.93685 -0.130487
70.3448 8.82518 -0.270543
724.156 8.81787 0.495648
23.8785 11.6939 0.277291
635.283 45.279 -0.360772
710.991 25.4705 0.332376
177.358 32.3178 -0.315792
807.781 43.0671 -0.156581
35.8625 28.18 0.119366
552.509 3.00988 0.318573
145.925 7.43838 -0.500034
617.012 34.6817 0.458405
521.234 27.2289 0.122213
179.646 0.942672 -0.267762
33.3717 2.39521 0.304619
359.211 17.743 0.266699
646.95 45.6292 0.132888
477.528 33.4621 0.188709
412.071 1.02765 0.196172
735.933 10.2907 0.447397
27.3176 43.1912 0.23569
263.82 30.5695 -0.320136
751.792 8.2406 0.183633
702.753 47.5124 -0.362296
431.142 8.54263 -0.499159
591.479 3.68776 -0.328093
784.495 35.9675 0.442736
134.355 7.59752 0.289384
515.864 26.3368 -0.134972
494.078 14.7149 -0.164052
303.379 16.6822 -0.331187
21.0053 13.6629 0.224957
830.68 54.7318 0.307626
343.068 38.7201 -0.278479
708.05 21.9098 0.328269
723.91 12.6444 -0.258812
826.515 12.7075 -0.270073
481.017 34.402 -0.168417
94.8735 38.8271 -0.28668
719.966 35.972 -0.245564
677.419 38.7671 0.104284
836.564 45.201 0.104534
820.226 0.741599 -0.585188
299.983 28.9068 0.45344
647.818 6.29788 -0.111539
24.7757 5.2769 0.526679
136.818 38.0472 -0.144089
531.268 14.6632 0.219095
816.271 32.8188 -0.500765
201.342 28.5996 0.250318
45.5657 34.5254 0.279402
510.665 1.16648 0.136461
243.049 8.87068 -0.365433
787.679 46.2524 0.256265
807.618 32.729 0.211868
373.241 20.5573 -0.273493
168.931 26.7853 -0.467769
571.012 38.5834 0.405862
393.181 15.4318 -0.397706
428.147 29.6477 -0.113106
391.087 4.56511 0.404656
569.123 10.7583 -0.0938554
840.206 17.2855 0.232024
82.3857 39.2603 0.393477
346.613 4.83785 -0.186587
583.992 9.57341 -0.363843
372.672 43.7753 0.446141
26.4508 25.2308 -0.466803
31.0323 5.69908 0.337185
591.961 33.0399 -0.420903
524.412 24.8961 -0.142418
27.1227 37.2186 0.408696
95.7158 30.8666 -0.236899
336.321 15.9205 -0.295992
626.67 18.9313 0.121661
493.365 38.0255 0.314175
769.422 7.94444 -0.549058
761.506 6.19631 -0.193944
401.21 37.0577 -0.0978742
665.67 24.668 0.108346
246.419 16.8792 0.466182
341.694 3.71484 0.461598
106.65 31.6134 -0.400333
119.8 24.1128 0.25654
566.092 38.7501 0.0663785
316.854 18.8273 0.492312
751.422 41.8513 -0.100078
706.768 46.3668 -0.136579
499.856 20.5069 -0.365523
804.369 13.1596 0.263348
445.201 23.5641 0.23771
287.019 24.385 -0.292848
708.514 33.6685 -0.35762
289.095 28.4901 -0.399156
602.105 12.2074 -0.21738
344.089 35.4016 0.202511
525.275 11.6191 0.493304
380.875 31.4313 0.0934783
447.582 16.6297 -0.103099
330.045 41.8289 0.347077
197.46 29.8487 -0.124467
812.607 56.6448 0.0441816
837.476 18.6808 -0.344729
6.15261 12.2698 0.44687
451.592 22.362 -0.404562
39.4836 22.6734 0.0764734
391.153 31.2945 -0.34323
411.094 24.472 -0.272501
77.3039 11.838 -0.480012
53.5938 33.1504 0.390037
234.407 13.4895 0.417152
648.369 39.264 0.400238
604.435 21.568 -0.473994
77.548 20.9199 -0.485998
734.484 49.4539 -0.417723
796.652 2.4008 0.513653
694.793 42.2436 0.480207
730.462 2.49667 0.359062
575.363 27.3508 0.417937
615.01 45.5587 0.440502
534.955 18.3394 -0.401344
837.622 2.99171 0.348539
232.222 24.5715 0.11242
132.241 35.0493 -0.197395
256.855 6.49087 0.393595
97.6669 4.44992 0.266524
66.5936 10.0212 0.20266
286.702 35.8877 -0.327937
17.6006 25.2324 0.353059
581.376 19.1679 -0.414084
634.884 40.2274 0.236988
483.333 21.0922 -0.373799
839.281 66.1562 0.365919
424.101 8.54729 -0.102185
454.892 36.1496 -0.0609767
561.177 3.46907 -0.181858
23.8128 23.6559 0.377542
604.638 4.48824 0.421603
571.358 4.30764 -0.291551
214.298 11.3659 0.473411
443.588 16.2142 -0.198141
324.136 6.32658 0.335966
404.749 18.8234 -0.332175
774.296 47.44 0.108806
199.416 25.923 0.447676
812.542 6.42577 -0.36197
774.458 43.318 0.391809
399.841 10.2351 -0.160731
750.037 2.50053 -0.475163
635.061 26.0154 -0.422206
776.086 19.6278 -0.396974
450.102 42.7839 -0.301625
519.774 12.6051 0.440526
486.301 44.2188 0.218878
465.604 8.61317 0.126635
698.273 42.594 0.330567
696.65 37.1906 -0.307616
199.744 38.8921 0.347013
824.438 11.8995 -0.144517
617.312 46.0747 -0.246576
11.6765 17.2201 0.226038
425.703 24.9626 0.331874
194.9 23.0701 -0.404591
96.522 39.6892 0.211678
813.55 30.3965 -0.457267
691.852 46.2684 -0.248627
332.743 25.4282 0.349306
557.897 10.2712 0.313066
85.2508 44.486 0.171222
258.03 25.8536 -0.454514
584.425 23.7752 0.373111
509.902 18.4537 -0.403625
273.777 0.890589 -0.343448
580.505 40.3931 -0.370021
559.414 40.7996 -0.473866
504.548 33.2724 -0.356955
522.757 0.894731 -0.571003
738.38 22.9367 -0.386559
186.883 12.0836 -0.16685
524.393 37.3951 0.4532
592.89 40.0363 0.128744
75.8499 0.939872 0.275593
262.339 4.72563 0.175478
835.712 19.4078 0.207898
825.655 14.4695 -0.570333
841.564 22.6972 -0.490445
316.484 8.60492 -0.227799
782.218 27.8191 -0.441428
425.606 41.32 -0.309198
469.97 0.817799 -0.397672
684.214 37.5431 -0.553575
28.0856 30.9223 -0.293813
345.237 41.1636 -0.547295
263.211 2.86139 0.327431
825.145 59.1574 0.19797
753.525 54.5087 0.237491
299.734 10.9286 0.223279
703.086 31.3966 -0.0946265
585.945 2.57117 0.264342
569.05 6.37883 0.421591
100.801 18.4124 -0.504958
316.364 1.03784 -0.225519
358.484 2.27079 -0.360689
14.2737 7.65189 0.402016
4.53793 31.2359 0.269097
168.693 18.727 0.416011
71.0548 41.6311 0.221936
69.3234 28.8027 -0.327892
443.321 14.3505 -0.43716
383.931 34.977 -0.482277
805.302 44.4287 0.130606
20.0431 4.04092 -0.266472
73.4738 6.86766 0.126204
658.65 37.594 -0.152949
307.545 0.919736 0.359722
381.365 15.8952 -0.133816
245.835 4.60841 -0.40183
688.422 22.3929 -0.190801
473.195 8.39455 0.409426
782.575 26.0966 -0.383545
664.727 28.0325 -0.314211
706.91 19.8445 -0.119128
440.147 26.9374 0.520049
106.302 44.8055 0.31772
569.713 42.3406 -0.0804039
774.173 13.9831 0.356998
248.152 30.1716 -0.246216
33.1535 17.2614 0.179083
351.54 13.707 0.499183
111.993 40.5696 0.468896
279.49 42.2779 -0.217382
445.58 1.13011 -0.234662
824.476 44.4156 -0.381161
723.044 0.701335 -0.546789
347.18 3.22314 0.527017
313.467 26.6056 -0.162866
485.068 41.0126 0.220308
85.0932 8.02437 0.323208
206.374 45.0353 0.377038
812.402 37.9669 0.34888
519.373 39.6639 -0.0991865
208.804 41.1047 -0.262811
167.869 42.2432 0.303904
839.691 41.4909 -0.469323
838.633 17.3063 -0.594854
638.479 3.47751 -0.485175
198.433 24.4676 -0.114783
577.203 28.1324 0.100287
579.159 27.6404 0.266891
428.768 5.59236 -0.140966
505.54 0.923468 -0.290383
802.729 46.0534 -0.526412
88.518 31.0898 -0.21749
694.011 19.2963 0.400347
286.685 15.4111 -0.360408
9.79821 2.39108 -0.332248
130.775 36.6881 -0.197297
69.7221 23.0624 -0.492223
743.774 41.9551 0.30948
825.272 67.3869 -0.214819
193.701 28.342 0.179132
833.341 15.3979 -0.459142
46.9305 36.4654 -0.271385
94.6842 29.1447 0.156982
669.472 12.9417 0.407842
433.807 17.4403 -0.569298
545.024 16.7943 0.117496
248.844 28.2608 0.183666
655.325 4.42641 -0.405171
842.145 18.0138 0.516275
30.9741 31.8606 -0.284008
282.335 7.69236 0.191023
232.027 15.1026 0.254888
1.07633 35.8079 0.151807
235.393 14.5522 -0.373089
221.081 10.9572 0.141284
223.925 26.2411 -0.269034
138.862 27.8834 0.124421
575.733 14.8819 -0.372368
174.462 14.1533 -0.353075
819.42 57.9463 -0.331595
181.738 3.80347 0.508055
49.291 37.4655 -0.398494
779.989 55.0523 -0.425557
293.9 31.7138 -0.393607
716.071 25.7242 0.452899
821.381 38.0267 -0.436308
314.508 9.22312 -0.105877
773.203 35.1598 0.404381
344.013 2.59079 -0.381532
436.227 23.6389 0.37202
712.748 16.98 -0.556731
110.457 11.9128 0.430272
507.29 3.76485 -0.528042
784.759 22.5717 -0.215278
92.2654 7.89276 0.220985
294.612 14.5779 0.212176
444.185 11.5895 -0.205484
836.054 3.65769 0.538318
417.106 1.94169 -0.528618
184.596 38.8563 -0.279319
776.923 10.1107 -0.383367
134.069 36.1968 -0.167229
275.212 31.3185 -0.387288
419.99 21.5464 0.204498
604.577 13.9092 -0.365973
405.845 9.80316 -0.480256
479.415 27.6311 -0.407892
808.872 56.4445 -0.447278
49.404 10.938 -0.112889
313.013 38.0568 -0.262877
397.955 27.01 -0.345514
429.846 20.6856 0.243203
548.067 44.8849 0.356304
795.961 42.9622 0.238597
700.61 37.4679 0.351159
235.97 34.2086 -0.379113
14.3661 31.9346 -0.159421
695.117 38.4166 0.128055
535.158 42.2128 -0.332444
240.13 39.076 0.107509
724.335 33.5238 -0.115551
157.855 9.2744 0.207096
384.128 20.7753 0.291386
486.836 42.1137 -0.105715
434.007 19.1056 0.19917
804.477 57.3435 0.326851
447.13 3.43826 0.437162
51.7369 25.3234 -0.328654
493.767 31.8304 0.339263
456.626 42.1747 0.371562
825.255 52.5359 0.239658
770.818 31.0131 -0.242986
569.728 18.7796 -0.152487
816.626 50.247 -0.452275
307.066 2.21259 -0.46047
396.881 29.2417 0.510349
30.344 38.9648 -0.30364
776.183 35.1321 -0.219424
643.257 19.798 -0.457321
486.396 0.778594 -0.473262
131.713 4.547 0.274198
447.875 40.2196 0.100222
12.24 0.914509 0.316657
835.723 6.24613 -0.126325
388.298 39.0294 0.400546
[...]
POINT_DATA 13483
TENSORS Strain_matrix float
-0.0958883 0.017526 -0.029979 
-0.103586 0.0943448 -0.513048 
-0.019601 -0.0336078 -0.458627 

-0.139568 -0.0672051 -12.7086 
0.0453556 0.264171 4.63246 
0.00113335 0.000562198 0.596994 

-0.0159545 -0.00116673 -0.198496 
0.00194404 0.00693177 -0.230791 
0.00979327 0.0096313 2.26509 

-0.224532 -0.155418 -1.67963 
0.153645 0.211143 -0.0617817 
0.0284662 -0.0175943 5.86914e-05 

-0.106793 0.0147121 -0.100282 
0.0387753 0.0878544 -0.306144 
0.000346356 0.0745369 0.354684 

-0.0111804 -0.00961813 -0.0104426 
0.00405186 0.00368588 -0.0162697 
-0.00331758 -0.00282137 0.0254924 

-0.0140845 0.00265592 -0.00537719 
-0.0035579 0.00450513 -0.0039339 
0.000961113 0.00047433 0.000573063 

-0.0217479 -0.0122191 0.00304224 
0.0160352 -0.00103456 -0.00527756 
-0.00369788 -0.00270304 0.0281821 

-0.0928124 0.0027127 0.337477 
-0.0233172 0.0663415 0.661258 
0.00074029 0.000454501 0.0258763 

-0.102287 0.161489 3.48893 
-0.155619 0.064746 1.31678 
0.00209573 -0.0026697 0.0645256 

0.00126334 -0.00331018 0.0450565 
-0.0104337 -0.00276592 -0.0240607 
0.0497004 -0.0114533 0.299213 

-0.0118604 -0.00177451 0.00602438 
0.0024424 0.00324782 -0.00124431 
0.000510132 0.000282263 0.00386621 

-0.0386375 -0.019728 -0.00861228 
0.05712 0.0218463 -0.328922 
-0.0496159 -0.0066619 0.0851587 

-0.00615544 0.00139366 -0.014968 
0.00733114 -0.000898191 0.00283478 
-0.000990987 0.00025541 0.0184369 

-0.0109592 -0.00172349 -0.00219197 
0.000947302 0.00363721 -0.0378735 
-0.000687288 0.00287932 0.0334886 

-0.00630109 0.00438319 -0.273143 
-0.000469054 0.0106916 -0.0542914 
0.0203999 0.0293712 -0.377938 

-0.00911602 -0.00229151 0.00789954 
0.00319707 0.00166294 -0.00286892 
-5.91311e-05 -0.00018989 0.00585133 

-0.0235971 -0.00994212 0.00681874 
0.0086952 0.00688519 -0.0337302 
-0.000818824 0.00114209 0.0232362 

-0.0104721 0.00213643 -0.0017345 
-0.00276629 0.00262965 0.00277114 
0.000660259 0.000719979 0.00498341 

-0.0126939 -0.00368741 0.0997944 
-0.0166198 0.00394235 0.177512 
-0.00130292 -0.00225858 0.0868599 

0.00564783 -0.0223056 0.0033435 
0.0298827 -0.0098923 -0.019275 
-0.00186233 -0.000553512 0.0258455 

-0.0257705 0.0113165 -0.0865169 
-0.0377058 0.0431855 0.0724257 
0.0228188 -0.103405 0.251373 

0.0248207 -0.0777886 0.0387529 
0.0929398 0.0133512 3.25592 
0.00819155 0.0112386 -0.26729 

-0.00632752 -0.0939939 0.847245 
0.103821 0.0655748 1.11229 
-0.00463021 0.0327516 0.0571735 

-0.00769695 -0.00218089 -0.00807973 
0.00514622 0.000476766 -0.00645732 
-0.00153634 -0.0007225 0.0229779 

-0.0131607 -0.00444506 0.028501 
0.00170637 0.0104132 -0.0523418 
-0.00143237 0.000937246 0.000912807 

-0.0205711 -0.0244495 1.01659 
0.0351421 0.0289224 -1.9605 
-7.95974e-06 -0.000372926 0.41708 

-0.0309153 0.149653 -0.191629 
-0.139133 0.0260176 0.0241501 
0.0193691 0.0210854 0.186566 

-0.0107705 0.00578381 -0.0823554 
-0.00722232 0.00524591 0.389431 
-0.00140347 -0.000128041 0.127819 

-0.129935 -0.0245324 1.78281 
0.0633663 -0.0188195 1.63077 
-0.0413821 0.0523369 0.0889394 

-0.0131357 0.00439459 -0.00522232 
-3.72683e-05 0.00147581 -0.0127891 
0.000906573 0.000165296 0.0121748 

-0.00042632 0.136148 -0.16698 
-0.171473 0.0425837 0.43885 
0.004329 -0.0077952 0.0775552 

-0.0103218 -0.246224 0.0977599 
0.229013 -0.00587954 -0.060046 
-0.00713889 0.00271922 0.111046 

-0.0344015 0.0706585 -0.620203 
0.00265947 0.0226895 -0.0861892 
0.00207254 -0.0371778 0.0628855 

-0.0239224 -0.0151397 -0.0391498 
0.0184056 0.00400238 -0.0422334 
0.000363876 -0.000565693 0.0168081 

-0.204953 0.0126936 -0.719754 
-0.20371 0.0966748 -1.0369 
0.0545614 0.0181916 0.404414 

-0.019968 -0.00592933 -0.160934 
0.00681388 0.00872664 0.306472 
0.00262227 0.00222638 0.074597 

-0.00147185 -4.30659e-05 0.0319704 
-0.0260395 0.023575 0.0403721 
-0.00205705 -0.000843622 0.00167833 

-0.00405838 -0.0348185 -0.0469959 
-0.0391362 0.0397797 0.0626088 
-0.013251 0.0307746 0.0557213 

-0.0118016 0.00265578 0.20382 
-0.000295455 0.00372597 0.343346 
0.000247001 -5.26728e-06 -0.0272513 

-0.0108436 -0.00585633 -0.000379886 
0.00818519 -0.00143949 -0.00518698 
0.000151732 -0.000226972 0.0107102 

0.0101135 -0.0346254 -0.00783271 
0.0015491 4.13488e-06 -0.0970411 
-0.0171116 0.0099745 -0.111708 

-0.29259 -0.12353 0.0881816 
-0.187987 0.332638 -0.0428667 
0.0347206 -0.126804 0.345575 

-0.0107037 0.00501106 0.00630134 
-0.00343599 0.0044817 0.00572822 
0.0019849 -0.000241184 0.0167083 

-0.0133377 0.00760098 0.00424601 
-0.00959266 0.00256331 -0.00322375 
-0.000750534 -0.00039629 0.0120846 

-0.00753098 -0.000966547 0.00230862 
0.00540911 0.000899506 -0.0036507 
0.000174136 -4.93337e-05 0.00294426 

-0.0165154 0.104777 0.158771 
-0.0317413 0.0286654 0.0160281 
0.00101235 -0.030354 -0.0107251 

-0.00986775 0.0102987 0.00740948 
-0.00359851 -0.00242647 -0.00584045 
0.00263666 -0.000580911 0.0258356 

-0.0108381 0.0323567 -0.0524393 
-0.038101 0.00686092 0.0339504 
-0.0121747 0.0048603 0.512376 

-0.0241753 0.103798 -0.851894 
-0.00144727 0.0112742 -0.657406 
-0.00127072 0.00207 0.0615359 

-0.0137987 -0.0207099 0.026429 
0.0243373 0.00778835 0.00212412 
-0.00268616 -0.00200057 0.0362787 

0.0252225 -0.12473 0.25188 
0.195181 -0.00814755 0.0470483 
-0.00811644 0.00216109 -0.00561349 

-0.0148366 0.0134834 -0.0486792 
-0.0122705 0.0113848 0.0313013 
0.0157726 -0.00203965 0.0351772 

-0.0163758 0.00095843 0.0175841 
-2.03305e-05 0.00891226 0.00556596 
-0.000644312 -0.00121713 -0.00307112 

-0.0158871 -0.00352044 -0.303756 
1.42251e-05 0.00672663 0.210108 
-0.000524713 -0.000238143 0.00668917 

-0.0348484 -0.0105691 -0.437434 
0.010941 -0.00629681 1.02379 
0.00282388 0.000584725 0.0780234 

-0.0816686 0.126032 0.0408789 
0.0487899 0.108769 -0.100979 
-0.00141108 -0.00275852 0.00652183 

-0.0109009 0.00958833 0.0323339 
0.000145983 0.001627 -0.00210719 
8.1662e-05 0.00506726 0.0104415 

-0.00278893 -0.002643 0.00774479 
-0.00434249 -0.00133977 -0.00942972 
-0.000347339 -0.000332981 0.0111382 

-0.0189692 -0.0252516 -0.203467 
-0.00798766 0.027964 0.0524583 
-0.00166238 2.82362e-05 0.00128142 

-0.0247458 0.0638092 0.0807746 
-0.0214907 0.07004 -0.0613604 
-0.00495939 0.00723918 0.0537719 

-0.01578 -0.0591442 -0.153747 
0.022608 -0.00371911 -0.113452 
0.0144366 -0.00226375 -0.088326 

-0.0113989 0.000645658 0.00353216 
-0.00424031 -0.00386279 -0.014206 
0.000280114 0.00106934 0.0156891 

-0.192391 0.0499509 -1.82401 
0.214348 0.167766 -1.57596 
0.00516131 -0.0437939 0.0630307 

-0.0267746 0.0117544 0.00547394 
-0.0210298 0.0123983 0.0371965 
0.00036507 -0.000646772 0.0149332 

-0.00922299 0.00656776 0.00872155 
-0.0028106 0.000962746 0.0254201 
5.0224e-05 -0.000222514 0.0184217 

-0.00378469 0.0673739 -0.194488 
-0.184592 -0.0227214 0.0206839 
0.00474629 -0.00470553 0.141655 

-0.0124647 0.078297 -0.14517 
-0.0712801 0.00733798 -0.0214352 
0.00787457 -0.0288499 0.160217 

-0.0131013 0.00391486 -0.313507 
-0.00489345 -0.000689594 0.461264 
-0.000203225 -5.83976e-06 0.133868 

-0.0382915 0.0504959 0.0531135 
-0.102696 0.0209793 -0.246589 
-0.0456337 -0.0104558 0.20201 

-0.25861 0.0533142 -0.0302002 
0.216023 0.100744 0.37118 
-0.000830708 0.0278088 0.339153 

-0.0122532 -0.00604821 0.00664822 
0.000639418 0.00334494 -0.023989 
0.000738417 0.000974743 0.0211716 

-0.065231 0.0665974 0.413313 
-0.00147472 0.0944356 0.339194 
0.000722429 -0.00150724 0.0254429 

-0.0197522 -0.00388036 0.0683188 
0.00577461 -0.00055107 -0.186174 
-0.0231375 -0.0171814 -0.0674505 

-0.00522074 -0.00725483 -0.088538 
-0.00109443 0.00213511 0.012718 
-1.26894e-05 0.000142414 0.030291 

-0.0166849 0.00821422 -0.00377035 
-0.0012356 0.0104544 -0.00139302 
-0.000582194 -0.00134409 0.00299846 

0.100514 -0.246596 0.0602927 
0.210622 0.0335045 0.147873 
0.059249 0.0503615 0.619764 

-0.00827942 0.0205337 -0.0159184 
-0.0251087 0.0135469 -0.102214 
0.00129511 -0.00466572 0.0359155 

-0.0243325 0.0906831 -0.0577649 
-0.0374831 0.00557523 -0.0487135 
0.00668801 0.000587336 -0.0276072 

0.00615587 0.0494828 0.159494 
-0.0432538 -0.00294439 -0.123902 
-0.0127853 -0.000679162 0.107341 

-0.0168385 0.024643 0.212883 
0.149816 0.00550056 -0.290308 
0.00129884 -0.00603914 -0.0513189 

-0.00473456 -0.0507998 0.0661928 
0.0487955 0.00842023 -0.0855061 
-0.00424618 0.0117463 0.0263595 

-0.0110415 -0.00305277 0.00448447 
0.006559 0.00062573 0.0419273 
0.00016752 0.000518737 0.0347935 

-0.0898248 -0.0557382 -0.33626 
0.0958804 0.051241 -0.101911 
0.000909376 0.00609927 0.0226121 

-0.0077146 -0.0763736 0.033465 
0.0773218 0.0187545 -0.0222012 
-0.00271913 -0.000128234 -0.0247955 

-0.00848902 0.0309024 0.360944 
0.180727 0.0124806 -0.358047 
-0.0644447 0.0387843 0.182149 

-0.0383314 0.258232 0.383539 
0.000525354 0.060829 -0.317522 
-0.000515839 0.000294799 0.233418 

-0.0132097 0.00653608 -0.00190302 
-0.00950213 0.000847428 0.0051017 
0.000864245 0.000615779 0.0145541 

-0.00133537 -0.00985364 -0.000104983 
-0.0130712 -0.00931636 -0.00458366 
0.00752768 -0.0012112 0.0210723 

-0.0160015 0.0358638 -34.6357 
-0.00263857 0.00614898 6.01062 
-0.003805 -0.00829052 1.60779 

-0.0117534 -0.00818252 0.0132652 
0.00161083 -0.000418622 -0.00736514 
0.000516097 0.000156168 0.0117582 

-0.125394 0.0948573 0.0950178 
-0.0127427 0.0842477 0.0799909 
-0.0059398 -0.0521209 -0.0469032 

-0.779167 0.0562613 -8.94274 
-0.240459 0.371141 -0.333571 
0.0184536 0.0223135 0.140458 

-0.0118224 -0.000178512 -0.0043008 
-0.00395943 -0.00128869 -0.00443935 
-4.17877e-06 0.000867251 0.0201232 

-0.0146921 0.016786 0.0630725 
-0.00500035 0.00708316 0.113315 
0.000103114 0.000543569 0.0420447 

-0.027907 0.0968299 -0.282964 
0.0112141 -0.0073613 0.073997 
0.000876475 -0.188667 0.137402 

-0.00948241 0.00146927 0.0189666 
-0.00256114 0.00288292 -0.0126263 
-0.000732927 -4.16353e-06 0.00831256 

-0.0342819 -0.108781 0.0850199 
0.11198 0.0363944 0.214768 
0.0305953 -0.0226722 0.0195217 

-0.308772 0.471881 -0.322156 
-0.0891768 0.424637 -0.707652 
-0.00255984 0.00163777 -0.00981881 

-0.00355429 -0.0129583 -0.109669 
0.0121723 0.0126784 0.00208188 
0.00105948 -0.000335742 0.00374959 

-0.0210065 -0.0111506 0.684477 
0.0146141 0.0053172 -0.452683 
-0.000472144 2.61366e-05 0.0612911 

-0.0100583 -0.0185107 -0.1456 
0.0190828 -0.00488638 -0.00552994 
0.0177668 -0.00729694 -0.00176663 

-0.0133009 -0.000426214 0.0372705 
-0.012662 0.00432041 0.0526704 
-0.000335657 0.00299738 0.026065 

-0.0141994 0.00408108 -0.0650342 
0.00374595 0.0107924 0.0554249 
-0.0007952 -0.000257816 -0.000185653 

-0.0176213 0.00114414 0.137279 
0.00292476 0.0119459 -0.0264989 
0.0121355 -0.0110356 -0.0254029 

-0.0224406 0.0148683 -0.0175041 
-0.0495592 0.00631308 -0.0187338 
-0.0021551 -0.000796484 0.0215316 

-0.22718 0.0276507 0.0996626 
0.364026 0.147803 -0.365664 
0.0149232 0.0879836 0.223595 

-0.0232786 -0.00980125 -0.0526313 
0.0139409 0.00784036 0.0164038 
-0.00592863 -0.00150825 -0.118431 

-0.0161643 0.00698697 0.00715661 
0.00346004 0.000490492 -0.00663291 
-0.000143217 0.00156982 0.0319499 

-0.0255445 -0.0286201 0.270471 
0.030765 -0.000694353 -0.267711 
-0.00162076 0.000836782 -0.00525942 

-0.0146037 0.0118104 -0.00224557 
0.00580543 -0.00258067 -0.0367859 
8.19605e-06 -0.000804793 0.00272323 

-0.0321606 0.00850376 -0.467441 
-0.0155871 0.0325571 -0.46944 
0.000106927 0.000405123 0.152973 

-0.000909122 0.013169 -0.0235934 
-0.00552456 -0.00555826 0.00266457 
0.000572404 0.000483597 0.0131203 

-0.0439634 -0.0277426 -0.00336616 
0.0749152 0.0109813 -0.0385037 
0.00449354 -0.00723443 0.0928647 

-0.104765 -0.0347179 -0.129183 
0.0426451 0.0640466 0.00390043 
-0.00082331 -0.000610947 0.00583717 

-0.0205231 0.0109073 -0.0215576 
-0.0164664 0.00959929 -0.121239 
0.00047695 -0.000355776 -0.0169792 

-0.0370426 -0.0116849 -0.150235 
-0.00438915 0.0154621 -0.0245585 
-0.0045441 -0.00161449 0.00826677 

-0.00950291 0.00488038 0.00472898 
0.00156842 0.00324489 -0.0025288 
-0.00237606 -0.000718531 0.0084174 

-0.0578674 0.0017899 0.0813089 
0.0367831 0.012024 -0.0624808 
-0.00240656 0.00521625 0.0698658 

-0.00967944 -0.0157299 -0.0320861 
0.0192026 0.000561145 0.128058 
0.00155113 -0.000397574 -0.00385477 

-0.10087 -0.0156929 0.936447 
0.0244003 0.020459 -1.04854 
0.0165405 0.0200602 0.183501 

0.00479289 0.00880774 0.0726356 
-0.0344175 -0.0393258 -0.0690178 
-0.00185752 0.00162787 0.0297772 

-0.00732443 -4.13895e-05 0.000314629 
0.00357955 0.00181116 -0.00653904 
-0.000753237 0.000413325 0.00708634 

0.0343366 0.0204862 0.0511526 
0.00813461 -0.0618782 0.00576767 
-0.000224058 -0.00140766 0.0362032 

-0.0127642 -0.0025346 0.0866552 
0.00335872 0.0025002 0.275074 
0.00077714 -0.000187118 0.0121778 

-0.00947466 0.00473018 -0.0842697 
0.00120254 0.0017927 0.0443371 
-0.000711998 -0.000675265 0.0141961 

-0.0285357 0.00404812 -0.0827507 
-0.00599251 0.00618026 -0.030612 
-0.00791998 -0.00216643 0.0109179 

0.00590908 -0.0031625 0.0297217 
-0.0203862 0.00460215 0.0436834 
-6.76904e-05 0.00208829 -0.0268461 

-0.0154677 -0.00620762 0.0532156 
0.00383296 0.00546266 -0.0233014 
0.00070681 0.000743125 0.0263918 

-0.0128158 0.00092913 0.220396 
0.00262943 0.00790127 -0.760003 
-0.000125134 -7.2841e-05 -0.00237638 

0.0210153 -0.0975932 -0.0309848 
0.138645 -0.0151078 0.0144261 
-0.00024569 -0.000862466 0.00903582 

-0.06445 0.149951 0.110585 
-0.119522 0.0111066 -0.00889699 
-0.0777184 -0.0866464 0.510929 

-0.0203471 0.0148058 -0.370052 
-0.00435858 0.0224827 0.107881 
-0.018647 0.0132595 0.552598 

-0.529382 -0.245255 0.104029 
-0.445447 0.136177 -0.261652 
0.088868 -0.0854335 0.311913 

-0.0268942 -0.00223673 0.0150603 
0.00137436 0.0280007 0.0066882 
-0.000558021 -5.40419e-05 0.00568266 

-0.0711406 0.0197624 0.359105 
-0.00621916 0.0386842 0.128534 
-0.00116361 0.00156816 0.0259295 

-0.0207417 -0.00892839 0.0131361 
-0.0278964 0.00129692 -0.0056875 
0.00530056 -0.0076119 0.073485 

-0.00807411 -0.039742 -0.0149834 
0.0373302 -0.00217048 0.0243347 
-0.00145404 0.000733631 0.020565 

-0.0240394 -0.0204659 -0.0252181 
0.00394052 -0.00881096 0.01637 
0.00161963 -0.00179095 0.04568 

-0.0109351 0.0170154 0.0146509 
0.0247804 -0.0145453 0.014228 
0.00268324 -0.00278737 0.00274361 

-0.0386898 0.025091 -0.239316 
-0.0234845 0.016676 -0.0459979 
-0.00103142 0.00350447 -0.201171 

-0.0067307 0.00760163 -0.0129026 
-0.0132885 0.00650044 -0.0245878 
0.000303493 -0.00142734 0.011494 

-0.0126081 -0.0130536 0.0117859 
0.00682071 0.00293337 -0.00287231 
-0.000747421 2.92129e-06 0.0129902 

-0.0083933 -0.00728919 0.0086359 
0.00900888 0.00205734 -0.021788 
0.000512441 0.000301288 0.0169941 

-0.00732764 -0.00105946 -0.000955182 
0.00369317 0.00217611 -0.0175078 
-0.00126219 -0.000700141 0.0120962 

0.0543093 -0.344703 -0.0353888 
0.305156 0.0508573 -0.0379616 
0.00127566 0.000925649 -0.0246396 

-0.400272 -0.268327 -0.0444382 
0.156464 0.386445 -0.197207 
0.0232634 0.0373416 0.168609 

-0.0233967 0.0135457 -0.216645 
-0.0112302 0.00164706 -0.521228 
0.0630856 0.00872612 0.00346761 

-0.00571372 0.014727 0.138243 
-0.0133326 0.00385439 -0.290886 
-0.000828026 -0.000830138 -0.00802966 

-0.00544535 0.0154684 0.066298 
0.000170794 0.0223764 0.0890776 
-0.00076644 0.000561199 0.015955 

-0.0115726 -0.00481147 0.12311 
0.00554093 0.00470486 0.0616443 
0.00481078 -6.63734e-05 0.013991 

-0.0126788 -0.00361407 0.00163017 
0.00260627 0.00208048 -0.0168247 
-0.000220844 -0.000273703 0.0137184 

-0.00960589 -0.0139243 -0.0604632 
0.00500996 0.00397839 0.274337 
0.00112452 0.000326793 0.0580838 

-0.0131706 0.00369136 0.151033 
-0.013702 0.0026413 0.0398483 
-0.000926503 5.87039e-05 0.0312314 

-0.00850445 0.000947118 0.016053 
0.000891735 0.00301883 0.00916852 
-0.000375188 2.64145e-05 0.00746145 

-0.00727634 0.0470064 -0.146813 
-0.0379716 0.0175578 0.243431 
0.00235676 0.0203193 0.705998 

-0.00653292 -0.0760678 -1.02203 
0.10908 -0.000928697 0.08687 
0.00695931 -7.86172e-05 -0.0536331 

-0.00958851 0.00393649 -0.396122 
0.00501217 0.00349963 0.830454 
3.80619e-06 -0.000342643 0.123044 

-0.0577574 0.0469766 -1.34678 
0.0143514 0.20665 -2.01186 
-0.00027424 -0.00299721 0.0345539 

-1.08765 -0.534883 -2.78102 
0.47292 0.771478 -1.1024 
0.0203737 -0.0386239 -0.0573558 

-0.0603888 -0.0212327 -1.07657 
0.0779266 0.102853 -0.281763 
-0.00771798 -0.000809577 -0.310958 

-0.0665528 -0.0713259 -0.442268 
0.187587 0.0286998 1.85681 
0.0246106 -0.0849147 0.365608 

-0.106642 -0.0831788 0.522914 
-0.0220071 0.0953076 -0.591271 
-0.000396215 0.000938032 0.0210557 

-0.0195829 0.0441905 1.74895 
0.00606457 -0.00528893 -0.853659 
0.00554184 -0.0120959 -0.221339 

-0.110503 -0.0640375 0.963798 
-0.151181 -0.0330764 1.07662 
-0.039605 0.0504008 0.279959 

-0.067313 -0.0281196 -0.0847989 
0.0704567 -0.0133293 0.0665695 
-0.000625892 0.0153674 0.062688 

-0.0109541 0.00233815 -0.0112338 
0.000940525 0.0115162 0.0249977 
0.000702708 0.000294912 0.00718898 

-0.011806 0.00329022 -0.00305508 
0.00220857 0.00283139 -0.00213529 
-0.00170786 -0.000980593 0.00817443 

-0.013782 0.0106847 0.0166604 
-0.0025332 0.00230865 0.0713172 
-0.000232338 -0.000993839 0.0269523 

-0.0743299 -0.018216 0.22831 
0.00646316 0.0756679 -0.347556 
-0.00384915 -0.0025284 0.0836197 

-0.00967537 0.000819638 0.00699798 
-0.00393189 0.00166087 0.0265067 
0.000406472 -0.000786247 0.00269881 

-0.00379037 -0.00804694 -0.0607486 
0.0142331 0.00205536 0.0168669 
0.00115976 0.00221952 0.0119713 

-0.0430586 0.0280209 -0.339318 
-0.116574 0.0390534 0.371284 
-0.00351168 -0.0169336 0.0828415 

-0.025632 -0.0146598 0.0600766 
-0.00805949 0.0377898 -0.0905397 
-0.000130413 0.000827926 0.0388647 

-0.00850688 -0.022448 0.0799027 
-0.041267 0.0110506 -0.00923006 
-0.0669707 0.0837465 0.333619 

-0.00696622 -0.00212854 0.0325344 
-0.000719065 -0.00459108 0.0710248 
-0.000380801 0.000168101 0.0219532 

0.088067 -0.524184 0.748744 
0.374809 0.206354 0.657098 
-0.0211836 -0.00614202 0.271735 

-0.00829128 -0.00356909 -0.00276429 
0.00411816 0.00185327 -0.00312028 
0.000424856 -0.000728939 0.00879282 

-0.0138603 0.0154493 0.0308266 
-0.0294133 -0.00719966 -0.0448549 
-0.00680238 -0.00353043 -0.015893 

-0.0392465 -0.0156248 -0.0125327 
0.0164094 0.0193579 0.00494848 
0.00439047 0.000725376 0.016395 

-0.0454817 1.0112e-05 -0.480864 
0.0418353 0.0926973 0.120754 
-0.000750113 -0.00163085 0.0567931 

-0.108531 0.0880751 0.0783414 
-0.134335 0.0889705 -0.615715 
-0.0244811 -0.100275 0.893205 

-0.00444689 -0.00888223 0.0201897 
-0.00389423 -0.00216077 0.00552538 
-0.000810082 -0.000336756 0.0121224 

-0.0106365 -0.00296313 0.237587 
-0.00473689 0.00498745 0.0165977 
-0.00701716 0.0150825 -0.0271359 

-0.00935386 -0.0158168 -0.00756432 
0.00508367 0.000534531 0.00218317 
0.00697546 -0.00318683 0.0166099 

-0.0123757 -0.00679353 0.00385884 
0.00319767 0.00350968 0.00567469 
0.000837978 -0.000119754 0.00892988 

-0.0111957 0.000726508 0.0905673 
-0.000406713 0.00613652 0.0445651 
0.00016065 0.00069705 0.00865156 

-0.0229141 -0.300348 0.0289143 
0.279391 0.141563 -0.144798 
-0.00273897 -0.00402011 -0.0532439 

-0.0139375 -0.00697552 -0.0143186 
-0.00141272 0.0102344 -0.197798 
0.00379954 -0.00231431 0.0212907 

-0.0384612 -0.0240793 0.435228 
0.000335181 0.0096476 -0.343234 
0.00624215 0.00459951 0.0186484 

0.0117653 -0.201313 -0.128672 
0.192213 0.039582 0.303876 
0.0031657 0.00366236 0.0184174 

-0.0232308 -0.000489332 0.0263912 
0.0275405 0.00558429 -0.0131378 
0.00219235 -0.021164 0.120762 

-0.304394 -0.316376 0.244487 
0.0247301 0.229692 -0.30987 
-0.00892406 -0.0105747 0.140515 

-0.0701227 0.0353225 0.430018 
-0.0159671 0.0540866 -0.288552 
0.00402339 -0.00878491 0.0850243 

-0.0612691 -0.46984 0.452134 
0.393683 0.271548 0.390401 
-0.0793909 0.0132147 0.490931 

-0.00412145 -0.00915749 -0.128773 
0.0191674 -0.00411624 0.138073 
-0.00485265 -0.00744001 0.0322407 

-0.0326795 0.0408444 -0.0688866 
-0.0415789 -0.0078742 -0.0145838 
-0.00286759 -0.00272806 0.0571429 

-0.049613 0.0647273 0.0502018 
0.00085937 -0.0246249 -0.19704 
-0.000768324 -0.00114355 0.0220232 

-0.00782736 -0.00691687 -0.0161765 