# vtk DataFile Version 3.0
Output file generated by Yade's KinematicLocalisationAnalyser
ASCII
DATASET UNSTRUCTURED_GRID

POINTS 13483 float
511.665 41.6692 -0.466893
610.732 75.0462 0.462703
112.513 6.12832 -0.434074
636.61 6.62322 0.593678
447.3 9.22733 0.408783
296.33 37.7465 -0.474575
147.176 7.00522 0.465943
497.832 12.4506 -0.225953
442.182 29.2033 -0.163633
579.51 14.9699 0.518365
199.001 8.7762 -0.130175
243.06 6.37406 0.361467
539.586 71.3266 -0.144854
539.075 18.9921 0.0950745
129.357 17.9133 0.587658
209.564 35.0881 -0.40448
206.298 13.142 -0.29888
271.734 10.6907 0.482573
320.599 34.7303 0.519675
467.772 8.64469 0.545991
382.473 46.9583 -0.109298
509.654 75.6751 -0.205026
626.58 59.7149 -0.514038
578.412 79.7813 -0.539133
416.046 24.2302 -0.353335
225.93 47.6659 0.136877
438.719 36.9233 0.4811
506.354 29.805 -0.255567
41.6337 16.1209 0.538419
601.253 80.0389 0.371535
433.163 7.0315 0.286441
16.1606 25.7868 -0.289495
620.763 82.9206 0.280321
442.915 2.16089 0.652927
72.6983 45.8453 0.113387
461.019 37.9321 -0.359719
467.433 22.9865 -0.526612
322.993 24.0194 0.171343
470.539 34.5697 0.331396
328.887 36.6198 0.580064
228.609 14.7626 0.353308
403.703 46.0144 -0.0784711
552.276 34.7822 0.133789
182.018 6.31718 0.362408
50.9083 7.14243 -0.11339
63.4309 8.92964 -0.253617
562.147 20.434 0.672004
21.401 12.4819 0.295323
514.397 64.0615 0.422799
557.214 59.0737 0.339725
162.19 33.3297 -0.327004
614.246 62.4019 -0.156317
30.9421 31.3217 0.115934
475.601 4.52755 0.618621
133.814 7.49035 -0.570699
506.269 58.4285 -0.377872
445.243 34.214 0.13418
165.367 0.964485 -0.294097
29.7203 2.38811 0.340559
327.743 18.7117 0.284475
517.557 72.1836 -0.142141
428.592 46.0867 0.182759
372.65 1.03994 0.207779
569.404 15.3297 0.489432
23.954 47.4978 0.236429
241.483 35.5154 -0.359655
579.974 9.47236 -0.358567
557.13 86.6889 -0.367665
390.051 10.5674 -0.619202
495.729 4.08936 -0.354032
593.88 50.9038 0.416836
123.196 7.79845 0.273223
443.844 30.6867 -0.162094
430.877 19.8061 -0.148904
277.769 17.4099 -0.374521
19.0047 14.6322 -0.357277
632.575 82.6314 0.305395
314.156 41.8606 -0.372185
555.35 52.4861 0.342476
563.042 31.6513 -0.26646
627.01 12.9997 -0.272944
429.689 47.9559 -0.171217
86.6546 40.2715 -0.318735
567.172 68.316 -0.242458
530.076 77.7013 0.112059
632.649 65.2777 0.113383
621.245 0.748054 -0.588348
274.252 29.7017 0.471267
534.84 5.94206 -0.163807
22.7338 6.31432 0.651244
125.125 41.1715 -0.146671
459.139 15.831 0.210894
622.264 48.6876 -0.530235
184.813 29.7156 0.267964
40.95 36.4079 0.284733
441.744 1.15662 0.118124
224.164 9.2084 -0.393943
594.326 60.3075 0.271945
615.724 48.9548 -0.24454
338.352 22.2854 -0.249457
154.004 27.92 -0.45636
481.026 50.2507 -0.515524
357.461 18.1436 -0.454837
385.061 37.8849 0.0435745
355.025 6.90061 0.500489
483.124 17.7481 0.250176
634.706 23.9933 0.186399
74.8757 40.647 0.416974
316.13 5.48133 -0.227531
492.266 11.8574 -0.53681
338.985 47.8906 0.501273
22.847 27.3613 -0.474158
28.3059 6.09653 0.300588
494.145 64.2992 0.347978
447.537 30.2677 0.164574
23.9199 41.6337 0.415439
86.9382 31.6122 -0.251121
307.013 16.6802 -0.381288
518.763 25.0626 0.147154
437.398 57.8803 -0.181471
595.332 13.171 -0.457571
589.206 6.78357 -0.21544
364.029 40.0615 -0.138085
535.951 38.6931 0.121292
227.511 16.4792 0.564219
312.179 4.02252 0.494848
97.4205 32.5063 -0.426566
109.593 26.0322 0.266005
479.178 55.4196 -0.101936
289.789 19.0781 0.468236
596.568 81.3862 -0.0985151
559.83 84.1409 -0.124343
434.969 25.7577 -0.424311
618.391 26.3432 0.26952
398.624 33.3928 0.250553
262.749 26.6116 -0.295871
556.223 70.4461 -0.333263
264.68 31.1009 -0.38465
500.691 20.6173 0.213391
315.009 38.6379 0.20913
453.771 12.2297 0.663304
346.086 34.8921 -0.11707
399.357 24.0612 -0.113674
301.686 45.5065 0.355489
181.229 31.3477 -0.117499
614.921 77.4871 0.160753
633.105 26.6313 -0.438764
5.92002 12.801 0.45286
402.993 28.1999 -0.428158
35.0369 24.2053 0.0763679
355.582 33.6087 -0.456619
373.059 30.6986 -0.281304
69.9182 11.9502 -0.504312
48.0879 34.6329 0.495947
216.22 14.3163 0.444675
522.352 47.3229 0.467565
503.628 31.815 -0.524019
69.8839 21.2975 -0.488019
577.832 84.5193 -0.0527872
605.717 2.33803 0.693107
547.221 87.0402 -0.461807
568.667 5.46366 -0.610826
490.327 43.1574 0.519988
510.567 74.1136 -0.437579
462.785 18.7653 -0.49599
635.793 4.71439 0.53377
214.382 25.443 0.121518
120.695 38.0833 0.18981
236.143 6.62903 0.467504
89.0933 4.83549 0.262512
59.8317 10.336 0.247749
262.723 38.58 -0.386883
17.2679 27.539 0.364203
492.385 27.599 -0.501626
516.005 53.1161 0.264063
423.167 29.2529 -0.352487
634.81 96.7657 0.377389
383.839 8.65272 -0.126443
407.38 48.0033 0.525199
480.661 4.2045 0.261382
21.4442 24.6211 0.388703
505.947 3.75437 0.629839
485.097 7.16515 0.442928
197.427 11.3196 0.515539
395.967 25.2558 -0.208019
296.618 6.38693 0.365061
367.324 19.4436 -0.436112
581.206 60.3928 0.101574
182.634 27.0285 0.391941
614.543 6.13998 -0.534286
581.774 55.5296 0.429455
362.772 10.9581 0.224926
581.418 2.00829 -0.618765
519.906 32.8895 -0.472698
594.263 27.3154 -0.368773
403.417 56.3844 -0.303775
449.92 13.9572 0.524377
428.644 59.9113 -0.244762
412.984 11.1196 -0.20027
550.836 85.2915 -0.254214
548.298 82.5368 0.312635
183.883 40.286 0.342065
625.071 11.9924 -0.191972
512.773 68.929 -0.285309
11.0071 18.6399 0.256896
384.989 29.3064 0.362781
179.979 24.0295 -0.418456
88.3051 41.0724 0.233109
623.954 46.5269 -0.478756
542.156 89.6472 -0.221893
303.26 27.475 0.355424
476.349 15.28 0.335002
77.6088 45.8977 0.188508
237.743 28.9641 -0.493829
489.876 39.4814 0.352984
442.516 21.8797 -0.456948
251.485 0.909427 -0.399453
482.419 59.8721 -0.354835
474.05 52.7053 -0.499812
447.541 58.3563 -0.463952
452.349 2.23546 -0.661024
571.589 30.575 -0.450181
171.702 12.7216 -0.207583
447.994 44.0272 0.420777
489.276 69.9458 0.143727
68.8109 0.970005 0.283667
241.153 4.83955 0.259508
631.301 27.5235 -0.2843
626.15 14.8002 -0.552385
636.552 29.776 -0.584967
289.308 8.67494 -0.229639
595.156 42.878 -0.461337
382.62 52.5418 -0.328649
416.221 1.43592 -0.711694
536.823 78.7254 -0.45113
25.0911 35.6079 -0.420624
315.304 45.9095 -0.604768
242.018 2.97831 0.485499
625.69 84.607 0.168268
596.19 94.1617 -0.216778
273.917 12.1694 0.284404
551.41 68.8019 0.0960442
492.744 2.57867 0.364827
482.818 11.7356 0.662941
92.0998 19.1645 -0.532333
289.145 1.06528 -0.240024
326.479 2.22983 -0.388069
13.0486 7.88909 0.551662
4.45523 31.7816 0.28829
154.475 19.2968 0.366126
64.1189 43.7549 -0.212049
61.5343 30.9473 -0.321292
395.563 19.731 -0.604771
348.987 38.3027 -0.515422
611.993 62.5812 0.126547
18.6966 4.2448 -0.273973
66.4662 6.97638 0.130048
527.025 56.8165 0.174276
280.767 0.959844 0.42904
345.706 17.672 -0.095303
226.003 4.70518 -0.357378
537.452 51.6349 -0.192605
418.225 9.83443 0.576143
594.988 38.9794 -0.429283
536.476 59.331 -0.316375
554.645 49.1197 0.0969377
395.569 35.901 0.452802
96.8991 46.8537 0.329337
474.767 61.4824 -0.0783574
596.628 21.3795 0.367379
229.13 32.7132 0.267176
29.7807 18.7226 -0.1902
320.573 14.5499 0.508514
102.362 42.5349 0.470425
256.428 45.735 -0.253157
399.137 2.48795 -0.189909
627.564 68.3058 -0.503657
566.926 0.780003 -0.638061
316.64 3.95674 0.574301
287.572 28.0969 -0.148598
429.706 56.6267 0.207088
77.5047 8.55818 0.479092
189.805 46.4899 0.378739
615.805 55.9443 0.353824
463.313 63.1165 -0.0683658
192.239 42.5416 -0.308673
153.553 43.8372 0.407451
635.113 60.327 -0.394116
633.139 24.7373 -0.634471
526.039 4.56587 -0.627766
183.108 25.2285 -0.0995417
491.906 49.1586 -0.12334
493.525 50.2965 0.283953
388.229 5.89912 -0.152045
436.816 0.906008 0.395703
609.1 63.4639 -0.549046
80.3808 32.1064 -0.22218
542.605 51.5195 -0.502576
261.893 16.1452 -0.454701
8.79747 2.42097 -0.311591
120.227 40.3053 -0.219878
63.2387 23.2506 -0.496282
589.37 79.6505 0.332779
622.253 92.4192 -0.197417
177.415 30.0272 -0.189791
630.893 21.6326 -0.657792
42.5765 38.2019 -0.299802
85.9119 29.9379 0.154682
547.448 17.9546 0.492522
388.083 22.1872 -0.553728
465.603 22.9468 0.11833
230.239 31.0018 0.230996
540.082 5.36589 0.731544
637.259 25.0219 0.439674
27.6609 36.0224 -0.273448
258.372 8.06967 0.193701
214.127 16.0987 0.315449
1.06454 36.371 0.151874
217.213 15.2815 -0.427958
203.83 11.0835 0.13355
206.191 26.9739 -0.281014
126.958 30.2377 -0.117357
487.657 23.3066 0.459972
160.246 14.618 -0.353865
620.744 81.0867 -0.306501
167.271 3.81561 0.534948
44.4737 40.2189 -0.367558
600.318 73.4059 -0.319801
269.591 34.3028 -0.41307
559.749 56.0822 0.444847
620.845 55.1456 -0.522572
287.379 9.34358 -0.105199
583.373 46.5205 0.422344
314.31 2.55978 -0.442942
390.532 31.7629 0.352584
557.616 44.8172 -0.46691
100.993 12.8737 0.551172
438.852 3.78102 -0.491976
596.727 35.3353 -0.228509
84.4219 7.73999 0.182708
269.318 15.695 0.20489
397.816 16.9709 0.241911
634.876 3.25994 0.552289
377.516 1.98608 -0.548733
169.209 40.1062 -0.303461
600.257 18.7117 -0.487281
122.504 39.0914 -0.194375
251.842 34.7462 -0.360483
377.367 24.515 0.228031
503.365 22.1728 -0.381882
367.085 10.1204 -0.499535
431.552 40.8625 -0.477401
611.953 75.5642 -0.39792
44.6339 12.24 -0.132102
285.882 39.4661 -0.286136
361.86 30.3263 0.391474
383.782 23.9153 -0.289506
466.284 57.7502 0.357475
602.929 58.909 0.258622
551.55 77.9851 -0.344582
217.753 35.1819 -0.363143
13.132 33.9628 0.195751
546.616 83.6547 -0.130642
456.953 49.6242 -0.507775
221.174 40.3199 0.140024
571.852 66.7601 -0.144107
144.492 9.45639 0.239292
347.461 22.9832 0.302834
430.423 58.618 -0.120278
388.023 24.0433 -0.186601
607.195 76.2242 0.309329
399.442 5.43986 0.536132
46.2359 27.0152 -0.305257
440.495 51.8075 -0.401045
408.646 54.5036 0.408425
627.497 78.2035 0.256661
584.902 42.0952 -0.246554
483.654 29.5547 -0.142537
620.241 72.7089 -0.451216
280.429 2.29687 -0.480579
360.484 32.3165 0.53733
27.1515 43.3452 -0.292268
585.93 48.2079 -0.21186
527.971 24.4439 -0.610675
425.743 0.870669 0.69036
120.328 4.71655 -0.363575
401.29 51.1286 0.117851
11.1323 0.857062 0.329053
634.646 8.47248 0.226916
352.748 44.2204 0.496499
[...]
POINT_DATA 13483
TENSORS Strain_matrix float
0.0140769 -0.308474 0.353788 
0.19273 0.0248502 2.11613 
-0.0107285 0.000485811 -0.0462084 

-0.0558073 -0.00636699 1.51491 
0.0432958 0.0799419 1.19318 
-0.012526 0.0025275 -0.165744 

-0.00427752 0.00123571 -0.00757016 
0.00448963 -0.00195386 0.0146218 
0.000655269 -0.000846249 0.0181822 

-0.0275375 0.0132374 -0.0563957 
0.0220942 0.0156307 0.15445 
-0.00526692 -0.00315138 0.0743691 

-0.224588 0.15665 -0.237507 
-0.0602265 0.125936 0.145423 
0.0360699 -0.016954 -0.0960257 

0.0037173 -0.0234427 0.311105 
0.0454529 3.50823e-05 -0.194098 
-0.00206051 0.00213103 0.00366657 

-0.00682069 -0.00196174 -0.015258 
0.00366672 0.0041549 -0.028751 
2.34873e-05 0.000272459 -0.0006778 

-0.0113977 -0.082903 -0.017883 
0.0559312 -0.00610256 -0.0600631 
-0.00975816 0.00417613 0.0299756 

-0.287519 -0.770778 -0.590192 
0.007766 0.172929 0.528017 
-0.0020509 0.00151906 0.0766378 

-0.0190782 -0.0529102 0.706776 
0.035259 0.0156724 -0.312442 
0.0113173 -0.0162514 0.0351927 

-0.0136349 -0.00845232 -0.0367815 
0.0314267 0.00438577 -0.102628 
-0.0405568 -0.054766 0.597091 

-0.0283254 -0.0296637 0.0577076 
-0.000658679 -0.0509585 -0.0520222 
0.00207545 0.0073917 0.130569 

-0.0257685 -0.07441 0.168641 
0.00169603 0.00242869 -0.286417 
0.00651191 0.00527543 0.100851 

-0.0702203 0.0428185 0.0955976 
-0.30008 0.0198745 -0.155646 
0.045901 -0.0252226 0.210724 

-0.0081481 -0.00933433 -0.273009 
0.00196827 -0.00103256 -0.100442 
-0.000390912 0.000850837 0.00460861 

-0.0246683 0.023025 -0.00413777 
0.010113 0.0265528 -0.0286177 
-0.00211395 0.003212 0.0150504 

-0.00774075 -0.0244955 -0.0377505 
0.00830814 0.0115474 -0.00662927 
-0.000975333 -0.000453589 -0.0201436 

-0.0791026 0.0230137 -0.0240134 
0.0848278 -0.0277652 -0.0209085 
-0.0819291 -0.0831453 0.258838 

-0.0617381 -0.0173654 -0.274902 
-0.00137469 0.0366083 2.05774 
0.009725 -0.00157545 -0.214831 

-0.0198347 0.0179759 0.343905 
0.0400391 0.0255166 -0.52048 
0.0135878 0.00230992 -0.00306939 

-0.00544526 -0.0334515 -0.072978 
-0.00269899 0.00947436 -0.103064 
-0.023289 -0.0470222 0.279637 

-0.329521 0.412322 1.26802 
-0.13921 0.374651 0.0816916 
0.0292212 0.0264336 0.279221 

0.0293595 -0.163968 -0.344094 
0.228247 0.0452662 0.211986 
0.011646 0.00466583 -0.0138124 

-0.0447621 -0.00822996 3.30378 
0.0174489 0.0420822 -5.42754 
0.000112426 -0.00089616 -0.19134 

-0.194477 0.0148936 -3.05781 
0.0279155 0.178496 -0.807584 
-0.00879936 0.00558393 -0.0604668 

0.00815148 -0.151719 -0.0627089 
0.150499 0.00930164 -0.0893821 
0.0189013 0.055318 0.00141183 

-1.28663 0.745634 14.2011 
-0.597578 0.797008 6.33183 
0.0194999 -0.00629371 -0.492521 

-0.0135817 0.0556238 -0.0189516 
-0.018141 0.00700002 0.0478355 
0.00261131 -0.00331625 0.0305584 

-0.0959996 -0.0562238 -2.24632 
0.130614 0.0749437 4.64298 
-0.0131697 -0.0110462 0.110576 

-0.0623095 -0.114274 -0.36986 
0.237599 -0.00296022 0.0690666 
0.00455447 0.0291703 0.165038 

-0.026723 -0.202141 0.0956655 
0.31072 0.0704451 -0.0464618 
-0.0600503 -0.0501003 0.280676 

-0.0111012 0.0319945 -0.0850078 
0.0547825 -0.0214839 -0.0465697 
0.00033191 0.00197299 0.0306929 

-0.0085681 0.0339817 0.0703022 
0.0303594 -0.000964774 -0.0445266 
-0.00281528 0.00127276 -0.0226783 

-0.0902323 0.0508076 1.59281 
-0.05329 0.0879118 1.24494 
-0.0276499 0.0213454 -0.0538213 

-0.00176994 0.0216858 0.0038763 
-0.0238002 0.000772246 0.00133091 
-6.32389e-05 5.54557e-05 0.00213674 

0.0529533 -0.118629 0.100216 
0.160808 -0.05154 0.294425 
0.00307546 -0.00491952 -0.0452003 

-0.0670196 -0.119504 -1.44517 
0.114906 0.0746392 2.43753 
-0.00297067 0.000842905 -0.0921164 

0.0738287 0.0115647 -0.272558 
0.0272261 -0.0989148 0.122611 
-0.0162688 -0.0213133 -0.0260451 

0.122129 0.228656 -1.56585 
0.102169 -0.0612362 1.34759 
-0.00631176 -0.00471916 -0.0298009 

-0.0128103 -0.0517753 -1.79181 
0.0396528 0.012553 -1.87835 
-0.00171396 0.000998126 -0.0724073 

-0.0227812 0.00941497 0.0868499 
0.0370482 0.00112423 -0.00805351 
-0.000937975 -0.00140276 0.0274087 

0.0222487 0.0477595 -0.0292476 
-0.0476417 -0.00241111 -0.00360541 
0.000381723 0.000998142 -0.00209778 

0.0147585 0.049352 0.0384517 
-0.0390727 -0.00660174 -0.0399105 
0.0023349 0.00411289 0.000419307 

-0.0170842 0.0140383 -0.239461 
-0.0166312 0.00724323 -0.369317 
0.00265552 -0.000721647 0.109057 

-0.0215907 0.00159026 -0.027579 
0.00818316 0.00352075 0.0208223 
-0.00101426 -0.000116996 0.0173102 

-0.0141269 -0.0162916 -0.0146816 
-0.0240497 0.0180343 -0.0560677 
0.0124644 0.0047689 -0.0429284 

-0.119146 -0.180389 0.716658 
-0.235472 -0.0168729 -2.86242 
-0.00934224 0.0267924 0.919227 

0.00807382 0.0171558 -0.00356913 
0.0093147 -0.000393575 -0.0070173 
0.00182491 0.00281583 -0.0213604 

0.0808242 0.229941 -0.176459 
-0.601758 -0.0616393 1.06865 
0.0128029 -0.000586736 0.222825 

-0.347275 0.139623 2.81838 
-0.0372304 0.311587 -1.42368 
0.0019893 0.00394507 -0.0698958 

-0.00471388 -0.0191275 -0.00937931 
0.0202762 0.000985735 -0.0168009 
-0.00148916 -0.00127212 0.0278392 

0.00160199 -0.0807722 0.0036607 
0.0964234 0.0110216 -0.0863024 
-0.000525852 0.000215582 0.00792033 

-0.0995069 0.118374 0.376168 
-0.0720454 0.0114167 0.0628186 
0.00670488 -0.00465889 0.0780239 

-0.188106 0.0230653 1.19862 
-0.00319361 0.0846503 0.416509 
-0.0229849 0.0105215 0.0142624 

-0.0045474 -0.00342249 -0.0103582 
0.0034603 -0.000292999 0.0182155 
0.000678008 -0.000335046 0.0061578 

-0.620772 -0.113878 0.131654 
-0.101294 0.58687 -1.89531 
0.00976787 -0.119804 0.247345 

0.165648 -0.139753 0.32327 
-0.0894359 -0.220236 0.284793 
0.0108038 -0.0441897 0.0371569 

-0.00851179 0.0105485 0.023708 
0.00316316 0.00996744 -0.0222909 
0.000709308 0.00441247 -0.0180707 

-0.0230043 0.0389724 0.0322466 
-0.0112352 0.0033084 0.0617342 
-0.00775557 -0.0476185 0.1279 

0.067447 0.185247 0.00466161 
-0.0562726 -0.0716312 -0.528591 
0.0594528 -0.0347628 0.955657 

-0.564709 0.327027 -1.08463 
-0.014259 0.417565 0.150326 
0.00244146 0.0440647 0.241889 

0.0375445 -0.411445 -0.821032 
0.277433 0.0748144 0.393052 
0.0395079 -0.017344 0.617367 

-0.0206537 0.0132536 0.0485544 
-0.000840464 0.00869387 -0.00509579 
-0.0169927 0.0242669 -0.000943012 

-0.051872 -0.212929 -0.539311 
0.199039 0.0225454 0.103428 
-0.00751197 0.00944997 0.045872 

-0.00149166 0.0341124 0.0922078 
-0.00732548 -0.00257786 -0.095447 
0.00210213 0.00119756 -0.0503381 

-0.027732 -0.00369199 -0.584903 
0.0423601 0.0711468 -0.173083 
0.0332908 0.0285052 0.236148 

-0.13099 -0.169791 0.0288975 
0.239892 0.0553105 0.10606 
-0.00654011 -0.0549216 0.108421 

0.000983901 -0.039074 -0.175951 
-0.0392064 -0.030357 0.60903 
0.0184912 0.0287149 -0.215261 

-0.153311 -0.184555 1.55354 
0.12814 0.247142 -2.67196 
0.00670963 0.0139945 -0.163476 

0.0230571 -0.00757458 0.0172987 
-0.027063 0.0477927 0.0227878 
0.0157549 -0.0230037 -0.0844569 

0.0668911 -0.156864 -0.484218 
0.0680179 -0.0483293 -0.303669 
0.0115284 0.00292187 0.0519175 

-0.00366844 0.0011866 -0.00979029 
0.0037761 -0.000953243 0.00235561 
-0.000634459 0.000359475 0.0116818 

-0.340676 -0.295626 -0.863975 
0.0721694 0.237164 0.100754 
-0.00661177 0.0212321 0.0399813 

-0.155384 0.0229478 0.48089 
-0.193074 0.143746 0.10034 
0.0525919 0.036072 0.0323795 

-0.0349619 0.0446023 0.0517626 
-0.0500725 -0.00799305 -0.553212 
-0.00648535 -0.0052445 0.130399 

-0.0223547 0.00780279 0.0941476 
0.0242649 0.0100126 0.0718184 
0.000700563 -0.00109924 -0.00879829 

-0.00968141 0.0232552 -0.0236984 
0.0520282 -0.0212709 0.0896545 
-0.00512147 -0.00272473 0.0270697 

-0.180445 -0.0638215 0.230069 
0.0117338 0.18389 -0.746315 
-0.0483246 -0.0907225 0.892867 

-0.219776 -0.173888 0.213163 
-0.0894043 0.123071 0.837159 
-0.00239825 0.025934 0.00600817 

-0.0370601 -0.169699 -0.33482 
0.140348 0.106042 -0.408088 
-0.00206727 0.0149756 0.0797186 

-0.00859927 -0.00898898 0.0138009 
0.0221162 0.00377509 -0.00961828 
0.000729049 0.000648968 0.000363098 

0.027049 -0.456701 -0.160091 
0.328111 0.0708204 -0.639743 
0.0109082 -0.00414948 0.0109099 

-0.00120761 0.0106178 0.00726082 
-0.00711363 0.000899307 -0.00885777 
0.000878207 -0.000567152 0.0109762 

-0.00369964 0.0479824 -0.0171025 
-0.0612181 -0.0146199 0.0618519 
-2.19682e-05 -0.00179545 0.0334007 

-0.00201719 -0.0786203 -0.0385846 
0.0521769 0.00320142 -0.0161698 
0.00456657 -0.00538692 -0.00832351 

-0.0072177 -0.0130677 -0.0292287 
0.00487281 0.00023859 -0.0273182 
0.00436026 0.00210323 0.020465 

-0.00721316 -3.48412 0.129827 
0.00402029 -0.0150297 -0.0273632 
-0.00104179 0.0373643 -0.0114068 

-0.0126558 0.0784918 0.0344953 
-0.103896 0.0238616 0.0222832 
0.0144851 0.0241072 -0.0702691 

-0.0593301 0.0301092 -0.137703 
0.0446264 0.0533195 -0.0484299 
-0.000970643 0.0018056 0.0523251 

0.0315296 0.309899 -160.707 
-0.00408663 -0.0281091 12.7302 
0.00148725 0.00787721 -2.17944 

-0.0913294 0.146513 -0.0503549 
-0.141782 0.135206 0.018761 
0.0679846 0.0286515 0.542146 

-0.0437923 -0.0190031 0.0147982 
0.0754049 0.00140958 -0.0616592 
0.00468609 -0.00790049 0.0247321 

0.0930541 -0.281608 -2.57439 
0.115837 -0.0444369 -2.00881 
0.0110124 -0.00292103 -0.0705248 

0.0299475 0.0204701 0.0991285 
0.0221481 0.0195607 0.0388887 
0.00665023 0.00228963 -0.0251937 

-0.00621234 0.0274723 0.0549164 
-0.0794139 0.014068 0.270868 
-0.018919 -0.000518824 0.0139353 

-0.00310594 -0.0647153 0.0259349 
0.016855 0.0366195 -0.0291543 
-0.00100906 0.00763159 0.0412561 

0.000470155 0.0162661 0.0821283 
-0.029746 -0.0357719 -0.201785 
0.000927673 0.00746002 0.0275135 

-0.00813524 -0.0391802 0.119396 
0.0160319 0.020458 -0.12311 
-0.00706611 0.00953348 -0.0265466 

-0.0622999 -0.0948252 0.0203063 
-0.169332 0.0143872 0.0959912 
-0.00704608 -0.00577592 0.0573902 

-0.121743 0.111795 -1.33332 
-0.0192601 0.0723066 0.0701873 
0.0167102 0.0487199 -0.0372077 

0.0045018 -0.0216043 -0.10315 
0.00490466 0.000879477 -0.115465 
0.00138444 -0.000947357 0.0062578 

0.019836 -0.258283 -1.23813 
0.257271 0.0761882 -1.3695 
0.0105586 0.0042929 -0.340957 

-0.0357581 0.0253903 -0.245626 
0.0656293 0.0288873 0.836551 
-0.0032623 0.00559135 0.0869204 

-0.390565 0.102193 -0.153399 
0.116023 0.266052 0.0106361 
-0.000473376 0.0844877 0.530644 

-0.165547 0.105602 0.245356 
-0.20838 0.0491029 0.336413 
0.00850102 0.00329302 0.0869979 

0.0549466 0.138236 -0.210801 
-0.111469 0.0575225 -0.4089 
0.00199513 -0.00346623 -0.0434793 

-0.0138828 -0.0226483 0.022485 
0.0363543 0.0179067 5.01351e-05 
-0.000619364 -0.00262314 0.0143856 

0.000224594 0.020188 -0.0621322 
-0.0217724 -0.00215551 -0.0314 
-0.00013054 -0.000166658 0.00860851 

-0.0382587 0.000384855 -0.0732093 
0.0142274 0.00572353 0.00791229 
0.0499692 0.0368911 0.0804414 

0.028348 -0.119225 0.252514 
-0.111348 -0.00970053 -0.259983 
-0.00409593 -0.00599986 0.0430911 

-0.0153847 -0.0538238 0.121394 
0.0202999 -0.0132771 1.42981 
-0.0135376 0.0240633 -1.10194 

-0.046454 0.0112701 -0.218533 
0.0404329 0.0289508 -1.1591 
-0.00559257 -0.0243145 -0.16449 

-0.0753546 0.0658411 -0.048453 
-0.0342468 0.0234598 0.0119894 
-0.0112376 0.0845162 0.0655309 

0.0405538 -0.27165 0.336412 
0.123738 0.143039 -1.47164 
0.0378251 -0.00582887 0.0308663 

-0.0591027 -0.0199407 0.101563 
0.00680919 0.051929 -0.828766 
0.0106543 0.00928723 0.278966 

0.0150405 -0.0130736 0.505341 
0.0267925 0.00800106 -0.29072 
-0.0056604 -0.015116 -0.0504809 

0.00338174 0.00858519 -0.00112074 
-0.00154897 -0.00173145 0.00571274 
0.000641843 0.000159322 -0.00174435 

-0.114288 -0.0202839 -0.144983 
0.058288 0.0722687 -0.158884 
0.0304218 0.0179202 0.26237 

-0.191688 -0.361904 1.09913 
-0.0886705 0.100969 -0.555171 
0.0033813 -0.000944732 0.0242782 

0.096422 -0.310849 0.0428114 
0.367368 0.0542745 0.109843 
-0.000643586 -0.00482234 -0.0382319 

0.0571974 -0.181722 0.0263984 
0.278591 0.0129232 0.0787429 
-0.0191611 -0.0145454 0.00840195 

-0.268012 -0.249304 0.0967915 
-0.0160663 0.206199 -0.139724 
0.012708 -0.0641764 0.190768 

0.00679757 -0.114294 0.0376928 
0.0908399 0.00332962 -0.0221509 
0.00449842 -0.00369181 -0.0137785 

-0.023808 -0.140848 -0.0144793 
0.171522 0.0376774 -0.198355 
-0.00770934 0.0118459 0.0416495 

-0.0217012 -0.0123018 -4.17242 
0.0035455 0.0159881 0.753743 
-0.00732742 0.00468159 -0.0578604 

-0.0545786 -0.0705779 -0.409108 
0.0835568 0.00631531 0.614472 
-0.0441131 0.0280204 0.288113 

-0.00371953 0.00941688 -0.0354065 
0.0133961 0.00281792 -0.0630831 
-0.00693065 -0.0253121 -0.106959 

-0.0163047 7.75984e-05 -0.0649209 
-0.0385472 -0.0114575 -0.0563779 
0.000790368 0.000827309 0.0547408 

-0.113505 -0.168266 0.605473 
0.269943 0.286203 0.782442 
-0.023504 0.0785546 0.0568137 

-0.0188615 0.0303566 0.0405643 
-0.0300039 0.0067049 -0.0361099 
-0.000324337 -0.00069675 0.0309287 

-0.021802 -0.133546 0.138908 
0.142255 0.0261803 -0.00552014 
0.00191036 -0.00175786 0.0171673 

-0.00720247 -0.0534649 -0.0515917 
-0.0505448 0.0220991 -0.152201 
-0.00104934 -0.000912187 -0.00937327 

-0.176755 -0.496766 1.06241 
-0.25662 -0.0397225 -1.03548 
0.00189831 0.0358101 -0.289214 

-0.633055 -0.12883 -0.874979 
-0.280016 0.390261 -0.691641 
0.0146984 0.0720679 1.01211 

-0.0265246 0.322475 0.283398 
-0.00958905 -0.00259649 0.523299 
-0.028375 -0.0124157 0.0823547 

0.0430008 -0.0532494 -0.966983 
-0.121989 -0.00554994 -0.18549 
0.00913296 0.00387715 -0.0235985 

-0.00507144 -0.0213104 -0.0806218 
0.0316388 0.00670696 0.0506385 
0.00389153 -0.000414926 0.0110294 

0.0162163 0.0638434 -0.0128114 
-0.0501673 0.00157069 -0.246843 
-0.0214068 -0.00173167 -0.0315605 

-0.0096841 0.00103942 0.0261863 
7.44227e-05 0.0230151 0.127406 
-0.00220329 0.00361693 0.0726204 

-0.00153764 0.0812537 0.00847166 
-0.0648313 0.0128503 0.0865509 
0.00451288 0.0355314 0.232556 

-0.0754028 0.00540366 -0.20385 
-0.0133238 0.0236926 0.233208 
0.00467382 0.0120237 -0.123635 

-0.0288257 0.00906084 -0.131912 
-0.116225 0.0130392 -0.0915996 
0.0251719 0.00953145 0.282283 

0.0336488 0.261693 0.0536368 
-0.329437 0.0764489 0.262667 
-0.0230748 0.0309014 0.350512 

0.01723 -0.0423732 -0.0783709 
0.133201 0.0146707 0.264523 
-0.000271612 -0.00376096 0.0257589 

0.00418214 0.0789202 -0.0808464 
-0.067888 0.0203968 0.00360584 
0.00557673 -0.00144044 -0.0135752 

-0.0406366 -0.00694371 0.0656576 
0.06756 0.0481338 0.00771513 
0.00383524 0.00482193 -0.0746037 

-0.0292452 -0.0432424 -0.0275367 
0.00958757 0.011845 0.0302232 
0.00741812 -0.00173745 -0.00100158 

-0.00697085 0.0108344 -0.00224759 
0.0059892 0.00143969 -0.00570052 
0.0171854 0.0141674 -0.174582 

-0.163719 0.104781 -1.59753 
-0.158489 0.130094 -1.20537 
-0.00783396 -0.0466132 -0.354301 

-0.0504926 -0.173696 0.391261 
-0.060353 0.13023 -0.0105561 
0.000251521 0.000120598 -0.025847 

0.0157255 -0.0171165 0.189253 
0.0301254 -0.012512 -0.0833373 
0.000750675 -0.000803641 -0.0656254 

-0.188674 0.342725 -1.4652 
0.31778 0.130726 1.14952 
0.00348665 0.00312269 -0.0303098 

-0.0115776 -0.0081333 0.289907 
-0.00588961 0.0159634 -0.0305601 
-0.0215224 -0.0128382 -0.0231185 

0.00043366 -0.00871276 -0.268283 
0.0127181 -0.00683783 1.82069 
0.0014634 -0.00130993 0.362647 

-0.0122497 0.0511006 0.132545 
-0.0489764 -0.00768723 0.114327 
-0.0201972 0.00698983 -0.00666869 

-0.0571476 -0.0611918 0.0589127 
0.0354747 0.0066143 0.252722 
-0.00213605 -0.00811573 -0.0133227 

0.0582739 -0.508985 0.751552 
-0.0455543 -0.0489873 0.00633552 
-0.0139816 -0.00611638 0.133726 

0.00992383 0.00482564 1.31151 
-0.0216193 -0.00963102 -0.610263 
-0.000605399 7.3717e-06 -0.0695971 

-0.125732 -0.0148123 -0.372519 
-0.0455607 0.0545015 -0.0411228 
-0.00105993 -0.00365315 0.0842746 

-0.350485 -0.0022771 0.467521 
-0.0716338 0.22466 1.08463 
0.0493908 -0.00838249 -0.0676241 

-0.00120835 -0.132623 0.612134 
0.0284472 -0.0268541 4.30401 
-0.000260999 0.000144832 -0.145411 

-0.0687054 0.0254511 -0.849912 
-0.126996 0.110775 0.837398 
-0.0250813 -0.0072859 0.0826838 

-0.389841 0.127434 1.57673 
-0.24452 0.371521 -3.70825 
0.001478 0.00262338 0.162052 

-0.208631 0.0314548 4.61394 
-0.375507 0.371679 4.00993 
0.0428282 0.0455402 -0.0218344 

-0.167959 -0.538121 1.30721 
0.304284 0.317967 -0.955808 
-0.0351258 0.0179519 0.0859637 

-0.00691161 0.0137507 -5.34484e-06 
-0.00350323 -0.00674228 0.00218714 
-0.0020768 0.00104623 0.0155709 

0.0102545 -0.0232099 0.0412922 
-0.00788531 -0.0191706 -0.0760627 
0.000242702 0.00079626 -0.00449994 

-0.268044 0.192341 0.271441 
0.0653082 0.18042 0.382279 
-0.0924197 -0.0589392 -0.232168 

-0.021694 -0.0109421 0.300681 
0.0202893 -0.00499472 0.107367 
-0.00272969 0.000440762 0.165029 

-0.00138209 0.0104014 0.00840967 
0.00567038 0.0024795 0.0233614 
0.000784538 0.000110516 0.00858858 

-0.0111072 -0.033115 0.0876708 
0.0080281 0.0137938 -0.302523 
0.00336842 -0.00345788 0.108187 

-0.0083026 0.0751619 -0.0134066 
-0.0796669 -0.00290963 -0.29423 
0.000525952 0.000900701 0.0206343 

0.0146701 0.0518708 -0.095845 
0.0569901 -0.0146507 0.148174 
-0.00331236 -0.000704959 0.0177705 

-0.133349 -0.213156 -0.0524677 
-0.44347 0.0281196 -0.506143 
-0.00132384 0.000399769 0.000457907 

-0.010641 -0.0828648 0.230748 
0.0128065 0.00141737 -0.0845115 
0.00460222 0.00484153 -0.0255706 

-0.388808 0.0624691 0.758415 
0.0683584 0.230268 0.240087 
0.0841115 0.0637207 0.365235 

0.0176543 0.00864141 -0.0716808 
-0.0042865 -0.01277 0.020469 
-0.00845566 0.00330293 0.0284282 

-0.0176814 0.0826342 -0.0163287 
-0.0325354 -0.0124522 -0.0226608 
-0.00348569 0.00137302 0.0710282 

-0.0430158 -0.0276428 -4.87932 
-0.0182826 0.0475458 8.64361 
0.00131535 0.0078624 0.517303 

-0.39573 -0.620813 -0.446377 
0.169024 0.373175 0.249581 
-0.0047211 0.110048 0.205232 

0.015291 0.00929044 -0.198277 
0.00146697 -0.000728715 0.15477 
0.00079086 0.0017127 0.00531783 

0.000623111 -0.0814424 -0.326347 
0.0713985 0.113266 -0.0789552 
0.00664597 0.0081529 0.182156 

-0.189299 -0.218571 0.884373 
0.0157409 0.0357442 1.25316 
0.00558694 0.0367695 0.196862 

-0.0270554 0.00884257 0.187616 
0.0235847 0.00950863 -0.154122 
-0.00160736 0.0065783 0.275899 

-0.176424 0.131595 0.62056 
0.582743 0.197889 -0.0894562 
0.0692804 0.0152166 0.56675 

-0.00162343 -0.000791363 0.0157325 
-0.0102281 -0.00703562 0.0172104 
-0.00168559 0.000885013 0.0202393 

-0.136851 0.0360724 0.0779618 
0.0583999 0.0556427 -0.19106 
-0.00259139 0.00408511 0.164559 

-0.00426614 -0.0950181 0.112718 
0.0587128 0.00503641 0.325258 
0.00112761 0.00268885 0.0228306 

0.0173638 -0.11039 -0.223703 
-0.0177462 0.0242444 0.15373 
0.00483676 -0.00671008 0.00775634 

-0.0807033 0.00261366 -0.651621 
-0.0602622 -0.0269343 -0.104962 
0.00115384 -0.0171088 -0.0714912 

-0.0580867 -0.0924465 0.0798064 
-0.0423342 0.0352555 0.505891 
-0.00792334 0.00339642 0.0662408 

-0.25535 -0.0524822 -0.230865 
-0.121107 0.221348 0.0112162 
-0.0161659 -0.0344409 0.246075 

-0.0281911 0.0798731 4.86519 
0.061738 0.128516 0.304883 
-0.00224234 0.00364298 -0.10617 

-0.243439 -0.35422 -1.44104 
-0.213618 0.059104 0.188035 
0.00965029 0.00753126 0.266767 

-0.0112847 -0.092956 0.0151624 
0.104495 -0.00335667 0.0251468 
0.00493525 -0.00479251 0.0313901 

-0.128859 -0.441171 1.48541 
0.0155092 0.577534 -1.67363 
-0.0124526 -0.102401 0.457272 

-0.053642 0.0270062 0.0185399 
-0.123743 -0.0166516 -0.048844 
0.00296892 0.00852202 0.0717619 

0.00854098 -0.279174 -0.0440613 
0.398889 0.0858009 -0.00536579 
0.00147336 0.00614327 -0.0588932 

0.056936 -0.144495 0.00275136 
0.116186 0.0623603 -0.178459 
-0.00834796 -0.00588472 -0.0694085 

0.0211414 -0.0925425 -0.0786141 
0.0653587 -0.0425581 0.176846 
-0.0140629 0.025489 0.0504969 

-0.0115524 -0.0736577 -0.296941 
0.167611 0.0429545 -0.578991 
-0.000464168 0.0015306 0.0240198 

-0.00859552 -0.0016939 -0.159068 
-0.0302153 -0.00174947 -0.110231 
-0.00622691 0.0062496 0.128094 

-0.002675 -0.000479232 -0.00183677 
0.0242302 -0.0107582 -0.0077476 
7.49688e-05 0.00211384 0.00498469 

-0.228466 0.0155714 0.505077 
-0.672103 0.379997 0.988438 
0.00480271 -0.0133749 0.056159 

-0.0129728 0.00629146 -0.0581505 
-0.0098334 0.0182913 0.0438016 