# vtk DataFile Version 3.0
Output file generated by Yade's KinematicLocalisationAnalyser
ASCII
DATASET UNSTRUCTURED_GRID

POINTS 13483 float
643.215 28.3242 -0.429118
838.178 47.5668 0.543835
125.729 6.1552 -0.46303
876.819 4.73055 0.410316
524.102 7.60249 -0.302979
329.114 34.7932 0.315382
163.699 6.83272 0.418598
601.012 10.1186 0.137912
521.062 23.0664 0.1395
777.243 12.3441 0.384411
219.968 8.81775 -0.125983
268.542 6.30314 -0.263947
695.779 29.2475 0.169417
672.954 13.9409 0.0723637
143.539 17.1162 0.441438
231.626 34.2723 -0.397781
227.527 12.9111 -0.277025
301.87 9.51806 0.388913
356.378 32.5724 0.271437
551.454 8.59502 0.344772
430.33 36.3709 0.103616
625.136 44.4242 -0.283972
871.093 36.8067 -0.452242
749.889 41.3575 0.444859
481.129 16.1145 0.283601
251.823 43.9617 -0.123255
515.793 27.3091 -0.486523
619.777 19.163 0.220148
47.2593 15.4432 -0.460936
773.136 32.8367 -0.317055
506.079 4.90745 0.313418
17.3506 22.9908 -0.293135
851.306 47.4001 0.263835
519.791 2.4668 0.489902
81.8759 44.0366 0.101638
548.337 30.2591 -0.359607
558.026 16.6005 -0.417318
359.492 22.2479 0.182266
561.653 25.2893 -0.321021
367.008 33.0141 0.455666
252.047 14.5048 0.299605
455.099 35.4507 0.0713596
724.701 7.32844 -0.179652
201.663 6.19914 0.374457
58.0703 6.88708 -0.128041
71.738 8.78614 -0.268616
742.976 8.95481 0.448181
24.6158 11.6437 0.273159
647.217 44.1803 -0.354299
726.744 23.1409 0.320759
180.679 32.0692 -0.309969
835.053 34.6112 -0.146277
36.757 27.9234 0.113685
562.114 2.97594 0.319599
148.762 7.4179 -0.498213
628.336 33.7761 0.438304
530.037 26.2225 0.121354
182.95 0.941196 -0.261367
34.3262 2.41084 0.293953
364.795 17.6631 0.27639
658.997 44.9869 0.136795
484.984 33.297 -0.172707
418.485 1.03253 0.193256
754.815 7.62197 0.382997
27.7834 42.5816 0.235743
268.123 30.4051 -0.319096
777.395 7.66913 0.187558
717.748 44.8158 -0.363752
437.827 8.53035 -0.487455
601.819 3.53409 -0.343945
810.474 30.1661 0.377348
137.002 7.55208 0.287068
523.977 25.3279 -0.12462
501.702 14.739 -0.145925
308.37 16.6107 -0.319702
21.671 13.5801 0.222657
860.186 40.2761 0.364329
348.545 38.5312 -0.280711
724.315 20.061 0.318804
742.481 12.8562 -0.274877
863.736 12.7729 -0.22336
488.584 34.2329 -0.168021
96.81 38.2564 -0.279908
736.203 33.7127 -0.207378
691.878 37.6402 0.114423
877.982 41.0063 0.123556
857.668 0.734752 -0.577121
304.86 28.7497 0.448632
661.261 6.28111 -0.1224
25.4839 5.2087 0.468685
139.435 37.786 -0.141473
539.973 14.2329 0.21629
847.964 27.7605 -0.442799
204.967 28.4014 0.243258
46.5836 34.2834 0.272331
518.647 1.1592 0.127476
247.137 8.84255 -0.361902
814.757 39.012 0.255834
836.614 26.8537 0.243896
379.195 20.416 -0.272395
172.093 26.6501 -0.466138
581.267 38.0418 0.402705
399.284 15.3052 -0.413408
434.703 29.4071 -0.108768
397.274 4.46919 0.407545
579.107 10.7646 -0.094101
879.996 13.1773 0.18769
84.1636 38.9269 0.395635
352.143 4.80468 -0.181042
594.243 9.47473 -0.348458
378.45 43.5328 0.446274
26.9909 24.214 -0.484501
31.9909 5.71365 0.325486
602.837 31.9814 -0.397887
533.25 23.9082 0.136268
27.7351 36.6651 0.407605
97.7235 30.4431 -0.232465
341.661 15.8501 -0.298388
639.145 18.8772 0.116559
501.275 37.7796 0.310736
795.64 7.55583 -0.440168
787.48 6.454 -0.195716
407.336 36.8527 -0.0977871
678.939 24.805 -0.0994583
250.577 16.8447 0.467212
347.136 3.69846 0.463518
108.887 31.1846 -0.374401
122.319 23.8869 0.258239
576.281 38.2891 0.0730698
321.97 18.7309 0.487402
768.555 35.7032 0.0977243
722.045 44.1773 -0.113608
507.657 20.3102 -0.372257
839.679 10.0787 0.26389
452.187 23.3435 0.232257
291.415 24.1948 -0.297199
724.346 31.3981 -0.317681
293.677 28.2211 -0.396711
613.102 11.6262 -0.195474
349.69 35.2356 0.193644
533.989 11.4499 0.465757
386.775 31.1753 0.0970039
454.605 16.5485 -0.104107
335.393 41.5224 0.338157
201.047 29.6506 -0.12181
842.786 46.8286 0.146844
876.312 14.4531 -0.29912
6.20707 11.9046 0.441454
458.696 22.2191 -0.405941
40.4335 22.4343 0.0792388
397.185 31.1105 -0.354207
417.418 24.4173 -0.263901
78.7699 11.7657 -0.477109
54.75 32.9319 0.382505
238.413 13.4267 0.414382
660.621 38.7057 0.418043
615.598 20.424 -0.424808
79.1058 20.8318 -0.473969
752.652 45.0061 -0.422661
825.51 2.53537 0.51796
710.207 40.5882 0.538392
749.794 2.3256 0.388809
585.769 26.8098 0.419071
626.737 44.4871 0.437419
543.871 17.9368 -0.380785
875.567 2.83111 0.3466
236.22 24.4507 0.113708
134.792 34.7898 -0.191847
261.134 6.43449 0.381365
99.8251 4.19405 0.265737
67.9544 9.99729 0.198189
291.385 35.6433 -0.320869
17.4362 24.7353 0.35194
591.703 19.0961 -0.382481
646.915 39.2628 0.235105
490.757 21.0269 -0.364
871.661 50.323 0.38016
430.719 8.50605 -0.0985657
461.819 35.7201 -0.0797007
570.915 3.4213 -0.18843
24.1538 23.8773 0.379598
615.916 4.43954 -0.345409
581.308 4.32436 -0.288566
218.151 11.3544 0.489872
450.525 16.1606 -0.194198
329.378 6.27577 0.328397
410.964 18.7502 -0.334606
800.821 42.441 0.114339
203.038 25.7049 0.440767
849.716 6.62026 -0.322332
800.149 38.4335 0.400478
406.101 10.1768 -0.172932
774.646 2.29135 -0.439445
647.485 25.5713 -0.415648
803.873 17.9616 -0.381511
457.026 42.3913 -0.292742
528.215 12.2797 0.403873
494.061 43.9079 0.218446
472.836 8.59008 0.125577
713.616 39.6044 0.322614
711.342 35.6693 -0.356427
203.338 38.6799 0.344419
861.616 12.0532 -0.187018
629.113 44.9705 -0.24124
11.8228 16.8935 0.202866
432.144 24.8179 0.335181
198.373 22.9095 -0.401756
98.4591 39.1346 0.20833
845.901 25.5903 -0.438992
706.629 44.027 -0.241297
338.084 25.2959 0.356949
567.646 10.1293 0.31801
87.0877 44.0336 0.168246
262.311 25.7311 -0.449673
594.902 23.0317 0.362934
517.785 18.4515 0.372676
278.302 0.892091 -0.343324
590.888 39.6921 -0.367037
569.455 40.3796 -0.461909
512.802 32.6681 0.378263
531.38 0.7764 -0.497996
760.772 18.9498 -0.346011
190.307 12.001 -0.165341
532.918 36.2331 0.442904
603.861 39.0092 0.129455
77.3291 0.939567 0.275526
266.695 4.71723 0.172079
875.618 16.3402 0.249441
862.894 14.5557 -0.576726
882.383 18.2623 -0.460463
321.621 8.54918 -0.226742
811.042 23.5609 -0.388337
432.319 41.1197 -0.314597
477.202 0.818574 -0.397182
698.607 35.5954 -0.551503
28.81 30.3847 -0.30753
350.715 40.8333 -0.516892
267.579 2.85592 0.320044
856.186 45.8572 0.202036
772.017 48.2224 0.2198
304.6 10.8704 0.213519
718.187 29.2397 -0.0866475
596.013 2.67072 0.292307
579.005 6.37716 0.418955
102.64 18.1929 -0.484982
321.479 1.03354 -0.224247
364.194 2.27432 -0.359348
14.798 7.63837 0.368841
4.61968 30.78 0.258697
171.84 18.7002 0.396933
72.5454 41.4098 0.218563
70.7467 28.6684 -0.330975
450.226 14.3028 -0.435362
389.911 34.7169 -0.474319
832.677 36.6183 0.142376
20.6877 4.03152 -0.269026
74.9087 6.82059 0.124704
671.311 37.5406 -0.191347
312.519 0.945007 0.313722
387.361 15.7738 -0.128776
249.949 4.59801 -0.399148
703.467 21.3594 -0.17833
480.491 8.36901 0.403381
812.715 20.899 -0.341628
678.082 28.3786 -0.311451
723.31 17.9476 -0.115875
446.736 26.6915 0.518563
108.315 44.2799 0.315432
580.005 41.8339 -0.0734092
800.799 13.3569 0.262033
252.315 30.0011 -0.241751
34.1189 17.0249 0.168437
357.098 13.6384 0.498026
114.139 40.1113 0.461147
284.102 42.0681 -0.204982
452.493 1.08976 -0.217149
858.258 35.1063 -0.462988
742.101 0.711375 -0.513517
352.726 3.17927 0.516525
318.536 26.471 -0.156098
492.815 40.7007 0.210625
86.7695 7.91234 0.421298
210.117 44.8088 0.377415
841.29 29.8936 0.351395
527.939 38.5565 -0.0933313
212.509 40.9146 -0.259236
171.01 42.0041 0.266324
880.965 37.1133 -0.445257
878.472 13.9832 -0.569294
651.395 3.48304 -0.457533
201.947 24.3145 -0.103071
587.611 27.6025 0.102401
589.623 27.2336 0.265778
435.422 5.56613 -0.139711
513.443 0.932915 -0.279153
830.497 38.3314 -0.505847
90.2545 30.7147 -0.222365
709.497 18.3558 0.429838
291.38 15.4458 -0.342748
10.3905 2.32314 -0.345564
133.328 36.4314 -0.198205
71.183 22.9957 -0.469894
761.031 36.5967 0.321803
858.964 53.7225 -0.176284
197.262 28.1441 0.179053
871.422 13.5068 -0.373318
47.8856 36.1895 -0.266977
96.6168 28.8081 0.158289
683.293 13.0567 0.441863
440.378 17.6708 -0.511484
554.671 16.6033 0.12104
253.028 28.0982 0.184941
668.879 4.46586 -0.408619
882.915 13.4899 0.396711
31.7759 31.4497 -0.280079
286.949 7.70867 0.187587
236.021 15.0314 0.251479
1.09741 35.3687 0.145368
239.408 14.49 -0.370111
224.95 10.9273 0.140713
227.887 26.0954 -0.270959
141.528 27.7024 0.135216
585.939 14.8741 -0.340676
177.708 14.0805 -0.34803
850.224 45.7738 -0.247354
185.079 3.80862 0.500005
50.3598 37.1385 -0.37721
807.903 48.4218 -0.426714
298.623 31.3912 -0.376789
732.281 24.0972 0.428559
861.008 33.3691 -0.508365
319.635 9.16099 -0.107947
798.019 30.3926 0.337208
349.496 2.61005 -0.368165
442.933 23.5967 0.379205
729.805 15.6005 -0.463302
112.386 11.8444 0.415386
515.194 3.91096 -0.473374
815.589 18.2486 -0.218435
94.0075 7.85468 0.194442
299.377 14.5899 0.20232
451.089 11.5554 -0.202523
873.934 3.64661 0.58281
423.587 1.94325 -0.517716
188.031 38.5714 -0.273572
803.417 10.3389 -0.318127
136.66 35.954 -0.150205
279.679 31.2317 -0.380911
426.411 21.4491 0.202651
615.7 13.3671 -0.32488
412.178 9.7764 -0.468799
486.786 27.4812 -0.396802
839.186 47.8459 -0.453326
50.6052 10.8691 -0.111224
318.112 37.8537 -0.258262
404.149 26.8222 -0.344936
436.375 20.6911 0.24152
557.382 43.9821 0.35634
823.455 35.994 0.251162
716.7 34.9824 0.369994
240.027 34.0299 -0.378832
14.7785 31.2463 -0.159046
709.791 36.8772 -0.122235
543.906 41.0221 -0.0103523
244.188 38.9109 0.102542
740.332 30.945 -0.118793
160.888 9.21437 0.201843
390.159 20.6217 0.29382
494.579 41.804 -0.10111
440.866 19.3145 0.195838
835.238 49.483 0.303902
454.027 3.40531 0.431297
53.0018 25.0846 -0.316285
501.58 31.5194 0.336118
463.522 41.7201 0.373318
854.703 40.9925 0.251184
794.86 28.804 0.231944
579.577 18.3107 -0.177287
845.109 39.756 -0.322311
311.829 2.1915 -0.440712
403.006 28.9724 0.478956
30.9734 38.4586 -0.302547
801.203 30.6584 -0.167478
656.077 19.6035 -0.469535
493.933 0.779064 -0.474699
134.337 4.51586 0.277675
454.755 39.8452 0.0990606
12.8889 0.915833 0.312204
873.614 6.0078 -0.192541
394.307 38.7984 0.399338
[...]
POINT_DATA 13483
TENSORS Strain_matrix float
-0.0350092 -0.00184255 0.55923 
-0.0127167 0.0265918 -0.0499483 
-0.0234832 -0.0344293 -0.252251 

-0.105518 -0.386857 -14.0946 
0.122922 0.751017 39.6751 
-0.00881164 -0.00277867 0.550533 

-0.0371033 0.00606384 0.494583 
-0.0094412 0.0159653 0.0200395 
0.00253484 0.000147699 -0.0709089 

-0.716913 -0.56679 -0.37185 
0.232627 0.373199 0.177608 
0.0443419 0.018019 0.529623 

-0.0247798 0.0079469 0.00618276 
-0.0152866 0.00452639 -0.00365673 
0.00266575 -0.00314198 0.0375516 

-0.00850613 0.000558744 0.0193938 
-0.00612423 0.00693425 -0.0109043 
-0.00124908 6.42664e-05 0.00211234 

-0.029275 -0.00748897 -0.00396792 
-0.00301302 0.00905944 -0.00758249 
0.00165886 7.24461e-05 0.0144527 

-0.0110631 0.00517913 -0.000129134 
0.00269676 0.00721763 -0.000128065 
-0.00118469 -0.000202193 0.00172894 

-0.0313943 -0.0176142 0.196052 
-0.0294624 0.0249955 0.20883 
-0.0222144 -0.00578557 0.0172943 

-0.0451434 0.0193061 0.00489359 
0.0492384 -0.0377666 0.103986 
0.0315319 -0.0104571 0.207957 

-0.0209811 -0.00599204 -0.0374841 
0.0075305 0.00789217 0.0171778 
-0.000545446 0.000332473 -0.00325605 

-0.0224072 -0.0102473 0.03911 
0.00572924 0.00612471 0.0216807 
0.00221002 -0.000840618 0.00285831 

-0.0317647 -0.0465985 -0.0187792 
0.0227455 0.0457686 -0.0878783 
0.000919731 -0.00156213 0.0133337 

-0.0155329 -0.0261166 0.0122716 
0.0198398 0.00748357 0.01748 
-0.00170522 0.000465757 -0.000554566 

-0.0359284 -0.00577397 0.237252 
-0.00805768 0.0160865 -0.164617 
1.39794e-05 0.00716632 0.0665877 

-0.0134528 0.0023272 0.0743066 
-0.0134521 0.00516787 -0.0172699 
0.000368999 0.000167055 0.0141564 

-0.020525 -0.00540416 0.0249372 
0.000876178 0.00635706 -0.0111833 
-0.000377788 0.000115053 0.0133759 

-0.0348222 -0.00761878 0.0160282 
-0.00225399 0.0087696 -0.0420488 
-0.00140658 0.000764207 0.0589224 

-0.0307495 0.00920936 -0.000520937 
0.000170957 -0.00672573 -0.01328 
0.00264182 0.00394612 0.0294799 

-0.0226881 -0.00236194 0.103068 
-0.0157082 0.00506521 0.105517 
-0.00138937 -0.00616541 -0.00453061 

-0.0109344 -0.0207663 0.0398424 
0.0347693 -0.00304469 0.0200042 
-0.00180346 -0.00168478 0.0402073 

-0.0305405 -0.0525845 0.0799529 
0.0191819 0.00938481 -0.237431 
-0.0269983 0.0153273 -0.116391 

-0.606849 0.270344 -2.09593 
0.0145357 0.371455 0.388629 
-0.0679002 -0.0190821 -0.107955 

-0.0276877 0.00579292 0.0657629 
-0.0339936 -0.00213065 -0.13812 
0.00181928 0.00167018 0.0819922 

-0.00738169 -0.00963747 -0.0250088 
0.0121307 0.00459673 -0.0340965 
-0.00385089 -0.00206551 0.0360479 

-0.0420284 0.00645211 0.11252 
-0.00777866 0.037708 -0.0828885 
-0.0311608 0.0308452 0.0968246 

-0.0150989 0.00193294 -0.993969 
0.00596054 0.0171646 -3.03159 
0.000640882 -0.00172777 0.78509 

-0.0309905 -0.0078294 -0.0434299 
-0.00396601 0.0178412 -0.0232479 
0.000315805 3.31295e-05 0.0104985 

-0.0287286 -0.006789 0.812284 
-0.00322485 0.00134396 0.513873 
-0.00316289 -5.9423e-05 0.120092 

-0.0424746 -0.0189833 -0.256003 
0.0387212 -0.0121057 -0.345905 
-0.0532186 0.00727047 0.192489 

-0.00937289 0.0159889 0.0166004 
0.00877955 0.00266317 -0.00797903 
0.00139245 -0.000680839 0.00341806 

-0.0227161 0.0103906 -0.171034 
-0.0184475 0.0107296 -0.0339268 
0.00118475 -0.000447146 0.0198837 

0.0724374 -0.381141 -0.0527487 
0.24445 0.101697 -0.321389 
-0.0295439 -0.0322662 0.290431 

-0.0234703 0.0114459 0.0438471 
4.40803e-05 0.0161432 1.12741 
-0.000500515 0.000182774 0.287152 

-0.0295204 -0.0377836 0.00415125 
0.00821059 -0.0127036 -0.0533852 
-0.00868402 0.0541428 0.331296 

-0.0196 0.021488 0.01281 
-0.0361469 0.0166948 -0.0626946 
-0.000389891 -9.62672e-06 0.00987372 

-0.015299 0.00871808 -0.215229 
0.0052324 -0.00266229 0.230527 
0.00110129 -0.000189157 -0.0156812 

-0.0902528 0.0481106 0.0504966 
-0.0243807 0.06459 0.121861 
-0.00331452 -0.00432761 0.0532194 

-0.0385221 -0.00560363 0.165514 
0.0160777 0.00326897 -0.0256874 
-0.000705311 -0.00170374 0.0187477 

-0.0233783 -8.34426e-05 0.652689 
0.00117703 0.00822351 0.778728 
0.000145215 0.000550212 0.174401 

-0.0247792 -0.00940183 -0.0152786 
0.00487188 0.00438858 -0.00518851 
2.94652e-05 -0.000452064 0.011212 

-0.00741345 -0.0097168 0.0433667 
-0.000230483 0.00354698 0.0191766 
0.0613745 -0.030924 0.42248 

-0.084453 0.00910561 0.168492 
-0.00841509 0.0747179 0.132886 
0.00023009 -0.0245316 0.182403 

-0.0158801 0.00210342 0.0907883 
-0.00273677 -0.000849981 0.329945 
0.00168302 -0.00671442 1.24768 

-0.0246321 0.00614132 -0.0131046 
-0.00264266 0.00673024 -0.00462935 
-0.00106797 -0.000602316 0.0172145 

-0.0208493 -0.00719308 0.0280661 
0.0111542 0.0078866 -0.0216278 
0.00145623 0.000292703 0.00313223 

-0.0299536 0.0103445 0.0164008 
0.0235209 0.0375424 -0.0134968 
-0.0656179 -0.0231375 0.148955 

-0.0174247 -0.00748868 0.0114358 
-0.00121908 0.0139282 0.00690789 
-0.00118751 -0.000612938 0.00313926 

-0.0285984 -0.00612749 0.0357589 
0.00335172 0.00679825 -0.0864457 
0.0037696 0.0117175 0.0813789 

-0.0915335 -0.0948207 -0.431313 
-0.0242277 0.0792438 0.289916 
-0.00425761 0.00360843 0.0555529 

-0.027962 -0.033664 0.125284 
0.0330707 0.00576568 -0.00211695 
-0.0177542 0.0144296 0.15038 

-0.01006 -0.121311 0.135569 
0.10861 0.00782823 0.0450964 
0.000251361 -0.00444572 0.0336721 

-0.0139326 0.00391193 0.00259391 
0.00340067 -0.000741249 0.0428681 
0.00111379 -0.000144035 0.011337 

-0.0185036 0.0117271 -0.00750041 
-0.00985556 0.00605863 0.0138935 
-0.000595159 -9.02658e-05 0.0164952 

-0.0366608 0.00133198 -0.551502 
-0.0175421 0.0102951 -5.38838 
-0.00186485 0.00271796 -0.108748 

-0.0669266 -0.0087374 -0.142971 
0.0216882 0.020936 -0.107411 
-0.00168098 -0.0171086 0.233595 

-0.0308232 -0.00335054 -0.0213999 
0.0361969 0.0580477 -0.0645559 
-0.00257562 -0.00262002 0.0141994 

-0.0247664 0.0134459 0.123119 
0.00465545 0.0104236 0.00315365 
-0.000200728 0.0111815 -0.00449715 

-0.0127172 -0.000629902 0.0559312 
-0.0072125 0.00433553 -0.0229434 
0.000475298 0.000382471 0.016561 

-0.00140129 0.0377624 0.131336 
-0.00627334 -0.00285596 -0.067205 
0.00294906 -0.00283815 0.048711 

-0.0228797 0.0530774 0.0193908 
0.0236565 0.00313646 0.0162095 
0.00556152 -0.015657 0.0134063 

-0.017715 -0.0402103 -0.0792503 
0.000256002 0.00105301 -0.0703067 
0.000781474 -0.00152889 0.00820269 

-0.0177781 -0.0271486 -0.0812654 
-0.00321192 -0.000766574 -0.0147441 
0.0025823 0.0211345 0.0971308 

-0.020083 0.0510454 -0.0368651 
-0.0222089 0.000481436 0.269713 
-0.0154978 0.0256155 -0.18782 

-0.0510167 -0.00728175 0.027748 
-0.00555619 0.0398303 0.172189 
0.000457695 -0.0012572 0.0133785 

-0.0407237 0.0156895 -0.0250772 
-0.00325939 0.0182402 0.0329711 
0.000109291 -0.000206003 0.0411683 

-0.0143258 0.0464389 0.0245874 
-0.0318883 -0.0174368 -0.0144697 
-0.00541535 -0.00121277 0.0323286 

-0.0154656 -0.0468941 -0.0988367 
0.103622 0.0155146 0.267063 
0.0926842 -0.0454298 0.179898 

-0.0152158 -0.0035438 -0.0587808 
-0.00317958 0.000198545 -0.148049 
-3.06121e-07 0.000513327 0.139029 

-0.0222486 -0.00278975 -0.0349105 
-0.00392955 0.0113183 -0.0184983 
0.00118389 -0.0012061 0.0214627 

-0.059753 0.0565707 -0.23796 
-0.0114991 0.0912904 0.2888 
-0.00174732 0.00804345 0.0254367 

-0.0201048 0.000323013 0.055477 
-0.00961925 0.0025792 -0.0689311 
0.00178927 0.00145991 0.0311704 

-0.0148363 0.0179491 0.082302 
-0.000628361 0.0131182 0.0487782 
0.0232353 0.0395842 0.225923 

-0.0146596 0.000999804 0.0147559 
-0.0148483 0.00460642 -0.0383393 
-0.00126655 -9.66858e-05 0.0211758 

-0.0235731 0.00291497 -0.195168 
0.0158052 0.00961568 -0.0606131 
-0.00708956 -0.0694496 0.983325 

-0.0313779 0.0044989 -0.0110021 
0.00445889 0.0191092 0.002038 
0.00106773 -0.000915131 0.00746519 

-0.295673 -0.0886177 -0.865084 
-0.12028 0.160526 0.976607 
0.00122175 -0.0643203 0.159098 

-0.0221163 0.0148076 -0.0411315 
-0.00964028 0.00488626 -0.0185042 
-0.00341579 0.00455067 0.0428692 

-0.0560488 -0.019173 0.0569881 
-0.0377412 0.0711887 -0.00497779 
0.0389428 0.0310506 0.180098 

-0.0173551 -0.0304183 0.0870742 
0.0415638 0.00723337 -0.000243693 
-0.00963658 0.0361867 0.757358 

-0.382139 -0.481759 0.13629 
0.175486 0.217728 0.211718 
-0.0051006 -0.00437404 0.178323 

-0.00830182 -0.026435 -0.00957531 
0.0235619 0.00644767 -0.00847044 
0.000880164 0.000633985 0.00384614 

-0.0184377 -0.0141512 -0.061468 
0.0173335 0.0075678 -0.00115188 
-0.00942475 0.00546364 0.0166226 

-0.0071174 0.0240929 -0.00874405 
-0.0401288 0.00318824 0.0074029 
0.000103684 -0.00129417 0.00195783 

-0.0305225 -0.0225837 -0.014911 
0.0311273 0.00487526 -0.0419415 
0.00192948 0.000751857 0.0404874 

-0.316124 0.432477 0.239843 
-0.230946 0.341232 0.216079 
0.0608638 0.00366078 0.158093 

-0.17443 10.0231 0.522821 
-0.002846 0.0618319 -0.235137 
-0.014419 -0.0218368 0.263664 

-0.016136 -0.0202076 -0.033975 
0.0271288 -0.00425157 -0.102074 
0.0042766 0.00159634 -0.011652 

-0.0353211 0.0337097 -0.0755263 
-0.0261763 0.0153424 -0.0443572 
-0.00216143 0.00725566 0.0684898 

-0.0320246 0.00658244 0.0617669 
0.00469257 0.0126136 -0.290109 
-0.000784294 -0.000364956 0.060061 

-0.0162243 -0.0260962 0.0361773 
0.00567461 0.00409149 -0.00960465 
0.00387808 0.00685936 0.0329131 

-0.0131626 -0.022018 -0.0191855 
0.0243211 0.000383338 0.04529 
-0.000524365 0.00134932 0.0336622 

-0.338137 0.499182 -1.4263 
0.217601 0.15986 6.12408 
-0.00814289 -0.00648696 0.135184 

-0.0254199 0.000710182 -0.00651147 
-0.0151611 0.0113783 -0.0256539 
0.0245551 0.0110118 0.0791801 

-0.0196563 -0.00584855 0.0392415 
0.0106029 0.00762623 0.00811384 
0.00137533 0.000334534 0.0449184 

-0.0193968 0.0218387 -0.0468765 
0.00390889 0.00409252 0.0116758 
0.000398578 -0.00139445 0.0135665 

-0.0224471 0.00927012 -0.0114004 
-0.00820447 0.00372288 -0.00844591 
-0.0012897 0.000185234 0.00900323 

-0.0447458 0.116748 -0.21028 
0.0240725 0.0017382 -0.0327094 
-0.0233157 -0.0286578 -0.0960798 

-0.297789 0.905008 0.590461 
0.0480291 0.109788 -0.624966 
-0.000939588 -0.0015355 -0.0150659 

-0.027971 0.0262753 -0.186946 
-0.0364401 0.0473572 -0.00532215 
0.000482311 -0.000116434 -0.00382842 

-0.0206691 0.0031384 0.521844 
-0.0102373 0.00818481 -0.432012 
0.000469072 -0.000248456 0.0682686 

-0.0149634 -0.00907262 -0.0305662 
0.015737 -0.00247601 -0.0234082 
0.00115535 -0.00214479 0.0203708 

-0.017826 -0.00103907 -0.023579 
-0.00536098 0.0167112 -0.0583243 
0.00125357 0.00359201 0.00368749 

-0.0551093 -0.0301034 0.0703587 
0.0439256 0.0266669 0.160755 
0.0317427 -0.00355901 0.0324094 

-0.0167012 0.00330068 -0.032507 
0.00617279 0.0105371 0.0635336 
0.000752739 0.000457167 -0.0164795 

-0.0227381 -0.0026131 -0.00135264 
0.00590419 -0.000359042 -0.00528438 
0.000312606 0.00025764 0.033484 

-0.188152 -0.00616435 0.247939 
-0.0658352 0.0926094 0.0977899 
0.0219193 0.00809301 0.0939162 

-0.0447026 -0.00539356 -0.30805 
0.00237382 0.0112373 -0.176242 
-0.0244591 0.0131291 -0.45627 

-0.0200051 0.0299786 0.0640576 
0.0110643 -0.00958978 -0.0465916 
0.000545583 0.00151747 0.0291053 

-0.0416472 -0.00627342 -0.22966 
0.000478506 0.00895743 0.032277 
-0.000998897 0.00104535 0.0380369 

-0.0167079 -0.00196277 -0.148573 
0.00270604 0.00722077 -0.192631 
0.00400629 -0.0123923 -0.170367 

-0.0250198 0.00516686 -0.441618 
-0.00697243 0.0102935 -0.620478 
-0.000508215 -0.000631836 0.174085 

-0.021265 0.00847306 -0.0116698 
-0.00427525 0.00184087 -0.0147369 
0.00267333 0.00100641 0.0188806 

-0.0343847 0.0173053 0.069531 
-0.0139196 0.00960725 -0.0191368 
0.00590252 -0.00362653 0.0821469 

-0.00373516 -0.0706059 -0.03204 
0.0642804 0.0356162 -0.0716144 
0.00992446 -0.0132651 0.000832144 

-0.024387 0.00464114 -0.340763 
-0.000266179 0.0112616 0.217374 
-0.000411219 -0.000175359 0.0511357 

-0.0520275 -0.0121626 -0.125823 
0.00803541 0.0248559 -0.112291 
0.00530829 0.0588641 0.162845 

-0.0137814 0.0135868 0.00225136 
-0.00318674 0.00721277 -0.000702375 
-0.00171174 -0.000247967 0.00734872 

0.00961575 -0.0162104 -0.176335 
0.016451 -0.0290936 -0.131138 
0.00910474 0.0783292 0.0909719 

-0.00986939 -0.00982046 -0.0133403 
-0.0034886 0.000107494 -0.0072236 
-0.000225854 -0.000216817 0.0133699 

-0.191526 -0.0491241 0.203078 
0.0468217 0.0882611 0.307391 
0.0129819 -0.0799646 0.153724 

-0.115589 0.134936 0.243144 
-0.0268659 0.0555064 0.06362 
-0.0133945 0.0189748 0.337661 

-0.0102783 0.0042366 -0.0107443 
-0.00183455 2.77653e-05 -0.0101064 
0.00168161 0.000901047 0.0285599 

0.00621214 -0.0100158 -0.00525686 
-0.0113871 0.0212671 0.0596428 
-0.000621879 -0.000197412 -0.0170715 

-0.0244235 -0.00125696 -0.112251 
-0.00737129 0.0149572 0.992855 
0.000485074 0.000604164 0.0502275 

-0.0149114 0.0131981 -0.0587749 
-0.000372086 0.00287385 0.175153 
-0.000668933 -0.000648705 0.0730413 

-0.0364874 -0.0169705 -0.0336575 
-0.0299314 -0.00428824 0.0754745 
0.0240834 0.0258687 0.153311 

-0.0620736 0.00317551 0.299233 
0.0152438 0.0721187 0.203193 
-0.0110204 -0.00381602 0.0885708 

-0.0114433 -0.0234306 0.0195441 
0.0293652 0.00248663 -0.0235908 
0.000516817 -0.00133395 0.0100032 

-0.0204156 0.0100654 1.04554 
0.00582365 0.015113 -0.025005 
-0.00313675 -0.00468003 -0.264487 

-0.0369621 -0.0877994 0.0491046 
0.107193 0.0529469 -0.0461907 
0.00097332 0.0010368 -0.0123843 

-0.0588731 0.0477947 -0.00415344 
-0.0881173 0.0495243 0.124162 
-0.00101659 0.00814685 -0.031484 

-0.03464 -0.0182397 0.145397 
0.0109306 0.0288874 0.0525191 
-0.00363665 -0.0137187 0.0522314 

-0.189101 0.252566 -0.146518 
0.117105 0.0556085 0.00440928 
-0.0359475 0.0255876 0.142069 

-0.030899 0.00289046 0.0677265 
-0.0191779 0.0350535 -0.0254923 
-0.000357721 0.000911661 0.0119568 

-0.0190069 -0.000418283 0.0884696 
-0.014171 0.0280245 0.0192939 
0.0102834 -0.0149918 0.0210961 

-0.0116011 0.0190047 0.0216216 
0.00453568 0.0113527 0.0356378 
-0.0100148 0.00719594 -0.0230462 

-0.0190122 0.0273658 -0.181579 
-0.0362234 0.00348957 0.140808 
-0.000141756 -0.00174745 0.0712331 

-0.00999416 -0.00349244 -0.00650787 
-0.00745334 0.000370133 -0.00107029 
-0.00093604 0.000838933 0.0138876 

-0.0123286 -0.00723519 0.0143198 
0.0220187 -0.00732393 0.0125906 
0.000802151 -0.000877905 0.013119 

-0.0261479 -0.0460581 0.0710496 
0.0248815 0.0123158 0.000172378 
-0.00515223 -0.00526804 -0.0594462 

-0.0173222 -0.00892758 0.0288892 
-2.02421e-06 0.014237 -0.021081 
0.00021456 0.000162532 0.0161683 

-0.0262477 -0.0228513 0.0601512 
0.00964633 0.00699879 0.0156656 
-0.0053418 0.00119201 0.0128244 

-0.0220404 -0.00122662 -0.012894 
-0.0115473 0.00408709 -0.0301356 
0.000746521 0.000835497 0.0219362 

-0.00574805 -0.00402243 0.0017828 
-0.00412848 0.00288835 -0.0374307 
-0.00323452 -0.00026554 -0.0174549 

-0.0495296 -0.443214 -0.453135 
0.166187 0.214081 0.439758 
0.0142085 0.0408424 0.195471 

-0.100493 0.0808392 0.248493 
-0.0638252 -0.00613148 -0.142107 
0.00681949 0.00222948 0.185159 

-0.0349713 -0.0112598 0.174629 
-0.00526211 0.00858979 0.10086 
-0.00662741 -0.000346301 0.0340759 

-0.00833703 0.00528076 0.163518 
-0.0117382 0.00973098 -0.00451228 
-0.000245947 0.000168264 0.0117222 

-0.0271278 0.0117989 0.0465354 
-0.0158022 0.0185062 0.0393796 
-0.000861235 0.00124269 0.0162725 

-0.0206831 -0.00539057 0.248931 
0.000346093 0.024254 0.0240641 
0.0202937 0.00287015 0.100071 

-0.05894 0.0142783 0.0621694 
-0.00605088 0.0303867 -0.0231006 
-0.000219899 -0.00100876 0.0280688 

-0.0514944 -0.0221518 -0.17476 
-0.00184257 0.0266954 0.147284 
-0.0102306 0.000670844 0.0972426 

-0.029048 0.00325437 -0.263811 
0.00831618 0.00598934 -0.629964 
0.00648576 -0.00552139 0.054312 

-0.0181125 0.00607871 0.0337028 
0.00146368 0.00261066 0.00815968 
-0.000838718 0.000400909 0.0181711 

-0.0315862 -0.0109862 -0.258594 
0.0268133 0.00212438 -0.0552007 
0.00147816 -0.000499254 0.0637858 

-0.0287693 0.0016563 0.140909 
-0.00635455 0.0220974 -0.147708 
0.00133176 0.000152817 0.00358073 

-0.0146271 0.00440445 -0.641451 
0.000125683 0.00844039 -0.144615 
0.000647113 -0.000399675 0.0789997 

-0.0602321 -0.105971 0.132761 
0.0331633 0.133409 -1.58506 
-0.0216214 0.0144296 0.385785 

-0.291822 0.18758 0.291473 
-0.0672497 0.178688 0.70049 
0.0470999 -0.0343018 0.650097 

-0.0317054 0.00657485 1.43003 
-0.00123911 -0.00204964 -4.69713 
-0.000614205 -0.000110121 0.444838 

-0.0576752 -0.0253747 -0.111252 
-5.5236e-05 0.0304828 0.0490234 
0.00559226 0.0383878 -0.0590479 

-0.0718509 0.0505901 0.33982 
-0.0223794 0.0897327 0.0816327 
0.00214979 -0.000686418 0.0442426 

-0.042128 0.0163184 1.03256 
0.00720614 0.0327703 0.357085 
-0.0105646 -0.0169496 1.32591 

-0.00090885 0.0267532 -0.354195 
-0.00586505 0.0196006 0.137585 
-5.52645e-05 -0.00028468 0.0254193 

-0.435459 -0.0923177 -0.5164 
-0.353792 0.158981 0.307725 
0.0047856 0.00444064 0.253672 

-0.0168628 0.00823452 -0.00803798 
-0.0105009 0.00996432 0.0196363 
0.000870275 0.00105844 0.0172405 

-0.0155347 0.00408972 0.0177881 
-0.0154943 0.00520907 -0.0184349 
0.000521734 0.000236302 0.0352176 

-0.022749 0.00601383 0.0336169 
0.00347859 0.00574066 0.0237716 
0.000101671 -0.000488652 0.0164163 

-0.0289568 0.00875562 0.0391277 
0.00647241 0.0233869 0.139689 
-0.00165501 -0.000112077 0.0535768 

-0.019945 -0.00544333 0.017036 
-0.0105846 -0.000369069 0.0733866 
0.00103031 -0.00172532 0.00824658 

-0.0127481 -0.0277094 0.0630965 
0.0129086 -0.00232335 -0.198975 
0.0254319 -0.035545 -0.314879 

-0.0162097 0.0118107 -0.0752655 
0.00292443 0.0374018 0.0989692 
0.00185004 0.0144483 -0.0381237 

-0.0327211 -0.0346491 -0.0779668 
-0.0224143 0.0142419 0.348969 
-0.00250801 -0.0128783 0.0667144 

-0.0209444 0.0103625 -0.0668294 
-0.0092498 0.000914873 -0.015189 
0.00841463 -0.0145888 0.105816 

0.00241322 -0.0104595 -0.00434523 
0.0032018 -0.00648565 0.071294 
-0.000609459 -0.000164107 0.00358747 

-0.00632262 -0.1875 -9.34253 
0.145202 -0.0235971 -5.3091 
-0.012226 -0.0244907 -0.347629 

-0.0210013 -0.00548357 0.0212091 
-0.011527 0.0115664 -0.0136345 
0.00186673 -0.00105685 0.0220954 

-0.014058 -0.00063745 0.00787056 
0.000884246 0.00233721 -0.0565278 
-0.000652606 0.000624775 0.0164826 

-0.0242522 0.00884817 -0.0203464 
-0.00447961 -0.0049067 0.00136679 
0.00171497 0.000915925 0.0349652 

-0.0196635 -0.0029527 -0.0239902 
-0.00601845 0.0233684 -0.158188 
0.00141573 -5.70289e-05 -0.0145841 

-0.0220026 0.0169481 -0.0042499 
-0.0438911 0.0114135 -0.0649436 
0.00468172 0.003034 0.0318691 

-0.0124958 0.000233228 0.0123901 
0.00137482 -0.00196498 -0.00672311 
-0.000139711 -0.000876512 0.0170499 

-0.0224 -0.00292573 -0.278615 
0.000843358 0.012051 -0.0281491 
-6.42113e-05 0.000623208 0.0581886 

-0.0210624 -0.027346 0.00707423 
0.0208514 0.00153479 0.00905529 
0.024697 -0.00178499 0.0635794 

-0.0310245 -0.0137441 0.0507314 
0.0117108 0.0075652 -0.0149107 
-0.00163811 0.00487651 0.0343578 

-0.0241186 -0.026154 0.60158 
-0.000682212 0.0100052 -0.264358 
-0.00903087 0.00720215 0.00727466 

-0.0133948 -0.00719934 0.019619 
0.0542309 0.00225113 -0.0284422 
0.00148412 0.00241525 0.0159805 

-0.0303731 0.00946843 -0.331841 
-0.0143837 0.0247416 -0.10975 
-0.000558262 0.00594739 0.0883955 

-0.0991347 0.0417219 0.121733 
-0.0462516 0.0364218 -0.0506731 
-0.00078886 0.0181789 0.215812 

-0.0269418 -0.0766501 -0.0924296 
0.11571 0.0120157 0.0702314 
-0.0195359 0.00530693 0.182486 

-0.0167748 0.0026866 0.0226734 
0.00234049 0.00972446 0.0230895 
-0.000450714 0.00150093 -0.00423446 

-0.185909 -0.191655 0.426153 
0.0809182 0.131791 0.020925 
-0.0178295 0.0457704 0.054474 

-0.000588609 -0.0209285 0.732379 
-0.0435606 0.0538165 0.110603 
0.00493341 -0.00808898 0.0851515 

-0.110695 0.115672 0.432361 
-0.0679325 0.0547842 0.0874456 
0.0289871 -0.0267737 0.363884 

-0.0252282 0.0148948 0.0391116 
-0.0134226 0.0147203 -0.0386022 
0.0149415 0.0119832 0.0237514 

-0.0637878 0.0229943 -0.0687498 
-0.0230984 0.0355873 0.00717984 
-0.00226683 0.0734698 0.215242 

-0.00601911 0.00971712 0.0671047 
0.0170111 -0.0670696 -0.180517 
1.95641e-05 0.000496044 0.00757591 

-0.0189873 -0.00698713 -0.0308243 
-0.00972833 0.00848957 0.0293247 
0.000285104 0.000846704 0.00812248 
