# vtk DataFile Version 3.0
Output file generated by Yade's KinematicLocalisationAnalyser
ASCII
DATASET UNSTRUCTURED_GRID

POINTS 13483 float
619.295 30.6206 -0.405286
770.381 63.9889 0.544953
121.09 6.09828 -0.477296
798.519 4.31923 0.562333
508.079 7.87344 -0.273017
319.201 35.3394 0.256968
158.024 6.88963 0.437927
579.813 10.3481 0.168288
504.263 23.7722 -0.139545
725.531 13.5689 0.551342
212.926 8.86523 -0.121701
260.477 6.33077 -0.257359
667.682 36.4949 0.161749
644.922 15.8022 -0.0763434
138.441 17.2168 0.454611
224.256 34.5881 -0.394265
220.397 12.9527 -0.28793
292.994 9.65008 0.392399
345.615 33.349 0.434935
532.35 8.61672 0.350577
417.631 36.9668 0.0962093
602.106 45.8826 -0.25921
788.764 46.653 -0.45727
711.39 52.2966 -0.525934
466.413 16.2711 0.284098
244.144 44.2386 -0.12203
499.49 28.5626 -0.4839
596.67 20.5155 -0.242556
45.3321 15.7225 -0.459738
734.428 56.7172 -0.334411
490.663 4.90382 0.323573
16.9248 24.1137 -0.316852
782.079 68.3883 0.304678
503.851 2.6029 0.476401
78.6998 44.8416 0.108957
529.894 31.9275 -0.394002
538.604 16.6479 -0.445319
348.841 22.6855 0.194858
541.633 26.005 -0.301105
356.059 33.6583 0.467802
244.412 14.6044 0.307682
441.592 36.6683 0.0634781
684.834 9.93769 0.158758
195.059 6.24681 0.371075
55.8606 7.04807 -0.101953
69.076 8.80315 -0.272313
699.31 8.492 0.686175
23.3979 11.6067 0.282246
622.713 46.6351 -0.358001
691.193 29.9327 0.33278
174.615 32.4669 -0.321115
771.694 50.6548 -0.163843
34.9968 28.2987 0.121066
542.81 3.04022 0.319765
143.501 7.45721 -0.50516
605.228 34.8937 0.483958
511.433 28.1597 0.123769
176.851 0.950144 -0.272923
32.8146 2.38273 0.312258
354.069 17.9575 0.266204
633.88 48.5591 -0.13568
470.06 33.6946 0.188052
406.073 1.0284 0.197634
709.825 10.804 0.358705
26.7752 43.456 0.235732
260.059 30.8638 -0.32116
724.473 8.71229 -0.314321
688.741 52.4555 -0.361919
424.728 8.59696 -0.515119
580.572 3.64921 -0.331795
749.062 40.956 0.42044
132.101 7.63959 0.290285
507.17 25.8101 -0.134678
486.483 14.7213 -0.173975
299.128 16.7315 -0.336394
20.6023 13.5999 0.225255
793.311 65.0646 0.313143
338.128 39.1259 -0.286603
686.861 25.6537 0.314976
699.574 13.1087 -0.306922
786.688 12.8897 -0.265232
473.402 34.441 -0.171067
93.2733 39.5158 -0.299347
702.95 38.364 -0.259207
662.367 43.8852 0.106513
795.757 50.95 0.108469
780.33 0.744121 -0.584762
295.546 28.8664 0.454565
634.776 6.42953 -0.108199
24.3092 5.23997 0.5459
134.644 38.2638 -0.14574
522.409 15.4298 0.181617
781.012 39.6657 -0.496782
198.323 28.6811 0.259675
44.6158 34.6182 0.291974
502.723 1.35467 0.135579
239.6 8.89169 -0.36983
751.66 51.3477 0.267
773.126 39.346 0.265262
367.725 20.7831 -0.267339
166.214 26.9819 -0.470335
560.493 39.3152 0.418205
387.388 15.6997 -0.478983
421.816 29.9927 -0.130803
385.374 4.57147 0.401802
558.796 11.0784 -0.0839241
799.199 18.4758 0.223138
81.0524 39.7845 0.397284
341.67 4.98831 -0.199662
573.304 9.57318 -0.371369
367.471 44.0595 0.448056
25.665 25.4638 -0.494091
30.4983 5.67731 0.348257
580.808 34.3676 -0.455019
515.002 26.2924 -0.142609
26.415 37.4255 0.411064
93.7516 30.9199 -0.247682
331.385 16.1255 -0.259465
614.276 19.5309 -0.131502
484.876 38.6455 0.317714
741.525 8.58639 -0.410134
734.182 5.9736 -0.19283
395.427 37.282 -0.0981108
651.759 26.9596 0.091763
242.937 16.9157 0.464575
336.974 3.87347 0.459717
104.697 32.0193 -0.386623
117.721 24.2597 0.260787
555.718 39.5037 -0.0907843
312.413 18.8611 0.502677
729.457 57.4669 -0.119513
691.986 51.0782 -0.133788
492.073 20.5703 -0.395404
771.413 18.6455 0.295907
438.361 24.2025 0.225134
282.965 24.7754 -0.295984
691.068 37.7452 -0.271378
285.109 28.8291 -0.401212
590.571 12.3786 -0.194002
339.143 35.8217 0.20456
516.721 12.1989 0.525474
375.318 31.6821 0.0921045
440.534 16.8798 -0.106221
325.255 42.2623 0.429106
194.525 30.0589 -0.12188
775.034 64.613 -0.0259191
796.688 20.3528 -0.283177
6.00184 12.4916 0.432627
443.886 22.98 -0.386981
38.5858 22.7827 0.078284
385.465 31.478 -0.347053
405.233 24.5322 -0.269311
75.8926 11.8845 -0.483992
52.5765 33.3795 0.427031
231.029 13.5463 0.420049
634.651 40.0464 0.421372
593.016 22.1279 -0.521367
75.9851 20.9235 -0.493922
710.367 56.6717 -0.405341
763.497 2.41558 0.603645
680.268 47.9462 0.48463
704.941 2.37459 0.443491
564.975 27.9837 0.424328
603.463 46.7739 0.45854
526.071 18.77 -0.421095
797.087 2.82268 0.405904
228.846 24.6659 0.111869
130.115 35.2342 -0.200023
253.25 6.54153 0.405475
95.9468 4.47214 0.270091
65.362 10.0315 0.23278
282.693 36.2631 -0.33528
17.9179 25.5362 0.377554
571.067 19.1917 -0.454981
622.781 41.624 0.214043
475.948 21.1601 -0.370972
798.842 78.1859 0.395687
417.842 8.65134 -0.115264
448.002 37.0004 -0.0778947
551.355 3.52973 -0.183609
23.5803 23.0788 0.396999
593.15 4.53578 0.437079
560.873 4.3531 -0.296051
211.118 11.3584 0.474647
436.659 16.2242 -0.248224
319.607 6.36274 0.343614
398.809 18.8909 -0.339388
738.132 51.5985 -0.0924263
196.397 26.0279 0.457493
773.542 6.4652 -0.525627
737.967 47.6427 0.304506
393.997 10.3098 -0.156605
723.046 2.22803 -0.575797
621.818 26.2384 -0.407862
746.049 21.6642 -0.44245
443.318 43.7269 -0.301449
511.501 12.8115 0.455666
477.871 44.7953 -0.228128
458.302 8.69177 0.122611
683.254 48.7329 0.302036
681.015 42.375 -0.374225
196.802 39.0727 0.348101
784.64 12.0428 -0.154048
605.065 46.6355 -0.257827
11.4799 17.3512 0.240861
419.452 25.0506 0.33787
191.974 23.1876 -0.409588
94.9396 40.3365 0.217007
779.777 37.1296 -0.519971
676.847 52.5074 -0.224524
327.682 25.6279 0.341439
548.226 10.4119 0.315101
83.7784 45.0955 0.176968
254.419 26.0229 -0.455693
574.221 24.55 0.346914
501.899 18.5386 -0.409968
269.952 0.888894 -0.344773
569.743 41.1879 -0.382746
549.194 41.3248 -0.487703
496.03 34.0372 -0.377649
514.784 1.68784 -0.668207
712.238 24.3087 -0.409386
183.953 12.1859 -0.169163
515.111 38.4042 0.471837
581.944 41.1188 0.130147
74.5009 0.950281 0.273572
258.661 4.74806 0.178929
795.046 21.4825 0.175921
785.895 14.7169 -0.540916
800.511 24.11 -0.568305
312.035 8.6235 -0.229004
746.987 32.8243 -0.468012
419.038 42.0557 -0.336075
462.623 0.81131 -0.399476
669.283 43.731 -0.511753
27.2497 31.1253 -0.292789
340.208 41.7171 -0.559215
259.524 2.88574 0.337761
787.191 68.6366 0.198841
727.823 69.7811 -0.113387
295.538 11.0215 0.23896
687.211 36.4417 -0.0765991
575.21 2.54154 0.267103
558.506 6.52806 0.418627
99.0145 18.6004 -0.520903
311.958 1.03748 -0.227231
353.169 2.27393 -0.359175
13.9173 7.67724 0.424591
4.50575 31.6284 0.282157
165.883 18.9037 0.412633
69.7738 42.0924 0.223177
68.2174 29.2973 -0.3326
436.562 14.3708 -0.451045
378.389 35.1945 -0.482891
769.558 51.4447 0.130061
19.6027 4.01996 -0.271085
72.1608 6.87198 0.138814
644.25 39.2407 -0.147662
303.184 0.921922 0.365771
375.814 15.93 -0.132623
242.325 4.6241 -0.399119
668.929 26.9509 -0.164924
465.798 8.47465 0.414766
746.952 30.1674 -0.352126
651.387 30.6473 -0.302419
685.695 23.9654 -0.103166
433.67 27.7942 0.505179
104.543 45.3369 0.318044
559.246 43.0988 -0.090143
745.705 15.8953 0.328628
244.696 30.3307 -0.252353
32.5176 17.381 0.190033
346.473 13.8918 0.504462
110.046 40.9588 0.455207
275.538 42.6427 -0.224572
438.892 1.59936 -0.317414
786.233 51.9677 -0.387522
697.638 0.754019 -0.53885
342.194 3.42876 0.554658
309.018 26.7826 -0.164026
476.925 41.5348 0.22786
83.5938 8.06644 0.364296
203.276 45.2272 0.377015
776.811 44.507 0.373763
510.262 40.8038 -0.10281
205.723 41.188 -0.255891
165.378 42.5904 0.381015
798.728 47.0573 -0.458897
797.588 18.6389 -0.573437
626.243 4.19466 -0.660197
195.469 24.5576 -0.121489
566.682 28.8358 -0.115717
568.586 28.3431 0.277706
422.389 5.6731 -0.141541
497.74 0.919516 -0.305258
766.869 52.8498 -0.534824
87.1134 31.5919 -0.220443
674.51 23.0866 -0.49509
282.584 15.484 -0.373717
9.42225 2.39536 -0.32905
128.65 36.8854 -0.196468
68.6942 23.1642 -0.499065
722.485 54.2407 0.297043
785.713 76.7097 -0.219516
190.808 28.5285 0.180773
793.181 15.8468 -0.497246
46.0233 36.716 -0.271813
92.813 29.2159 0.161081
654.281 13.4557 0.413458
427.416 17.3305 -0.551918
535.549 16.824 0.111743
245.398 28.3914 -0.0285939
642.111 4.58786 0.397577
801.055 19.3005 0.407357
30.1428 32.0209 -0.284913
278.414 7.66312 0.194386
228.654 15.1709 0.257761
1.06163 36.1993 0.155392
232.003 14.608 -0.376502
217.852 10.9474 0.139159
220.604 26.4025 -0.270714
136.713 28.08 0.135699
565.348 15.0592 -0.391617
171.639 14.2613 -0.351551
781.676 66.6442 -0.3333
178.897 3.82588 0.510432
48.2425 37.9223 -0.420709
747.227 60.7183 -0.128451
289.785 32.1299 -0.402996
697.136 28.5006 0.472816
783.447 44.4007 -0.478039
310.067 9.24349 -0.104446
737.589 39.4545 0.396065
339.081 2.53091 -0.406747
429.955 23.677 0.380701
689.693 19.8364 -0.522142
108.516 12.0126 0.446114
499.457 3.77404 -0.542213
750.418 28.2995 -0.222716
90.6548 7.93691 0.233945
290.453 14.6838 0.21481
437.482 11.7043 -0.219936
795.52 3.46483 0.502284
411.107 1.99714 -0.523531
181.821 39.0038 -0.283745
748.482 11.8022 -0.412635
131.929 36.3902 -0.173911
271.348 31.6033 -0.389027
413.767 21.865 0.207414
593.126 14.0876 -0.353509
399.871 9.84605 -0.495159
471.922 27.7295 -0.405653
771.431 64.0341 -0.454614
48.5689 11.0814 -0.11412
308.395 38.231 -0.265648
392.18 27.2375 -0.350428
423.589 20.896 -0.2487
538.513 45.4701 0.356508
760.184 49.0497 0.236506
684.756 43.0195 0.395127
232.604 34.3127 -0.380376
13.6609 32.5973 -0.162279
680.095 44.1756 -0.120342
525.764 42.5586 -0.462414
236.74 39.1721 0.115779
707.675 37.4184 -0.143225
155.286 9.29474 0.212824
378.506 20.9991 0.277672
478.592 42.7224 -0.132294
427.523 19.0615 0.176224
766.987 64.351 0.331532
440.387 3.84792 0.522981
50.8032 25.5614 -0.332047
485.523 32.4647 0.351093
449.887 43.0073 0.371404
788.206 62.1479 0.252312
736.705 34.2617 -0.249384
559.645 19.208 -0.142884
779.877 58.7274 -0.450968
302.73 2.21277 -0.460078
391.127 29.4571 0.51947
29.6282 39.138 -0.307408
740.641 39.9638 -0.209797
630.464 20.0123 -0.508159
478.774 0.777339 -0.471613
129.468 4.57068 0.270269
441.105 41.1102 0.0968002
11.8373 0.917093 0.316426
795.638 6.34551 -0.205633
382.664 39.2739 0.421825
[...]
POINT_DATA 13483
TENSORS Strain_matrix float
-0.0818405 0.137333 0.239556 
-0.0472031 0.0798408 0.435469 
0.0145648 0.0181707 0.0160618 

-0.319286 0.308763 21.0126 
-0.11786 0.272348 44.2848 
-0.00179086 0.00139665 0.763984 

-0.0122595 -0.000233664 0.19886 
-0.00013315 0.00485048 -0.0302691 
0.000194426 -8.51231e-05 0.0753051 

-0.0417317 -0.0610803 0.524977 
0.3017 0.088152 0.0116898 
-0.112373 0.019982 0.325834 

-0.0293303 -0.0229947 -0.0242279 
0.014441 0.0209603 -0.0472641 
-0.00116574 -0.00306163 0.0266355 

-0.0105682 -0.00949203 -0.00101352 
0.0148541 0.00416042 -0.00654088 
-0.00153102 -0.00047224 0.0170111 

-0.0145812 0.00174452 -0.026477 
0.00185227 0.000181783 -0.00959137 
0.00059434 8.74827e-05 0.0154738 

-0.0310168 0.0113651 -0.00361124 
0.0437247 -0.00408506 0.0437867 
0.000412656 0.00122181 0.0484098 

0.111491 -0.00343612 -1.45792 
-0.0659205 -0.0369193 -0.75754 
0.0307175 0.00101416 -0.0892551 

-0.0457283 0.0677085 -0.0656207 
-0.114979 0.00579809 0.229518 
0.0092589 -0.000573966 0.118291 

-0.00649846 -0.00243316 0.0149608 
0.00217006 0.000690425 -0.00998336 
-0.000359769 -1.99644e-05 0.0102626 

-0.0110862 -0.00227528 0.0055873 
0.004615 0.0044397 0.00285509 
0.000667377 0.000255224 0.0019462 

-0.0466488 -0.136414 0.215339 
0.0613744 0.111744 -0.449836 
-0.00520954 -0.0255793 0.0317032 

-0.102075 -0.0867281 -0.0377275 
0.244861 0.0727229 0.159298 
-0.0288581 0.0102316 0.823523 

-0.0120314 0.0141803 -0.0862679 
-0.00502736 -0.00840023 -0.00293603 
0.00230402 -0.00773035 0.00421851 

-0.00943 0.00440277 -0.0298364 
-0.0070369 -1.87394e-05 0.0549889 
-0.0185298 0.00204012 0.176731 

-0.00965534 -0.00315079 0.00219132 
0.00408466 0.00128505 -0.000890474 
-8.78151e-05 -0.000327253 0.00540177 

-0.0128623 -0.00672907 0.00549414 
-0.00447434 -0.00309279 0.000571023 
0.000689277 0.000492682 0.0231846 

-0.0290407 0.04462 0.0248468 
0.00331163 0.016737 0.0423243 
-0.0045669 0.00202865 0.0089482 

0.00507881 0.0247304 -0.0238577 
-0.040087 -0.000374702 0.122068 
-0.00181529 0.00569598 0.0480421 

-0.0972649 -0.0886617 0.109209 
0.0673432 0.0478626 -0.0134982 
0.00450784 0.0047467 0.0520998 

-0.144169 0.358538 -0.0470564 
-0.0940861 0.192732 -0.500354 
0.0159274 -0.00020067 0.886164 

-0.112249 -0.0326274 -1.18533 
0.0898959 0.172662 1.68895 
-0.021178 -0.00293779 0.00923654 

-0.130641 -0.211721 22.6673 
0.3629 0.260403 16.0839 
0.0103225 -0.037307 2.68944 

-0.00840697 -5.6369e-05 0.00110269 
-0.000301081 0.00172312 -0.00581043 
-0.000803656 8.73029e-05 0.00932016 

-0.0237174 -0.0119746 -0.023599 
0.00936115 0.0264074 -0.208848 
-0.00354961 0.00156756 -0.00122476 

-0.030846 -0.0306534 2.20727 
0.00883031 0.0386458 0.315824 
-0.00227616 0.0028619 0.301665 

-0.00423067 0.00413438 0.0486029 
-0.0922443 0.0238555 0.0196293 
0.000162967 0.00130604 0.0203403 

-0.00859455 -0.00646477 -0.159062 
0.00669588 0.00173994 -0.0465174 
-0.000537646 0.000207509 0.0221384 

0.073653 -0.390811 -0.204797 
0.388914 0.0592416 0.142317 
0.00710152 0.0174436 0.0515205 

-0.00978393 -0.00519785 -0.0375589 
-0.0160006 -0.00706512 -0.0059056 
-0.000449173 0.000611043 0.0297236 

-0.0599364 -0.0118207 0.827426 
0.0192222 0.110251 0.189147 
-0.0367697 -0.0193455 0.102665 

0.0113394 -0.145893 -0.0107113 
0.135387 -0.00424855 -0.00398585 
-0.00108078 0.00391013 0.00939828 

-0.0177011 0.0853485 -0.372671 
-0.0150876 0.0535919 -0.0924039 
-0.00266173 0.0133086 -0.0233564 

-0.00765792 -0.0169571 -0.0199726 
0.0131247 0.00814766 0.0136469 
1.15448e-05 -0.000321246 0.00906779 

-0.0123488 0.0213363 0.0100068 
-0.00674206 -0.00206599 -0.0127112 
0.0001591 0.000566807 0.0253079 

-0.048436 -0.00492515 0.27624 
0.0179949 0.0254075 -0.606968 
-0.0034714 0.00474759 0.0833118 

-0.0741323 -0.0117766 -0.222977 
-0.0135743 0.0648981 0.162536 
-0.000856873 -0.00236344 -0.00507742 

-0.0323876 0.195346 0.187736 
-0.173379 0.059054 0.402772 
-0.00122191 0.000474669 0.0142834 

-0.016527 0.0134811 0.507879 
-0.0164542 0.00854017 -0.310243 
0.00367023 0.0102993 0.128817 

-0.00874577 -0.00044112 0.00580228 
0.00385998 0.00112191 -0.00391743 
0.000231111 4.87368e-05 0.00556139 

-0.0260007 -0.0128961 -0.0820929 
0.0279854 0.0219715 0.184001 
0.013425 -0.00502364 0.157889 

-0.0709375 0.307774 0.0986942 
-0.533708 0.126493 0.0284241 
0.0167406 -0.0144571 0.38156 

-0.00966901 0.00451156 0.0157392 
-0.00508337 0.00489019 0.016183 
0.00231351 -0.000599432 0.00644531 

-0.0239011 0.0190881 -0.055155 
-0.000648844 0.0301076 -0.0364409 
0.0295799 0.0173209 0.0326874 

-0.0131844 -0.00631957 0.0056165 
-0.0008207 0.000763569 -0.023438 
-0.000368951 -0.000176103 0.0130908 

-0.138391 0.122416 10.1127 
-0.0954759 0.0482179 1.09495 
0.000370632 -0.00319725 -0.236449 

-0.00901326 0.00289176 0.00829115 
-0.00624585 -0.00822896 0.00150648 
-0.00214298 0.000286731 0.0227113 

-0.0112887 -0.117765 0.105313 
0.126657 0.00901229 -0.0517132 
0.0124024 0.042414 0.386408 

0.00326652 0.478703 1.37178 
-0.143161 0.112072 0.368597 
-0.00194817 -0.00764119 -0.0917397 

-0.00797067 0.00487704 0.00246432 
-0.00607518 0.00362328 -0.00896366 
-0.00136553 -0.00104776 0.0213511 

-0.0424691 -0.0686182 0.0157655 
0.183066 0.0137375 -0.313604 
0.0191565 0.0764703 0.223069 

-0.00359783 0.00356772 -0.00500724 
-0.00583485 0.000344445 0.0233342 
0.000175331 3.0019e-05 0.00281139 

-0.0135003 0.00422383 0.00668563 
0.00823589 0.00589395 -0.00389125 
3.78163e-05 0.000904556 0.0225365 

-0.0128744 0.00141348 -0.344462 
-0.00201182 0.00343579 -0.134276 
-0.000472072 -6.90784e-05 -0.00316449 

-0.0161488 -0.0222774 -1.1499 
0.0106862 0.00925267 -0.453913 
-0.0134339 0.0160114 1.5854 

-0.0495545 -0.0465879 0.0517793 
0.0632136 0.0978819 0.241326 
0.000327406 -0.00150583 0.0266113 

-0.0115387 0.00899279 0.0289958 
0.00112645 0.00615603 0.00244195 
0.000507262 0.0070309 -0.00200595 

-0.00519707 0.00250167 0.0160027 
-0.000554614 -0.0041577 -0.00320072 
-0.000970967 0.000357684 0.00777987 

-0.0131971 -0.0186589 -0.0373832 
0.00371473 0.0122703 0.0153978 
-0.00122784 -0.000551513 -0.00821016 

-0.149648 -0.339803 0.929193 
-0.00264664 0.113827 0.26922 
0.0082785 -0.148854 0.5948 

-0.0253979 -0.0449893 -0.0455273 
1.79853e-05 0.0209558 -0.112432 
0.0287134 -0.0100363 0.162539 

-0.00758746 -0.00135029 -0.0188438 
-0.000607424 0.000545532 -0.00314193 
0.00019755 -0.000966745 0.0147964 

-0.140792 -0.0392077 -0.20465 
0.223174 0.0350108 0.297345 
0.0390003 -0.048618 -0.053028 

-0.0234261 0.00875889 -0.0304319 
-0.0170553 0.0118959 0.0771698 
0.000594085 -0.00101597 3.2258e-05 

-0.0254872 -0.00184053 -0.00543298 
0.020323 0.0148624 0.0547305 
-0.00054521 0.000738739 0.0261968 

-0.0411341 -0.0365362 -0.0715829 
-0.0460411 -0.0469222 0.082448 
0.0649121 -0.0251257 0.234544 

0.0152329 0.193396 0.283946 
-0.129096 0.0417494 -0.0854963 
-0.00371617 0.0528581 0.541299 

-0.027163 0.000230793 -0.254529 
-0.00286928 0.00544439 -0.216907 
0.000804467 0.000494574 0.00420795 

-0.0357602 0.0477054 0.0282337 
-0.0642501 -0.00271618 0.0131765 
-0.0052732 -0.00718587 0.104455 

0.0365926 -0.0307548 0.268114 
0.0579513 -0.00160355 0.0119377 
0.00922884 -0.0152793 0.0592989 

-0.0123571 -0.00276155 -0.00561046 
0.00135739 0.00541152 -0.00909111 
0.000289024 0.000326323 0.011934 

-0.1474 -0.0181032 -0.377532 
0.2491 0.0106087 -0.512609 
-0.0523822 -0.0666616 0.287664 

-0.0100429 0.00543041 0.254284 
0.0196597 -0.0103068 -0.126952 
0.00211897 -0.00125305 0.0283585 

-0.0050935 -0.00257868 -0.00728144 
-0.00398729 -0.000472084 -0.0422387 
-0.000180913 0.000757851 0.0106453 

-0.0174778 0.0144732 0.0103772 
-0.0108808 -0.000967646 -0.00987542 
0.000917904 -0.00139258 0.0283175 

0.00245136 -0.1595 0.0722704 
0.201348 0.0457438 -0.0676236 
0.00072625 -0.000115662 -0.002829 

-0.0185639 -0.0128482 -0.0330784 
0.0209213 0.00385119 -0.151701 
0.000381603 -0.00113641 0.0247224 

-0.124798 0.107732 0.513674 
-0.195221 0.052869 0.249447 
0.0163956 0.0198382 -0.00388753 

-0.0540903 0.253037 -0.0525257 
-0.212945 0.0727218 0.0658721 
0.0574669 0.000409416 -0.0242826 

-0.0252736 -0.0109893 -0.00303804 
0.0112749 0.0136675 -0.0649028 
-0.00280047 0.0122963 0.0281651 

-0.0289499 -0.10662 0.858361 
-0.00589299 0.0496557 -0.545582 
0.0408884 -0.0161062 0.200105 

-0.0123558 -0.00493379 0.0412191 
0.0100563 -0.00577083 -0.0406535 
-0.00385946 0.00565192 0.101008 

0.00911887 -0.125186 0.0311351 
0.158146 -0.00845643 -0.114069 
-0.00822789 -0.000208577 0.0469628 

0.00869218 -0.0928437 0.0322957 
0.128426 0.00153499 0.0267408 
-0.00118597 -0.000623033 -0.000605768 

-0.0041121 0.0271437 -0.0124673 
-0.04157 -0.00146891 0.0228421 
0.00758248 0.00694834 0.0310141 

-0.045955 -0.706774 -3.16232 
-0.0121045 0.029557 -0.685008 
-0.000702533 -0.0106743 0.176313 

0.00263255 0.0297413 -0.104915 
-0.107914 -0.0157779 0.242965 
0.00328672 -0.00185292 0.0189461 

-0.0132294 0.0136679 -0.00381115 
-0.00332524 0.0122626 0.00427434 
9.08106e-05 0.000178337 -0.00183305 

0.00696743 0.27781 -87.0005 
0.000183568 0.0296402 2.87733 
0.000105278 0.00456371 0.0884526 

-0.00954032 -0.0140294 0.0113512 
0.00137128 -0.00114642 -0.00318053 
-0.000629615 -3.99377e-05 0.00762749 

-0.0691074 0.0645025 -0.0718587 
-0.0988534 0.0352912 0.00466296 
0.00117463 0.00123247 0.0220962 

-0.27012 -0.246805 -0.617855 
-0.280411 0.0804794 0.311542 
0.0152638 -0.0176389 0.157449 

-0.0110398 0.00358247 -0.00290415 
-0.0140317 0.00654272 -0.011751 
0.0406192 -0.0166366 0.062556 

-0.00667494 0.00163343 0.0671178 
0.0212421 0.00557459 0.221487 
0.021688 -0.0117133 0.165478 

-0.0183837 0.0240855 -0.250551 
0.00589689 0.0424333 0.0204114 
-0.000511497 0.00167651 0.00430929 

-0.00980642 0.00275518 0.0169547 
-0.001575 0.0029634 -0.00578737 
-0.000482544 -7.75531e-06 0.00741953 

0.0275376 -0.0902216 -0.055265 
0.086175 -0.030416 -0.107177 
0.0353893 -0.0657359 0.114966 

-0.0431512 -0.00520255 -0.947569 
-0.145817 -0.016325 0.568291 
0.016613 0.0236591 0.104003 

-0.00441987 -0.0447926 -0.00616817 
0.0313229 0.029085 0.169223 
2.53546e-05 0.000515758 0.0310534 

-0.00984246 0.0148826 0.034273 
-0.0131021 0.00618002 -0.265233 
0.00168574 0.00687609 0.0779609 

-0.0324616 0.0036 -0.232542 
-0.00954637 0.0070093 0.0366134 
-0.0152129 -0.0082423 -0.130186 

-0.0198595 -0.0016349 -0.274841 
-0.0114567 0.00288316 0.294725 
0.0197467 0.0374178 -0.585048 

-0.012064 -0.0190299 0.040086 
0.0166321 -0.0277317 0.00902328 
0.00308053 -0.00061999 0.0628816 

-0.0164608 -0.00413883 0.0668991 
-0.00283925 0.010464 0.0622367 
0.0006886 0.000254403 0.0141425 

-0.0241887 0.0553022 -0.0543764 
-0.0672016 0.02563 -0.0426591 
0.00301788 0.00225021 -0.0017546 

-0.0354944 0.0354212 0.0857502 
0.0113388 0.0726615 -0.0549567 
0.00219856 0.0128864 -0.0618131 

-0.0227143 -0.0136647 -0.228411 
0.00550503 0.0164052 0.0631909 
0.00885528 0.00593481 -0.0567845 

-0.015143 0.0117158 0.0167589 
0.0245788 -0.00435006 -0.0406648 
-0.00272234 0.00481624 0.0726002 

-0.02005 0.0108293 -0.0144208 
-0.00858971 0.00134066 -0.0506518 
-0.00105644 -0.000197464 0.0116101 

-0.0227271 0.0135188 -0.00262945 
0.00222961 0.012979 0.14357 
-0.00609113 0.00755846 0.0660608 

-0.0228083 -0.0207714 -1.20611 
0.00885782 0.0268922 -0.106724 
0.00903599 0.0019517 0.0687055 

-0.00608578 0.000962508 -0.00388593 
0.00396109 -0.00542546 -0.00244303 
0.000348478 0.000546428 0.019252 

-0.0409554 0.103768 1.25814 
-0.100773 -0.00303697 1.46398 
0.0134193 0.0561001 0.093857 

-0.0327155 -0.270905 0.761033 
0.120254 -0.00663826 -0.0150732 
-0.017397 -0.0312814 0.0691429 

-0.00979042 0.0154911 -0.125328 
-0.0139804 0.00329956 0.076494 
0.000124366 7.19551e-05 -0.0178951 

-0.069668 0.0129663 -0.496825 
-0.0520615 0.0562176 -0.744433 
0.00637558 0.00290753 0.0763938 

-0.0384472 -0.0219079 -0.0748785 
0.013963 0.0360864 0.0701852 
-0.0225241 0.0391773 0.243588 

-0.195827 -0.0345266 0.0932926 
-0.0110016 0.187709 -0.15501 
0.0174177 0.0255161 0.0831937 

-0.00781859 -0.0286273 0.144055 
0.0273941 0.0043555 0.122297 
-0.000485504 0.000444143 0.0239018 

-0.0612979 0.0239773 0.091005 
0.121548 0.0927452 0.222054 
-0.0655651 -0.0664356 0.20968 

0.0244404 -0.0157969 0.0714148 
0.0245546 -0.0471142 -0.098242 
-0.00145113 0.000903576 -0.00419874 

-0.00534626 -0.00362548 0.00403299 
0.00816967 0.001746 -0.0201339 
-0.00129176 0.000192526 0.00592258 

-0.0310955 0.223992 0.0211554 
-0.106302 0.0626481 0.172969 
-0.00155442 -0.000980383 0.0101965 

-0.0096827 -0.000768307 -0.0169617 
-0.00036351 0.0029713 0.127455 
0.000558269 0.000309196 0.0122692 

-0.0264988 -0.0219513 -0.0893874 
0.0005513 0.0313236 0.0121067 
0.0288809 -0.0950276 0.25574 

0.0228348 0.00141817 0.0738603 
-0.00492829 0.00530561 0.0267603 
-0.00823546 -0.0190247 -0.0925618 

0.000506167 0.00981268 -0.0341738 
-0.00595852 0.00948061 -0.0380366 
0.00276326 0.0011028 -0.00984988 

-0.0166203 0.0184695 0.0608514 
-0.0156146 -0.0136295 0.0509813 
0.0300335 -0.0195527 0.167752 

-0.0174836 -0.00330971 -0.121945 
0.00884569 0.0142137 -0.564609 
0.000256559 -0.000270409 0.145536 

-0.0598551 -0.35773 0.412831 
0.314351 0.106736 0.0147396 
-0.0349745 0.0521009 0.130884 

-0.0468844 0.265447 -0.0833895 
-0.195403 0.0959362 -0.0210844 
-0.0509808 0.0324463 0.518301 

-0.0315012 -0.00735566 -0.36606 
-0.0261639 0.0430425 -0.750308 
0.00470905 0.0134611 -0.277284 

-0.0916663 0.0365615 -2.98849 
-0.456251 0.164162 -0.861331 
0.0342374 0.0538254 0.102362 

-0.0222717 0.0489735 -0.0872994 
-0.0635257 0.0766306 0.00595124 
0.00113721 -0.00183327 -0.00117656 

-0.0888439 0.0152987 0.0487023 
-0.0518509 0.0237103 0.00271688 
0.00376286 -0.000686369 -0.00955902 

-0.0856872 0.348117 -0.208147 
-0.307576 0.19228 -0.188742 
-0.0054854 0.00674747 0.0560337 

-0.00644116 -0.000918706 0.0176826 
-0.00431913 0.0036082 -0.00102374 
-3.08669e-05 -0.000832024 -0.00266448 

0.000959861 -0.0308392 -0.106259 
-0.00140978 -0.00039143 0.0380793 
0.00784783 -0.00347133 0.00430368 

-0.0173556 -0.0235715 0.00291062 
0.049726 -0.00839781 0.00601205 
-3.91122e-06 6.77008e-05 0.0199983 

-0.0434341 -0.093573 -0.369544 
0.0991192 0.0533521 -0.790642 
0.00355429 -0.00656194 0.292167 

-0.00971897 0.0147489 -0.00440818 
-0.020388 0.00192107 0.0131111 
0.000314742 -0.00143951 0.0146785 

-0.0388622 -0.0771241 -0.0119346 
0.0772303 0.00825453 0.031926 
0.0436142 0.0447006 0.4471 

-0.0100663 -0.0163946 -0.236596 
0.00735908 -0.000561897 -0.147762 
0.00336975 -0.0176171 -0.765984 

-0.0113022 0.00241355 0.0311103 
-0.00650235 0.00842748 0.0349616 
-0.0224965 0.0143215 0.0134334 

0.0122249 -0.12947 -0.0108518 
0.102106 -0.00210815 0.0014781 
0.0129918 0.00718099 0.0520008 

-0.103416 0.186049 -0.453974 
-0.115409 0.117336 0.0212105 
-0.0296563 -0.0242186 0.0334962 

-0.0189806 0.00346283 0.013271 
-0.0240836 0.0139054 -0.102406 
-0.00312389 -0.000582552 0.0721935 

-0.00312089 0.00583421 -0.354491 
-0.0241825 0.0494919 -0.26697 
-0.0156797 -0.0200615 0.678186 

-0.000772586 -0.0140051 -0.0310717 
-0.00396835 -0.0126666 -0.0506612 
-1.26792e-06 0.00064609 -0.00551346 

-0.0132022 0.00665607 0.0599703 
0.00755012 0.00239411 0.104081 
0.00538324 -0.00287306 0.155805 

-0.0185093 -0.00069942 0.0572632 
0.0366072 0.00977402 -0.097243 
0.000254135 -0.00123045 0.0119697 

-0.0196965 -0.0130815 -0.252982 
0.00542158 0.00322548 0.020827 
0.00267408 -0.00362263 -0.0543335 

-0.0169854 -0.0108758 0.304747 
0.0231023 0.00145471 0.287103 
-0.0136657 -0.0045471 -0.694646 

-0.00864008 -0.000845215 0.0209082 
-5.36801e-05 0.00337743 0.00731494 
-0.000429236 0.000129836 0.00866833 

-0.295526 0.0299901 0.755491 
-0.140648 0.178206 0.144715 
0.0327087 -0.0103721 0.0191009 

-0.0407631 0.00464406 -2.46148 
0.0104003 0.0370327 -1.19212 
-0.00163338 0.00118838 0.043148 

-0.0179472 0.0301199 -0.65554 
-0.0185686 0.0206516 -0.311211 
0.000336789 -0.00121183 0.0917295 

-0.394076 0.0623041 -2.68127 
0.384215 0.430642 0.549355 
0.0209495 0.0435928 1.24401 

-0.789149 -0.229169 -1.71704 
0.21955 0.388253 1.2187 
0.0305346 -0.0480954 0.258584 

-0.0103007 -0.0070361 -1.15396 
0.00298112 -0.0551336 -5.07331 
0.00587084 -0.00768425 0.0423259 

-0.020783 -0.028302 -0.301445 
-0.00871812 -0.0158479 -0.0290884 
-0.00606789 0.00916712 0.000395659 

-0.00753589 -0.0850198 0.129491 
0.0125921 0.0623836 -0.388371 
-0.0248912 -0.00951425 0.101767 

-0.0910296 0.0330349 -1.95707 
0.00268904 0.135376 1.53681 
-0.025706 -0.0446677 -0.0832204 

-0.0402866 0.0721526 -0.0271835 
-0.108174 0.0171747 0.220356 
-0.00570025 -0.000340403 0.0821185 

-0.0496108 0.00691557 0.0798066 
0.0203454 0.0193645 -0.0380638 
-0.0179234 0.10599 0.272572 

-0.00263699 0.0120739 -0.0120724 
-0.00449666 0.00373917 0.00957549 
-0.000212793 -0.00031961 0.00402097 

-0.00590687 -0.00166311 0.00187904 
0.0018538 0.00214916 -0.00159573 
-0.000837075 -0.000618769 0.00386365 

-0.0136479 0.0064289 -0.00893993 
0.00208424 0.00469627 -0.0125027 
0.000142004 -2.77752e-05 0.0147245 

-0.00840681 -0.0178762 -0.0812725 
0.00106128 0.002686 0.15997 
-0.000936614 -0.000892645 0.018238 

-0.03734 0.00761276 -0.023972 
-0.0118137 0.00771665 0.0137645 
0.0126813 -0.0171294 0.196234 

-0.00707067 -0.00554763 0.0112602 
0.00434224 0.00179883 0.00623669 
0.000572454 -0.000104781 0.0110021 

-0.10952 -0.144077 -0.422422 
-0.138058 0.0561362 -0.148626 
0.0215136 -0.0473401 0.119842 

-0.0548574 0.00436037 0.250728 
-0.0312791 0.0461808 -0.0549096 
0.000578404 0.00131853 0.0586515 

0.0157056 -0.0159617 -0.218957 
0.0711305 0.00612063 0.0332151 
0.0141736 -0.0381387 0.228576 

-0.00579565 0.0222423 -0.0248483 
-0.012442 0.0136038 -0.0455766 
0.000657552 0.00119398 -0.0138318 

-0.0925198 -0.264247 -0.400424 
0.226329 0.0151257 0.0731036 
0.0106034 -0.0235693 0.0774031 

-0.0295388 4.65927e-05 -0.0333245 
0.00809854 0.00675849 0.00463105 
-0.00631029 -0.043071 0.133815 

-0.0048482 0.0225221 0.0362273 
-0.0196032 0.00548847 0.0240962 
0.00395147 0.0103124 0.0777544 

-0.0616463 -0.0171421 -0.0988366 
0.00515906 0.0281564 -0.0302071 
0.00840206 0.0162841 -0.0086359 

-0.0887549 -0.0352679 -0.408179 
0.0237362 0.0833666 0.466208 
-0.0102546 -0.00431138 -0.0653147 

-0.0534476 0.00739783 0.00165393 
-0.000146485 0.00819606 0.0140061 
-0.00791152 -0.03596 0.262523 

-0.0344372 -0.0434207 -0.0631831 
-0.00162928 0.0178219 0.0164156 
-0.0018503 0.00737937 0.15785 

-0.00806849 0.000839191 -0.0600441 
0.000789021 0.000761587 0.0664001 
-0.000622817 0.000447354 0.0780376 

-0.0346626 0.00690966 0.0402913 
-0.029048 0.019029 -0.206167 
-0.0448927 0.0227651 0.0693094 

-0.0128906 -0.00574336 -0.00561438 
0.00274459 0.00292696 -0.00405727 
0.00104923 -0.000210968 0.014569 

-0.00558429 -0.000707618 0.0681912 
0.00113878 -0.00123011 -0.057645 
0.000328509 0.000621533 -0.00209147 

-0.00957247 -0.0300052 0.100962 
0.0310988 0.00839748 0.0227621 
0.0594343 0.0496092 0.628284 

-0.0241005 0.00712844 -0.151265 
-0.0130575 0.0124199 -0.0822922 
-0.0517782 -0.00998841 -0.43083 

-0.113493 0.0808405 -0.39399 
-0.304072 0.0374237 -0.136792 
0.00335381 -0.00367723 0.140364 

0.113426 0.0857262 -0.297836 
0.0993467 0.0191514 -0.853737 
-0.00479354 -0.0452105 0.345021 

-0.0140929 -0.0125815 0.00290573 
0.0133155 -0.000766735 -0.00625556 
0.00370347 0.000239151 0.0314512 

-0.0853195 -0.043516 0.441161 
0.00365102 0.0216647 -0.996953 
-0.0107671 -0.000563145 0.221524 

-0.100247 0.00115834 0.0878932 
-0.0314486 0.0955197 -0.414519 
-0.00804574 0.00963903 0.0555454 

0.0361666 -0.225237 0.0522738 
0.243721 -0.0281008 -0.116561 
-0.0166814 -0.0121548 0.142819 

0.00418172 0.000415007 -0.0546099 
0.00448478 -0.0186248 0.340771 
-0.00131215 0.00460807 -0.0352236 

-0.0326853 -0.0145676 -0.0244961 
0.00804687 0.00694826 0.0130738 
0.000735617 -0.00123191 0.0638801 

-0.0826139 -0.0428827 0.014142 
0.0104573 0.0324399 0.20378 
0.0108851 0.0841764 0.270047 

-0.0118042 -0.00271315 -0.0162023 
0.00137427 0.00748626 0.00175566 
0.0073051 0.0110245 -0.0420087 

-5.299e-05 0.13188 0.37596 
-0.153293 0.00945679 -0.360062 
-0.00610244 -0.0179543 0.0173277 

-0.109138 0.100139 -0.0763426 