# vtk DataFile Version 3.0
Output file generated by Yade's KinematicLocalisationAnalyser
ASCII
DATASET UNSTRUCTURED_GRID

POINTS 13483 float
685.319 26.9757 -0.426668
901.124 43.315 0.406716
134.738 6.02439 0.444448
954.617 4.25623 0.278163
557.941 7.38502 -0.304433
351.173 33.9748 -0.4564
175.082 6.73787 -0.37627
639.372 9.89471 0.137458
554.544 21.9026 0.139977
832.633 11.8616 -0.346092
235.409 8.58786 -0.102504
286.788 6.24968 -0.275361
741.733 27.4199 -0.143553
716.769 13.682 0.0870721
153.634 16.7379 0.426048
247.738 33.6897 -0.390491
243.306 12.7186 0.239071
321.797 9.30522 0.394607
379.858 31.4454 0.109678
587.014 8.53211 0.336581
458.343 35.558 0.0964502
666.041 42.243 0.25734
949.408 29.4245 0.431671
801.405 40.1159 0.435266
512.28 15.6091 0.289927
268.783 42.9919 -0.122232
549.282 26.3765 -0.487306
659.581 18.4128 0.235987
50.2196 15.2705 -0.469846
827.378 29.8042 -0.317165
538.708 4.8027 0.318046
18.9269 21.9873 0.294692
917.22 40.0445 0.259622
553.309 2.4974 0.458108
87.7601 42.1302 0.100665
583.597 29.1851 0.327397
594.071 16.3759 -0.412011
383.11 21.6258 -0.178116
597.361 24.8132 -0.32024
391.254 32.156 -0.271194
269.529 14.3982 0.320048
484.616 34.3312 -0.0638634
774.046 6.67681 -0.116182
216.028 6.10655 -0.367299
62.0174 6.57441 0.132221
76.407 8.71411 0.257205
793.872 8.36475 0.47325
26.5152 11.3458 -0.30749
689.772 42.566 -0.354573
775.796 21.7093 -0.33626
193.404 31.1749 -0.289153
895.219 31.9633 -0.125997
39.572 26.9132 0.113567
598.3 2.93544 0.311557
159.312 7.26728 0.434172
668.567 32.3285 -0.354224
564.176 25.2242 -0.117324
195.503 0.907293 0.270371
36.645 2.43301 -0.269988
388.72 17.3311 0.260634
702.652 43.1522 -0.131934
516.65 32.5316 -0.172744
445.477 1.03324 0.186222
807.038 7.48377 0.325744
29.6217 40.8709 -0.236065
286.349 29.4656 -0.287386
832.67 7.23605 0.179938
766.669 41.6011 -0.348191
466.123 8.43728 -0.45706
640.317 3.45568 -0.338677
869.357 27.8759 0.370895
146.866 7.47636 -0.268885
557.69 24.454 -0.127526
534.18 14.5715 -0.107201
328.809 16.262 -0.352469
23.3199 13.0445 0.232098
924.385 30.4043 0.30748
371.472 37.5305 -0.27713
773.113 18.864 0.31387
793.46 12.0589 0.235868
936.193 10.5473 -0.17326
520.383 33.1365 -0.170919
103.538 36.4801 0.261914
786.771 31.829 -0.205058
738.043 36.0731 -0.10311
958.323 34.6169 0.10515
927.643 1.2441 -0.480379
325.284 28.0421 0.422613
704.558 6.21683 0.0772736
27.3442 5.24239 -0.343126
148.925 36.732 -0.135543
574.983 13.8203 0.187445
914.663 22.63 0.485818
219.173 27.2566 0.228052
50.0426 33.2647 0.262738
552.089 1.16446 0.0938857
264.281 8.73443 -0.33573
872.869 36.6799 -0.252428
899.735 24.3608 0.233513
403.973 19.8931 -0.256678
184.428 25.8387 0.443986
618.565 36.7233 -0.399439
425.301 14.6928 -0.515103
463.135 28.4253 -0.105667
423.391 4.43118 0.406263
616.231 10.648 -0.0905931
960.014 11.0839 0.166828
90.2369 37.2489 -0.390427
375.452 4.6967 -0.176928
632.238 9.22022 -0.314764
403.291 42.2953 0.439076
29.1022 23.5205 0.496387
34.3055 5.61898 -0.329075
641.547 30.6958 0.405019
567.389 22.8192 0.141305
29.732 35.1321 -0.310225
104.923 29.1585 -0.212281
364.052 15.4127 -0.307463
679.899 18.1781 -0.128594
533.747 36.3013 0.295345
853.683 7.5971 -0.335704
843.723 6.14641 -0.196618
433.804 35.8807 -0.0963269
724.104 23.966 -0.101912
267.925 16.4104 0.486426
370.135 3.59109 0.4645
116.486 30.3374 0.320353
130.953 23.3709 0.265049
613.464 37.1865 0.0768013
343.339 18.508 0.464133
821.283 32.732 0.107624
771.466 40.8745 0.111823
540.738 19.892 -0.380515
904.684 8.564 0.275142
481.833 22.4401 0.220592
311.227 23.6241 -0.311739
774.014 28.842 -0.280337
313.255 27.8448 0.383568
652.397 11.2962 0.163249
372.774 34.2662 -0.0222271
568.696 11.1972 0.411247
412.172 29.9456 0.0859442
484.449 16.1062 -0.106658
357.823 40.3894 0.436354
215.015 28.5161 -0.116467
907.001 41.4016 0.155623
954.919 11.6299 -0.258057
6.73701 11.7207 0.451308
488.737 21.7515 -0.40095
43.5178 21.266 0.0685837
422.705 30.241 -0.465995
444.631 24.0066 -0.258193
84.4497 11.5809 0.462804
58.7005 32.1275 -0.422266
254.942 12.9166 0.431803
704.143 36.9009 -0.378992
655.345 19.468 -0.429015
84.9502 20.1885 0.478457
804.565 43.5542 -0.405505
888.92 2.38696 -0.419951
758.286 37.9977 -0.458975
801.752 2.3079 0.374536
623.284 25.4719 -0.387855
667.646 42.6591 -0.444868
579.408 17.6733 -0.37683
951.356 2.91451 0.213457
252.451 24.0844 -0.11592
144.145 33.6563 -0.187711
279.081 6.42422 -0.364789
107.093 3.8824 -0.226424
72.3691 9.63206 -0.199648
310.918 34.7712 -0.29553
18.7642 23.7373 -0.350884
629.689 18.6699 0.383789
689.549 37.7024 0.196813
522.281 20.4577 -0.342104
939.257 35.2818 0.34193
458.695 8.31303 0.0917363
492.226 34.6447 -0.370043
607.729 3.38258 -0.179456
25.9187 22.7808 -0.383244
655.418 4.21168 -0.382905
618.516 4.32254 -0.279029
233.444 11.0356 0.466285
479.697 15.8161 0.188785
351.187 6.21246 0.29883
437.67 18.4303 -0.335739
858.37 39.6563 -0.11387
217.582 24.2702 0.421237
918.625 6.7661 0.303889
857.373 35.9077 0.316864
432.76 9.87568 -0.196134
829.207 2.4169 -0.361108
689.588 24.2838 -0.406062
862.904 17.4061 -0.369403
486.718 41.0845 -0.261827
562.143 11.9998 0.333711
526.349 42.4377 -0.182508
503.536 8.51375 0.148089
761.946 37.0013 -0.271838
759.36 33.4269 0.31888
217.356 37.2981 -0.332957
933.916 10.4859 -0.11634
670.088 43.3533 0.241636
12.7399 16.5115 0.162339
460.365 24.6375 0.336757
211.853 22.2366 0.397266
105.208 37.4269 -0.0924301
911.79 20.361 0.399011
754.512 41.4547 0.227354
360.48 24.5617 0.356076
604.108 9.95842 0.317344
93.1466 42.1825 0.161574
279.843 25.15 -0.469261
632.684 22.6868 0.370447
550.872 17.8078 0.403781
297.169 0.890006 -0.340607
628.822 38.5594 0.192067
606.143 39.399 -0.157255
546.076 31.7608 0.380392
565.496 0.75629 -0.469869
814.141 17.8512 0.364087
203.616 11.4664 0.164735
567.312 34.4056 0.421908
642.575 37.6849 0.111805
82.2839 0.954453 -0.270649
284.854 4.57498 0.15901
954.068 13.5015 0.158236
936.636 12.4522 -0.375129
962.395 15.7048 -0.446372
342.995 8.39098 -0.224252
870.597 21.2372 -0.391041
460.756 39.7257 0.244962
508.064 0.80782 -0.40366
745.949 32.8557 0.441037
30.8661 28.9482 -0.296723
373.678 39.5968 -0.452532
285.81 2.75878 0.296481
920.372 37.1859 -0.173734
825.911 44.6844 0.216395
324.954 10.5533 0.156999
766.747 26.9183 0.0852108
633.945 2.64001 0.228289
616.16 6.33114 0.416568
110.142 17.0937 -0.463209
342.78 1.03376 -0.217484
388.492 2.25692 -0.364031
15.8909 7.59728 0.225862
4.83275 29.3859 -0.239341
184.187 18.1514 0.366606
77.6618 40.1152 0.208834
75.7433 27.6323 -0.314463
479.707 14.0811 -0.425023
415.649 33.457 -0.465059
892.94 33.8089 -0.126822
22.2716 3.85396 0.288816
79.7935 6.75153 -0.119862
715.925 36.3164 -0.143512
333.67 0.925817 0.319614
412.902 15.7514 -0.0986194
267.359 4.54131 -0.387214
749.993 20.3492 -0.179909
511.477 8.15018 0.396154
873.843 19.2886 0.356084
723.444 27.5177 -0.291827
772.332 16.9793 -0.0968916
475.744 25.541 0.463227
115.697 43.015 0.296052
617.528 40.5664 0.069352
859.715 12.9633 -0.171134
269.555 29.1598 -0.231486
35.8263 16.1683 0.177665
380.602 13.4572 0.476668
122.522 39.043 0.367555
303.07 40.9806 -0.188881
481.865 1.05133 0.187152
920.946 26.9163 -0.372743
793.604 0.810277 -0.450384
376.079 2.97888 0.435872
339.855 25.716 0.154637
525.142 39.25 0.197462
92.3915 7.60707 0.451027
224.804 42.8782 -0.377882
902.783 26.8017 -0.356782
561.927 37.3345 -0.0730608
227.099 39.6067 0.246327
182.521 40.3387 -0.389434
961.843 30.8572 -0.387394
958.196 11.0589 -0.44468
693.25 3.29402 -0.286692
216.057 23.2924 -0.103434
625.368 26.6884 0.106396
627.413 26.2547 0.262346
463.611 5.4818 -0.140423
546.471 0.936544 -0.280807
890.606 35.8664 0.4703
97.347 29.3357 -0.212784
756.031 17.6499 0.44872
311.106 15.1958 -0.32214
11.416 2.28037 -0.325394
142.704 35.3818 -0.194332
75.9507 21.8556 0.438941
813.444 34.4905 0.305825
927.516 41.2245 -0.159226
211.166 27.0378 -0.169167
949.111 11.2709 -0.286714
51.0849 35.0657 -0.248745
103.697 27.4954 0.149912
727.672 12.5583 0.349708
468.638 17.6262 -0.487049
590.609 16.292 0.10847
270.302 27.2727 -0.188619
712.361 4.46166 -0.414779
963.164 10.6197 0.317644
34.2932 30.0683 -0.264944
306.264 7.6573 0.186956
252.251 14.624 0.251646
1.41666 34.1341 -0.148856
256.032 14.1149 0.354884
240.526 10.7416 -0.11243
243.805 25.5141 -0.268871
151.21 27.0762 0.124344
623.482 14.5848 -0.315161
190.165 13.4825 -0.349346
914.559 38.7723 -0.217495
198.075 3.70581 -0.448549
53.9759 36.3539 -0.130997
865.889 45.3338 0.426451
318.602 30.5852 0.38374
782.598 22.2085 -0.410826
932.616 26.6711 0.524673
340.961 9.00167 -0.114298
855.214 27.9627 0.34017
372.652 2.67659 -0.333203
471.739 22.9944 0.363668
779.362 15.3756 -0.399475
120.67 11.6155 -0.398354
548.255 3.96103 -0.452069
877.899 16.9985 -0.189524
100.64 7.42236 -0.196407
319.216 14.381 0.198894
480.385 11.3494 -0.218047
949.529 2.5382 0.364195
451.022 1.77338 -0.417096
201.387 37.4007 -0.263835
862.54 10.4266 -0.258189
146.151 34.8297 -0.173646
298.487 30.4589 -0.382013
454.297 21.0844 0.20902
655.195 13.0059 -0.321355
439.362 9.93719 -0.384705
518.028 26.467 -0.418334
902.45 43.0411 -0.35643
54.1223 10.5317 0.0947794
339.52 36.7048 0.0838572
430.82 25.6881 -0.365107
464.471 20.453 0.256882
593.833 43.0961 0.356893
882.889 34.3777 -0.226467
765.773 32.5801 -0.352602
256.548 33.2316 0.383364
15.9048 29.8285 0.150158
757.578 34.27 -0.123643
579.464 40.062 0.440737
260.724 38.0657 -0.0915551
791.077 29.6107 0.105072
172.136 9.08137 -0.184531
416.37 20.2928 0.260511
526.934 40.3508 0.0993398
469.851 18.8866 0.195045
897.708 45.5715 -0.29095
483.313 3.32396 0.407914
57.0007 24.2866 0.292071
534.289 30.1129 0.345822
493.472 39.8051 0.360212
917.7 32.7986 -0.209896
852.187 27.0534 -0.237643
616.455 17.7834 -0.153199
907.264 34.5736 0.296318
332.708 2.0129 -0.449515
429.649 28.0039 -0.457226
33.149 36.8631 -0.291464
858.571 28.6457 0.134744
699.051 19.1649 -0.480531
526.111 0.798869 -0.455823
144.112 4.39314 -0.291172
484.826 38.4585 -0.105431
14.1157 0.914303 0.308019
948.255 5.26548 0.118169
420.308 37.6045 -0.392173
[...]
POINT_DATA 13483
TENSORS Strain_matrix float
-0.0268761 -0.0456253 0.220935 
0.0341645 -0.0518683 0.464239 
-7.14647e-18 -1.27185e-17 1 

-0.0681609 0.0114999 0.623282 
0.023093 -0.0150926 -0.0221657 
3.72457e-18 1.53567e-17 1 

-0.0133459 -0.01251 1.38642 
-0.00112779 -0.0981756 -0.859436 
4.13235e-18 8.31459e-19 1 

-0.164064 -0.0036445 -0.199751 
-0.0207423 0.00545895 0.0526784 
3.37751e-18 4.49793e-18 1 

-0.0268869 0.00176349 -0.027828 
0.0411414 -0.0933901 0.000126617 
-5.86915e-18 -1.12868e-18 1 

-0.0152736 0.00304928 -0.379223 
-0.000189364 -0.0504571 0.614443 
-2.4247e-18 2.27906e-18 1 

0.00386199 -0.0303981 -0.0568408 
-0.00362443 -0.10318 0.0325653 
-3.4605e-19 -4.46982e-18 1 

-0.0376431 0.0159178 -0.0823779 
0.000809508 -0.0750609 -0.0595767 
-2.96919e-18 1.93288e-18 1 

-0.0134666 0.0547456 -0.120871 
0.0628854 -0.0452178 -0.18928 
-1.78244e-17 -2.47562e-19 1 

-0.0823677 -0.0219438 0.0351396 
-0.0221425 -0.0733652 -0.0754922 
-7.49607e-19 1.81484e-18 1 

-0.00239477 0.017866 -0.00905976 
-0.0340095 -0.0746707 -0.267077 
-4.06007e-18 1.50542e-18 1 

-0.0205785 -0.0214563 0.181667 
-0.0261749 -0.0941284 0.444435 
-5.02959e-18 -3.73881e-18 1 

-0.0485392 0.0569823 0.148009 
0.0586251 -0.0423736 0.0369514 
2.17799e-17 -5.83332e-18 1 

-0.0634614 -0.00725536 -0.157274 
-0.0146107 -0.0394933 0.149063 
-1.56468e-18 -4.90422e-18 1 

-0.0514148 -0.0125191 -0.232741 
0.0102619 -0.0652901 0.226616 
-2.36045e-19 -3.59527e-18 1 

0.00104136 -0.0227699 -0.678828 
0.0197706 -0.0634429 0.0544829 
-6.82457e-18 -8.26688e-19 1 

0.0165134 -0.0299313 0.0155831 
0.0411496 -0.137502 -0.164931 
-6.33912e-18 -1.60843e-18 1 

-0.0330978 0.00369752 -1.0564 
0.00894195 -0.111209 0.0870836 
6.2846e-18 2.57494e-18 1 

-0.0514934 -0.0831733 0.119826 
-0.053891 -0.0675086 -0.00987306 
-6.60833e-18 3.79446e-17 1 

-0.034525 0.0274556 0.215581 
-0.0559618 -0.0913757 -0.124862 
1.13841e-18 7.97413e-18 1 

-0.0120133 0.00620978 0.102585 
0.0172647 -0.0338853 0.0648798 
-8.91284e-18 -4.09376e-18 1 

-0.0584883 -0.0133983 0.179469 
0.0280201 -0.0372519 -0.142809 
-4.14109e-18 -2.17142e-18 1 

-0.19558 -0.0585995 1.033 
0.0460107 0.0708333 -0.0143028 
-2.61847e-18 5.67735e-18 1 

-0.0506992 -0.00542689 0.0753091 
-0.0393342 -0.024383 1.92115 
-8.48506e-18 -8.57634e-18 1 

-0.0371696 -0.022163 -0.0680294 
0.0945889 -0.0633673 0.170613 
8.18097e-18 -8.89738e-18 1 

0.0203513 0.0732197 -0.162567 
-0.0723911 -0.0796142 0.212832 
-4.05667e-18 -5.58e-18 1 

-0.0327118 -0.0019987 0.510347 
-0.000616031 -0.0771579 4.46986 
1.27108e-18 -1.82586e-19 1 

-0.0357901 -0.00779953 0.0630715 
0.00247683 -0.0499091 0.0260131 
6.06704e-19 -9.67448e-19 1 

-0.0172107 0.0542321 2.21443 
0.00391179 -0.0998086 -1.2656 
1.07965e-19 3.39318e-18 1 

-0.093674 -0.0148797 0.219143 
0.0374193 -0.0035272 0.211994 
6.28718e-18 2.14504e-18 1 

-0.034069 -0.0309138 -0.0268473 
0.00401613 -0.163832 0.421331 
6.14929e-18 -4.40136e-18 1 

-0.0164906 0.0404281 0.0399257 
0.18619 -0.136478 -0.275517 
-7.82768e-19 -1.11327e-17 1 

-0.105727 0.0231287 -0.327808 
-0.0110094 0.00590876 0.027521 
4.75862e-19 -5.43842e-19 1 

-0.00723086 -0.00691919 -0.453321 
-0.0163648 -0.035416 0.729932 
-2.03177e-18 -2.55641e-17 1 

-0.0531986 0.0648195 0.0258618 
-0.0616551 -0.0565122 0.0183616 
4.55358e-18 1.05451e-17 1 

-0.0402474 -0.0225171 -0.255149 
0.00772589 -0.0467908 -0.0369083 
1.05376e-17 -2.79759e-19 1 

-0.0339685 0.00523618 0.330597 
-0.00686319 -0.0678468 0.147276 
-1.44762e-18 1.20704e-18 1 

0.0341814 -0.0536098 -0.065195 
0.0577779 -0.216781 0.23604 
1.58382e-17 -1.72619e-17 1 

-0.0154518 -0.0312389 -0.0585636 
0.0855473 -0.0837255 0.095495 
1.8702e-18 -4.95349e-18 1 

0.0031397 -0.0111748 0.145214 
0.0318319 -0.0759329 0.0248626 
-1.16493e-17 -1.86192e-18 1 

-0.00396744 0.0437613 -0.0253273 
-0.0420923 -0.1327 -0.403773 
-6.51621e-18 2.10551e-18 1 

0.0271784 -0.0176147 0.0223022 
-0.0253304 -0.0414146 0.153008 
8.30473e-18 -1.02183e-17 1 

-0.0697462 -0.00463587 0.0188615 
-0.0305139 -0.058839 -0.0696527 
5.33379e-18 7.90191e-19 1 

-0.0130136 -0.0283808 -0.122731 
0.0311593 -0.0899126 0.365594 
-5.96693e-18 -1.50756e-17 1 

0.00725773 -0.0138184 -0.0447362 
-0.00691586 -0.139112 -0.105809 
5.46021e-18 -8.27739e-18 1 

0.00152177 -0.0336766 0.0106628 
0.0269383 -0.0822968 -0.0390628 
-2.34122e-18 -5.41949e-18 1 

-0.0504934 -0.00881743 -0.212847 
-0.017874 -0.0782105 -0.908309 
2.22644e-18 2.78721e-18 1 

0.00110123 0.0261543 0.0101197 
-0.0158185 -0.162197 0.015885 
1.58666e-17 -2.94014e-18 1 

-0.0401817 0.0329102 -0.0233191 
-0.0228297 -0.0379036 -0.117987 
-4.99346e-18 7.13352e-19 1 

-0.0454092 0.00594708 -0.296832 
0.0516034 -0.0732243 0.146315 
7.69639e-18 1.82281e-17 1 

0.00181683 0.00170248 0.352595 
0.0151606 -0.0414823 -0.0430129 
-1.10344e-17 -7.35626e-19 1 

-0.0555842 -0.0525854 0.00220302 
0.0419229 -0.0282237 -0.0570089 
-2.25094e-18 -6.5418e-18 1 

-0.0586376 -0.0404902 -0.0495163 
0.00847899 -0.0147633 -0.16491 
-6.71003e-18 5.00409e-18 1 

-0.0483203 0.0145257 0.0393258 
0.00496145 -0.066395 -0.135844 
6.31404e-18 1.76875e-18 1 

-0.0215422 -0.00453469 0.0843397 
-0.00483021 -0.117909 0.454283 
2.00239e-18 -2.01945e-18 1 

-0.0317528 -0.01659 -0.217738 
0.021243 -0.0493918 0.29942 
1.41562e-18 -4.04463e-18 1 

-0.0521069 -0.0382316 0.236502 
0.0777271 -0.0296434 0.132391 
-1.1803e-17 -4.08564e-18 1 

0.00899362 0.0773337 -0.15048 
-0.0279579 -0.155753 -0.128204 
-3.98561e-19 1.22601e-18 1 

-0.00774872 0.0324899 0.110522 
0.0121702 -0.156827 -0.106264 
-9.40259e-18 2.54445e-17 1 

-0.0110673 0.0503037 0.245294 
-0.0370436 -0.103489 -0.123297 
1.02672e-17 7.83996e-19 1 

-0.0397211 0.195788 -0.356363 
0.0378021 0.0690142 -0.0985741 
3.07842e-19 -2.23185e-17 1 

-0.0290312 0.0076563 0.337536 
-0.029367 -0.0385913 0.0816626 
3.93815e-18 -2.25548e-18 1 

-0.0293125 0.00295473 -0.0722506 
0.000317315 0.0186125 0.0551218 
2.76427e-18 -5.80511e-17 1 

-0.0634206 -0.0239325 -0.0737994 
0.0350532 -0.0601083 0.194841 
7.18586e-18 -8.25649e-18 1 

-0.00769415 0.0328582 -0.0613685 
0.0245599 -0.0526539 -0.0272526 
-7.15393e-18 1.4873e-20 1 

-0.0281982 0.0310077 0.235088 
0.0025514 -0.110918 0.054092 
5.18675e-18 -9.42006e-18 1 

-0.0804697 0.0296333 0.00523288 
-0.0145454 -0.0698272 -0.143148 
7.81324e-18 -5.20883e-18 1 

-0.0737856 0.00497655 0.599663 
0.0134852 -0.0184073 0.110215 
-6.11322e-18 -1.0374e-17 1 

-0.03512 0.00552216 0.0478305 
-0.0414053 -0.106971 0.739463 
1.88475e-18 4.84389e-18 1 

-0.0831513 -0.0303552 0.0702137 
-0.00909702 -0.105829 0.09243 
-7.68151e-18 -4.63329e-18 1 

-0.0825632 0.0322606 0.1369 
-0.00387641 0.00663889 0.0596787 
1.83154e-17 1.32082e-18 1 

-0.0069716 0.0159676 0.0549758 
-0.00152088 -0.0807693 -0.0480646 
-1.24549e-17 -5.92086e-18 1 

-0.0238165 -0.00985327 -0.000150346 
-0.0377429 -0.0743787 0.155343 
-2.09508e-18 -2.81047e-18 1 

-0.0274179 0.0366369 0.240718 
0.00162523 -0.0922846 -0.284743 
-3.68728e-18 -3.23303e-18 1 

-0.030993 -0.0315794 -0.131257 
0.0114843 -0.0747522 -0.555322 
-5.32511e-19 -4.48197e-18 1 

0.0422731 0.00165024 0.0872879 
-0.0730003 -0.177561 0.0208089 
-6.94255e-18 1.09736e-17 1 

-0.105132 -0.026761 -0.0186186 
0.0886188 -0.0152253 -0.209624 
-6.79258e-18 5.63588e-18 1 

-0.0159791 0.00646554 0.0773907 
-0.0209783 -0.0628885 0.112275 
3.27866e-18 4.46912e-18 1 

-0.0332253 -0.147255 0.486338 
0.145837 -0.11645 0.108801 
1.512e-17 -5.65234e-18 1 

-0.0436351 0.0364346 0.0692963 
-0.0329619 -0.0625863 0.0514681 
7.13833e-18 -3.84269e-18 1 

-0.115168 0.0498914 -0.102571 
-0.033069 -0.0672483 0.225722 
-9.83073e-18 1.61493e-18 1 

-0.000913854 -0.0100798 0.270775 
-0.0195118 -0.0315135 0.0395443 
5.97425e-18 -9.29863e-18 1 

-0.00544186 0.0180225 0.0505165 
-0.0126219 -0.0354861 0.195437 
7.5171e-18 7.61029e-19 1 

-0.03068 -0.00194363 -0.195979 
0.0237209 -0.0670474 -0.165969 
7.45275e-19 9.18003e-18 1 

-0.048783 -0.020244 0.159056 
0.0426797 -0.0302027 -0.00486734 
-1.12412e-17 -1.78131e-17 1 

-0.0703501 0.0471802 0.00861522 
-0.0319276 0.0053024 -0.122376 
2.59599e-18 -9.20345e-19 1 

-0.114039 0.0352588 0.185905 
0.00590036 -0.0414371 0.765411 
-2.08593e-18 -7.713e-18 1 

-0.0232224 0.0491475 0.468521 
0.0249645 -0.08857 0.0445378 
7.44818e-18 -1.24136e-18 1 

-0.0479856 -0.0207054 -0.00902334 
0.00732878 -0.085908 -0.114285 
-8.12923e-18 2.08108e-18 1 

-0.020637 0.00288505 0.0227674 
0.00121052 -0.0968039 -0.152858 
-2.52229e-18 2.88606e-19 1 

-0.0231131 -0.0172614 -0.141482 
0.0153756 -0.0792157 0.11821 
-5.08153e-18 -7.81151e-18 1 

-0.0193276 0.0020711 -0.0351986 
0.0209174 -0.0825747 0.149023 
-8.72375e-18 -9.34688e-18 1 

-0.119967 -0.0400212 -4.31201 
-0.00520334 0.00892218 -2.31453 
-2.9529e-18 1.82564e-19 1 

-0.0594082 -0.00944984 0.161077 
-0.0474024 -0.0303571 0.0188534 
-1.05696e-18 -7.15098e-18 1 

-0.00466058 -0.0353535 0.226432 
0.0509117 -0.038137 -0.108308 
1.5634e-17 4.226e-18 1 

-0.021949 -0.00787458 0.0941386 
-0.0196174 0.0120859 -0.295513 
-9.88112e-18 -3.26109e-17 1 

-0.0400832 0.0152921 0.0168743 
-0.00992181 -0.0505875 0.0699242 
-6.41177e-18 -6.83298e-18 1 

-0.0953713 0.0309487 0.063852 
-0.0221599 -0.0560815 -0.122998 
-8.31822e-19 1.01205e-17 1 

-0.0743516 0.0271127 -0.0115117 
-0.0609867 -0.0124588 -0.0129913 
-2.10951e-18 4.6585e-18 1 

0.0572328 0.000162151 0.150147 
-0.0405239 -0.118872 0.0449933 
2.12429e-17 -2.35247e-18 1 

-0.00879048 -0.0202385 -0.684536 
0.0268848 -0.0576234 -0.925992 
-6.06476e-18 1.56847e-18 1 

-0.0756011 0.000532771 -0.143485 
0.0148131 -0.0549666 -0.433693 
3.39144e-18 -1.24353e-17 1 

-0.0155441 -0.000100456 12.5073 
0.00765529 -0.0914966 2.03595 
-2.12058e-18 -4.3737e-18 1 

-0.0370008 -0.0324182 -0.193307 
-0.0668708 -0.0325138 -0.161484 
3.5891e-18 2.77647e-18 1 

-0.017481 -0.0163647 -0.0501078 
0.0209086 -0.0996492 -0.119025 
-6.69612e-18 3.13041e-18 1 

-0.0336601 -0.00781796 0.254067 
0.0513273 -0.0736123 0.0430865 
-7.45909e-18 -3.86274e-18 1 

-0.129044 0.0361471 0.0329987 
-0.0283868 -0.0328509 0.0576764 
2.76585e-18 9.28725e-18 1 

-0.00477222 0.0175943 0.481258 
-0.0278757 -0.0599893 -0.183068 
-3.9911e-18 -6.03655e-18 1 

-0.0255474 -0.0212367 -0.065523 
0.00240252 -0.0947679 0.0843099 
7.1227e-18 -1.01753e-19 1 

-0.0544678 0.0257722 0.263396 
0.0179006 -0.0961717 -0.211633 
1.10369e-18 -1.10369e-18 1 

-0.0241338 0.00144835 0.946237 
0.0055464 -0.0301998 2.56444 
5.90934e-19 -1.27452e-17 1 

0.0222466 0.0552226 -1.35418 
0.0207157 -0.116296 6.81883 
-2.20638e-18 9.5848e-20 1 

-0.0150343 0.0165462 -0.0550726 
0.00401246 -0.126969 -0.04977 
1.46929e-18 6.71676e-18 1 

-0.0275935 -0.00326066 0.0106097 
0.0258569 -0.0479584 0.128122 
2.59528e-18 6.37823e-18 1 

-0.0621521 -0.0207676 -0.00332956 
0.041912 -0.0149545 -0.118218 
-2.22234e-18 -1.70222e-18 1 

-0.023317 0.00719835 0.403323 
-0.0048922 -0.0422844 -0.308758 
-8.72532e-18 2.10757e-18 1 

-0.013963 -0.0121109 0.278974 
0.00513413 -0.0552739 0.152229 
-8.55783e-18 -8.23748e-19 1 

-0.0364492 -0.00854343 -0.0669513 
0.0736908 -0.0818046 0.147237 
9.17217e-18 -9.39055e-18 1 

-0.0625405 0.0709447 0.0148529 
-0.0154772 -0.0369532 0.0917735 
5.96516e-18 -6.80696e-18 1 

-0.0382412 0.0147977 -0.00942616 
-0.00496558 -0.0227016 -0.29824 
1.74768e-18 -4.11219e-18 1 

-0.0705787 0.0189107 -0.0877106 
-0.0368981 -0.1078 -0.0827707 
-4.50497e-18 -9.64282e-18 1 

-0.0719489 0.0373363 0.095859 
-0.0188215 -0.0622347 0.105999 
8.76561e-18 9.48161e-18 1 

-0.0139737 0.0133962 0.00141711 
0.00864685 -0.0472382 -0.0920096 
-3.22229e-18 -3.10469e-18 1 

-0.0646942 0.0217764 -0.0799911 
-0.0483683 -0.037646 -0.0506351 
-9.14827e-18 -1.97387e-18 1 

-0.001029 -0.019425 -1.02612 
-0.00652696 -0.0858267 3.46957 
-3.81728e-18 -2.88542e-18 1 

-0.0154963 -0.0101016 -0.484785 
-0.0041654 -0.135924 -0.695866 
1.63403e-18 -1.57218e-17 1 

-0.0218501 -0.0661325 0.142767 
-0.00759813 -0.0477283 -0.0811515 
-4.56678e-18 -2.25985e-18 1 

-0.0222781 0.0469606 0.0790124 
-0.074195 -0.0551505 -0.00706086 
1.68886e-17 1.72333e-17 1 

-0.0224781 -0.0138473 -0.0718419 
-0.0106105 -0.0523251 -0.0715849 
2.0778e-18 -4.20567e-18 1 

-0.00715645 0.0619744 0.214169 
-0.0366309 -0.078738 -0.0438901 
5.96685e-18 -9.64483e-18 1 

-0.0536956 0.014637 0.111918 
0.0212251 0.00672865 -0.208917 
3.07458e-18 1.27992e-18 1 

-0.0845571 0.0382738 0.175005 
0.0403513 0.0104757 -0.0657833 
1.01106e-17 -6.14656e-18 1 

-0.0319717 0.0185472 -0.139649 
-0.0192776 -0.0453194 0.417259 
2.83109e-18 3.01084e-18 1 

-0.0973172 0.0174516 0.0524644 
-0.000371402 -0.0577666 -0.0172456 
-1.17601e-17 5.38045e-18 1 

-0.00918766 -0.0269806 0.318677 
3.3079e-05 -0.0434646 -0.0788569 
-1.64347e-17 -1.25391e-17 1 

0.00252039 0.0224429 -0.0499363 
-0.105339 -0.0552696 0.228561 
8.11e-18 3.27222e-18 1 

-0.100476 0.0190062 0.174828 
0.0907315 -0.00194538 -0.121653 
1.34983e-18 3.21663e-18 1 

-0.0359746 0.00495052 -0.660971 
0.0561207 -0.0492198 -0.689268 
2.69749e-18 -1.90973e-19 1 

-0.0362597 -0.00912619 0.0032405 
0.0258476 -0.0696327 0.104037 
1.11987e-17 -1.57055e-18 1 

-0.0100706 0.0171208 0.112463 
-0.0772786 -0.0430312 0.0617108 
2.35964e-18 7.18742e-18 1 

-0.0347043 -0.0228511 0.0132895 
0.000248322 -0.0549063 -0.0328359 
1.90144e-18 -7.15286e-18 1 

-0.0285929 -0.00777104 -0.115403 
0.0410722 -0.0508983 0.0285517 
-3.59349e-18 1.27117e-18 1 

-0.022184 -0.0185292 -0.22183 
0.0337409 -0.0622836 -0.0805027 
2.71597e-18 2.98155e-18 1 

-0.00575293 0.00255269 -0.819575 
-0.00681735 -0.0646619 0.144484 
1.22285e-18 6.41259e-18 1 

-0.0119256 0.00363361 0.259713 
-0.0348783 -0.0173442 0.186623 
8.81805e-18 -7.74653e-18 1 

-0.0522876 -0.0457673 -0.0988554 
0.0198822 0.0051219 -0.055885 
-8.03745e-18 1.31581e-17 1 

-0.072111 0.0168394 0.04048 
0.000586307 -0.073197 0.109686 
-1.14964e-18 4.65577e-18 1 

-0.0010249 -0.0266808 -0.507295 
0.0653946 -0.114609 0.314604 
-9.05584e-18 -4.09543e-18 1 

-0.0465848 -0.0310423 0.072612 
0.0395248 -0.0607042 0.0404281 
-5.2097e-18 -3.19686e-18 1 

0.0875184 0.0861151 0.285918 
0.120012 -0.226123 -0.195266 
-1.07495e-18 -2.80832e-18 1 

0.0242095 -0.0166123 2.32722 
0.0870003 -0.0853783 1.38877 
1.20413e-18 1.52624e-18 1 

-0.0757428 0.0938413 -0.0731997 
0.0422486 -0.0616838 -0.105435 
-2.73511e-19 -5.39208e-18 1 

-0.0265234 0.00212823 -0.890543 
-0.0264041 -0.116673 -0.184951 
2.21483e-17 1.03474e-18 1 

-0.000926872 -0.0223057 -0.0653659 
0.014084 -0.0643767 0.209018 
-7.71842e-18 -2.70145e-18 1 

-0.00773815 -0.0380378 0.241412 
-0.0163719 -0.0788916 0.0975683 
2.21341e-18 -1.87206e-18 1 

-0.0657749 -0.0226614 -0.101205 
0.0191692 0.00326097 0.0912126 
-3.90865e-18 2.42606e-18 1 

-0.0451997 0.0116067 0.105597 
-0.00132091 -0.0582634 0.242162 
-1.31997e-17 -4.14192e-18 1 

0.0129636 -0.0445803 3.78714 
-0.0163657 -0.0823286 3.70211 
3.30047e-18 5.29426e-19 1 

-0.0484359 -0.0178092 1.28576 
0.0119059 0.0244465 -0.171932 
-2.28796e-18 2.43956e-18 1 

-0.114052 0.0417182 -0.10057 
0.0447031 -0.0967703 0.219923 
1.32445e-17 -5.17488e-18 1 

-0.0646388 0.0116286 0.0596936 
-0.0252842 -0.0174144 -2.26755 
1.27382e-18 -1.38723e-17 1 

-0.0389931 0.00386784 -0.0242672 
-0.0100587 -0.109991 0.104022 
8.2553e-18 1.57486e-18 1 

-0.0434389 0.00660778 -0.184777 
0.0359442 -0.0639608 0.360405 
1.94977e-18 3.19795e-18 1 

-0.0401117 -0.0366529 3.45707 
0.0173156 -0.0501471 5.06106 
1.53955e-18 -2.84615e-17 1 

-0.0280823 -0.0245335 -0.0450522 
0.0922456 -0.089924 -0.100953 
7.53539e-18 6.63403e-18 1 

-0.122038 0.100477 -0.148377 
0.0103017 -0.0887052 0.22331 
6.39576e-18 1.46584e-17 1 

-0.00878265 0.0385932 0.0544757 
-0.0200412 -0.0911672 0.0619575 
-3.3496e-19 1.44703e-18 1 

-0.0423007 -0.00236405 0.0460458 
-0.0129794 -0.0457209 -0.107068 
7.76545e-18 -1.15314e-17 1 

-0.000392963 -0.048479 0.146346 
-0.00109584 -0.127582 0.0705846 
6.74457e-18 -6.27358e-18 1 

0.011376 -0.0154645 -0.303502 
-0.00631452 -0.14223 0.636965 
-2.34809e-18 1.10544e-18 1 

-0.0059301 -0.0330695 0.0113715 
0.0253521 -0.0870893 -0.0491379 
1.07023e-17 1.92671e-18 1 

-0.00496538 -0.00351274 0.0366678 
0.0261798 -0.0521059 0.0204974 
-5.28036e-18 2.42295e-19 1 

-0.0576489 0.105016 0.382385 
0.0994813 -0.157677 -0.364594 
3.30435e-18 -3.82066e-18 1 

-0.0315308 -0.0052602 0.49799 
-0.010971 -0.0530204 0.0267932 
-3.36656e-18 3.27305e-19 1 

-0.0304495 0.0192119 -0.0126014 
-0.0306142 -0.0415536 -0.129245 
9.63286e-18 8.53545e-19 1 

-0.0634642 0.0137878 0.19214 
0.000146413 -0.0936816 -0.0486598 
-7.57509e-18 5.06747e-18 1 

-0.0826436 0.0289339 -0.0471858 
0.00166447 -0.00823744 0.309225 
3.68053e-18 2.27721e-18 1 

-0.0301959 0.0167605 0.0181129 
0.00397439 -0.0713699 -0.13371 
-3.51574e-18 1.64436e-18 1 

-0.0163866 0.0129297 0.364797 
0.00798772 -0.0569277 -0.280169 
-4.40161e-19 3.54546e-18 1 

-0.0296416 0.0353813 0.0310607 
-0.0319233 -0.106275 -0.0309918 
-4.08706e-18 3.29388e-18 1 

-0.0122962 0.11419 0.365346 
-0.0745027 -0.0532918 -0.199974 
8.62149e-18 2.93388e-18 1 

-0.0471628 -0.0403899 -0.016883 
0.0428235 -0.140773 0.017393 
-1.58829e-18 4.36194e-18 1 

-0.0250511 -0.00832101 -0.0699929 
-0.0321156 -0.0731501 0.0286424 
3.64925e-18 -1.02397e-18 1 

-0.0326908 0.0216981 -0.165984 
0.0183289 -0.0916065 0.0581826 
-1.79989e-17 3.33964e-18 1 

-0.0999756 0.0045371 -0.193393 
0.0529913 0.0348818 -0.238786 
2.23647e-18 6.33667e-18 1 

-0.0324498 0.0136465 -0.00499755 
-0.078908 -0.0768995 0.135289 
-5.84852e-18 -2.24943e-19 1 

-0.0526525 0.00146565 0.351223 
-0.0372949 -0.0804259 0.166623 
-3.89691e-18 -5.1501e-19 1 

-0.0981771 -0.0773152 -0.154524 
0.0388875 -0.0314649 0.0304706 
-1.66899e-18 -3.99617e-19 1 

0.00130512 -0.0122158 0.177132 
-0.00393168 -0.0841442 0.654911 
-2.24749e-18 -2.03344e-18 1 

-0.0754706 0.0400027 -0.207164 
-0.0527879 -0.0294813 0.00960179 
1.62088e-18 -1.02735e-17 1 

-0.0580671 -0.0350988 -0.136443 
0.0380634 -0.0379169 -0.0892593 
3.90807e-18 -5.37248e-18 1 

-0.0217639 -0.0379231 -0.143107 
-0.0211566 -0.0846808 -0.0519115 
7.29236e-19 1.82309e-18 1 

-0.0930741 -0.0103669 0.131647 
-0.0022083 -0.0631605 0.170416 
2.85715e-18 1.53458e-18 1 

-0.107284 -0.0051431 -0.942005 
-0.0514721 -0.0323844 0.366779 
5.60827e-18 3.10101e-18 1 

-0.105391 0.0438043 0.0859206 
-0.023288 -0.0421927 0.285157 
4.78275e-18 -1.99281e-18 1 

-0.0188442 0.0453545 0.166208 
-0.0199517 -0.00723499 -0.107646 
1.62745e-18 -1.33159e-17 1 

-0.022752 -0.00967938 -0.0715911 
0.0288852 -0.120303 -0.0791773 
7.32696e-20 4.0054e-18 1 

0.00549608 0.006218 0.0877946 
-0.0801357 -0.0424979 -0.138573 
2.12687e-18 -1.27612e-17 1 

-0.0222709 -0.00286053 0.00930455 
-0.0393656 -0.099575 0.168211 
4.49666e-18 -1.31839e-18 1 

-0.0748336 0.0160203 -0.0641496 
0.0103041 -0.0233634 -0.249294 
3.60154e-18 -1.01361e-17 1 

-0.0269389 0.0161831 0.017944 
-0.0364972 -0.0856976 -0.0652254 
3.95245e-18 -6.9054e-18 1 

-0.0112622 0.00778134 -0.105073 
-0.10576 -0.0658957 0.0823762 
1.40487e-17 -1.1504e-17 1 

-0.123516 0.00769416 -0.00209782 
-0.0235964 -0.0285144 0.202468 
-8.00914e-19 4.64027e-18 1 

-0.0484677 -0.0399324 0.0288455 
0.0197602 0.0786892 -0.0364662 
-1.04245e-18 4.80744e-18 1 

-0.0432342 0.0122231 -0.0844493 
0.0297405 -0.0418111 -0.0944947 
-7.27064e-18 8.77492e-18 1 

-0.00984586 0.0143788 -0.219628 
-0.0180498 -0.0662891 -0.259526 
2.87076e-20 -1.2111e-17 1 

-0.0122921 0.0117305 0.268385 
-0.00844154 -0.0755866 0.256886 
4.48774e-18 -2.30674e-18 1 

-0.025763 0.00437018 -0.0296259 
0.0197203 -0.0226984 -0.0571312 
2.43166e-18 -7.71074e-18 1 

-0.0969304 0.0483807 0.287155 
-0.0374556 -0.0437876 0.166133 
-1.08209e-18 -9.51568e-18 1 

-0.0149384 -0.00983994 0.0310124 
-0.00360976 -0.0343083 -0.10211 
4.64798e-18 -5.52777e-18 1 

-0.0224945 0.0144003 0.0326842 
-0.0548557 -0.0495081 0.0793175 
-4.39927e-18 -2.21937e-18 1 

-0.0653672 -0.0123809 -0.176424 
0.0031367 -0.0633155 -0.367907 
3.45028e-18 4.01304e-18 1 

-0.0300417 0.0765476 0.23316 
0.0669273 -0.0759687 -0.0951215 
-1.36618e-17 3.1467e-18 1 

-0.00987584 -0.00161279 0.357322 
-0.0326124 -0.0660169 1.60676 