# vtk DataFile Version 3.0
Output file generated by Yade's KinematicLocalisationAnalyser
ASCII
DATASET UNSTRUCTURED_GRID

POINTS 13483 float
579.929 31.4357 0.450049
682.254 77.1031 0.545381
117.335 6.10292 0.490957
716.729 4.17515 0.341036
488.238 7.95052 0.369544
307.553 35.8534 -0.47998
152.231 7.39304 0.458892
548.296 10.2893 -0.145599
486.584 24.8885 0.149013
659.431 14.6435 0.703524
204.952 9.0213 -0.101999
250.734 6.32386 -0.251925
623.575 60.3756 -0.160692
600.958 17.7586 -0.127261
133.67 18.4465 0.550907
215.96 35.7201 0.440327
212.115 13.0957 -0.294001
282.288 9.8808 0.411445
333.429 32.8453 -0.496065
512.299 9.75055 0.462211
402.812 37.1956 0.0602421
567.353 52.9907 -0.301163
708.752 57.8936 -0.537122
641.546 60.9461 -0.47483
449.956 16.2356 -0.371394
235.632 45.2933 -0.126361
481.506 29.3279 -0.503491
562.578 23.6872 0.365349
43.6097 16.3214 0.361346
666.382 66.0575 0.373074
472.866 5.56144 0.333096
16.0992 24.4658 0.339431
696.564 80.5294 -0.278635
484.244 2.5561 0.472648
76.5566 45.4224 0.110155
509.661 34.7724 0.34712
516.623 19.642 0.586373
336.143 22.5207 -0.209421
520.87 30.5049 -0.35654
342.643 33.802 -0.446255
235.045 14.9269 -0.345467
426.135 36.3641 0.0836279
630.577 19.1812 0.178215
187.49 6.23123 0.380922
53.5694 7.34202 0.0745121
66.4427 9.01742 0.282019
632.111 8.46019 0.640336
22.5513 11.6267 0.271719
579.884 51.5717 -0.360487
631.863 40.4896 -0.369523
168.743 32.9781 0.3248
685.631 63.4115 -0.124285
33.5394 29.0546 0.123866
519.675 2.67048 0.456536
138.645 7.58955 -0.49393
567.496 39.4263 0.399178
495.404 29.998 -0.118392
170.326 0.944232 -0.271082
31.9544 2.43439 0.295985
341.553 17.9195 0.250231
587.549 54.6149 -0.168767
452.339 35.6671 0.19961
390.668 1.03005 0.203088
643.328 9.7669 -0.444564
25.5632 44.5624 0.23588
250.664 31.1142 -0.335926
659.4 8.69349 0.501368
637.322 83.3776 -0.344487
408.866 8.72552 -0.49881
549.119 3.43909 -0.472942
673.783 41.4513 -0.555191
127.853 7.77561 -0.330187
489.888 27.8869 0.132212
469.29 16.3073 -0.0950349
288.467 16.9432 -0.340691
20.0821 13.8348 0.243442
705.66 73.6174 -0.405099
326.3 39.6164 -0.290945
628.787 37.4601 0.446213
637.297 19.5164 -0.285896
705.112 25.1539 0.246299
455.728 36.2335 -0.177044
90.6139 39.0773 -0.289483
631.671 52.2946 0.225554
615.466 66.9298 0.110102
714.615 64.3802 0.131796
706.545 0.700752 -0.703749
284.997 28.8935 0.460299
594.743 6.27525 -0.160224
23.6052 5.23955 0.580661
130.381 40.4677 -0.175036
502.303 15.5377 0.212473
698.136 53.0324 0.501171
192.012 28.8089 0.259323
43.0032 35.1378 -0.32375
483.122 1.25818 0.13946
230.814 8.7314 -0.424819
669.75 52.4778 -0.265749
684.421 47.3342 0.23236
354.157 21.8442 -0.27823
160.42 27.5486 -0.471271
534.198 51.8355 -0.480219
372.497 16.1136 -0.449972
406.368 29.7492 -0.0947359
370.472 4.61252 0.372474
531.186 13.6987 0.152721
716.675 18.6971 -0.244657
78.4961 40.2025 0.388667
329.088 4.99854 -0.21582
542.999 9.35884 -0.451872
353.471 44.8436 0.457974
24.6314 25.9547 -0.448661
29.6332 5.78496 0.308633
546.978 38.4033 0.464457
494.583 24.3415 -0.126787
25.392 38.5863 -0.431565
91.4055 31.4562 0.216675
319.266 16.2785 -0.28839
577.427 19.5068 -0.125988
466.747 39.4516 0.30415
674.285 9.08947 -0.510812
667.647 7.59663 0.265006
381.309 38.5217 0.129036
604.58 40.1927 -0.103064
233.6 17.5247 0.481563
324.516 3.89896 0.456248
101.835 31.8201 0.40265
114.18 24.2168 -0.359834
530.649 50.898 -0.0790881
300.712 18.4943 0.582167
660.623 65.4414 0.161082
642.767 83.027 0.10073
474.023 22.2424 -0.447595
695.723 34.6059 0.334264
422.651 23.5118 -0.28158
272.374 24.6751 0.30874
627.657 59.5306 0.278153
274.999 29.2289 0.408305
556.715 15.8015 -0.198334
327.337 36.2835 0.200264
496.86 11.5462 0.507067
361.776 32.7957 0.0990471
424.53 16.8133 -0.0945063
313.556 43.0022 -0.431625
188.251 30.1557 -0.13061
687.292 77.4417 0.134355
714.83 19.5375 -0.314546
5.99469 12.9615 0.478596
428.636 22.5302 -0.425683
37.134 23.4123 0.0888711
371.69 32.3468 -0.440544
389.497 25.1784 -0.251363
73.5673 12.0931 -0.537383
50.8478 33.9171 -0.42941
222.574 13.6255 0.423829
592.2 48.6461 -0.384083
559.969 24.8888 -0.453472
73.6327 20.9634 -0.531477
642.436 65.1332 0.488849
699.234 2.31005 -0.630609
631.03 76.7493 -0.495654
639.244 2.18678 -0.613127
535.392 32.4668 0.406072
568.66 52.363 0.616667
505.329 19.7392 -0.420575
715.784 6.95027 -0.258155
220.68 24.7418 0.121978
126.098 37.2986 -0.224759
243.744 6.85708 0.401067
93.0015 4.49228 -0.285023
62.7547 10.3068 -0.258371
272.601 36.9331 0.314852
16.9919 25.9912 -0.335946
542.59 21.6723 -0.534058
581.735 44.3325 0.236984
457.943 21.5692 -0.433534
713.202 85.7173 -0.368475
402.027 8.73034 -0.113661
432.548 37.3881 -0.385516
527.301 3.47719 -0.199482
22.4025 23.8033 -0.42955
559.379 5.57544 0.432117
533.827 6.43603 0.556351
203.333 11.4937 0.512127
420.892 16.5164 -0.222382
308.124 6.34267 0.367897
383.784 19.4355 -0.314361
660.321 46.0581 0.165941
190.34 25.9542 0.432561
700.808 21.6938 0.360546
662.263 41.51 -0.412042
378.915 10.5125 0.181376
657.669 2.53709 0.483653
583.809 29.0886 -0.415229
680.507 17.8441 -0.406274
426.84 44.3455 -0.192098
491.5 12.8864 0.363788
460.571 46.3534 -0.231138
441.922 8.58866 0.12825
634.71 77.6593 0.270036
634.316 72.9895 0.106437
190.197 39.3146 0.415752
703.607 28.5261 0.119956
569.24 53.7131 -0.290529
11.54 17.42 0.262498
403.574 25.7041 0.359693
185.325 23.3736 -0.415598
92.2756 39.8805 0.216584
695.758 50.5664 0.425599
626.321 79.5667 0.221639
315.709 26.0973 0.342395
524.535 12.8543 0.416355
81.6217 45.373 0.178148
244.949 26.3379 -0.469669
543.87 28.3419 0.36425
483.162 20.4953 0.549956
260.115 0.881417 -0.34366
543.218 56.5728 0.276033
523.794 49.8847 0.456353
478.145 34.6889 0.399711
494.999 1.81626 -0.666282
645.854 22.426 -0.482341
177.254 12.54 -0.216847
496.184 40.5466 -0.472578
547.956 47.8515 -0.125526
71.8526 0.97604 -0.27887
248.999 4.73211 0.184369
712.994 24.7567 0.170464
705.838 26.6648 -0.662778
717.653 24.211 -0.580712
300.761 8.47626 -0.236385
680.598 27.1838 -0.504332
404.344 41.9613 -0.343254
446.254 0.791932 -0.441732
622.488 67.2483 0.393889
26.0996 32.1079 -0.303231
328.393 41.7671 0.646756
249.856 2.87416 0.359785
699.926 77.7601 -0.239019
657.43 78.5144 0.216932
284.731 11.3104 0.263548
623.801 54.027 0.0924243
543.959 2.624 0.329103
532.018 9.36327 0.448989
95.6946 18.621 0.500675
300.644 1.01514 -0.226825
340.255 2.23311 -0.378933
13.5208 7.59696 0.47529
4.36325 31.6219 -0.307407
159.838 19.5742 -0.410299
67.4971 42.9913 -0.263956
65.9248 29.7128 0.325596
420.54 14.6311 -0.458312
364.682 36.1857 0.49227
682.17 63.9147 0.203708
18.9847 3.95812 -0.281723
69.5809 7.02904 -0.133005
599.852 53.8524 0.141916
291.937 0.926001 0.3775
362.016 16.8126 -0.113969
233.093 4.63499 0.358273
612.48 40.0285 0.158608
449.318 8.34665 0.43136
683.523 24.8762 -0.378237
610.13 50.8169 -0.323635
628.17 35.7735 -0.175872
418.267 27.4449 0.515111
101.208 45.8191 -0.312969
532.482 56.2132 0.0652027
678.625 12.521 0.278783
235.411 31.2887 -0.258801
31.4545 17.7045 -0.199289
333.94 13.8436 0.517624
106.565 41.043 0.390638
265.639 42.773 -0.211323
422.815 1.65473 -0.351077
703.438 68.8857 0.401701
634.268 2.51224 0.662311
329.564 3.45583 0.574297
297.946 26.8517 0.164626
459.285 43.2843 0.236642
80.7316 8.20251 -0.475899
196.004 46.1883 0.387567
691.051 55.4639 0.395752
491.314 41.8189 -0.0695782
198.354 42.0623 -0.289288
159.594 43.2991 0.391708
716.311 59.7795 -0.377818
715.688 21.155 -0.537389
586.979 3.22654 -0.647831
188.997 24.7995 -0.111404
533.766 35.6305 -0.106909
536.888 33.269 -0.266427
406.575 5.73259 -0.137979
478.128 0.943704 0.38871
680.635 63.1813 -0.512878
84.0938 31.5631 -0.241635
617.508 38.186 0.47691
272.22 15.6817 -0.388671
8.7392 2.52187 0.351733
124.71 38.8704 0.220701
66.2431 23.0213 -0.564408
653.888 62.2281 0.338114
701.783 85.6347 -0.161018
184.515 28.7645 0.192858
711.52 23.4136 0.483787
44.5351 37.2987 0.264137
90.0773 29.9349 0.189009
607.331 17.5993 0.391409
411.1 18.4813 -0.489111
513.591 19.2482 0.156455
235.818 29.3259 0.189104
601.885 3.91272 -0.530221
719.139 19.8002 0.476393
28.9506 33.0595 0.296848
268.091 7.79464 0.203282
220.202 15.2293 0.290265
1.04128 36.1845 -0.160845
223.513 14.6684 -0.386934
209.775 11.0737 0.113873
212.565 26.8042 0.286011
131.386 29.1542 -0.130759
537.283 18.5216 -0.38952
165.399 14.4926 -0.368636
694.244 77.5114 -0.231091
172.348 3.81242 0.513608
46.698 38.3649 0.453554
660.771 54.5111 0.562509
279.546 32.9578 0.38362
637.439 36.9441 -0.561826
705.615 66.964 -0.491824
298.794 9.08113 -0.110769
665.87 34.1431 -0.349244
326.522 2.51176 -0.433001
413.821 24.1627 0.383669
632.169 29.2958 -0.513858
105.075 12.6558 -0.396841
479.952 3.82333 -0.572656
687.464 24.1744 0.21414
87.5532 7.7161 0.236379
279.851 14.883 0.216768
421.285 11.8184 -0.208736
714.583 6.05325 0.603364
395.587 2.0042 -0.535349
175.931 39.2803 0.306614
681.207 10.1449 -0.398572
127.786 38.5243 0.219017
261.333 31.9166 -0.393206
398.244 21.9357 0.231378
559.195 17.7382 0.398541
384.658 9.91653 -0.509994
453.633 29.5406 -0.420954
683.397 76.9986 -0.411487
46.9027 11.9241 0.16485
297.248 39.1661 0.271962
378.41 28.2793 -0.363664
407.475 21.1927 -0.263251
514.706 50.3303 -0.376813
677.121 56.1527 -0.232005
638.543 72.3139 -0.357261
224.07 35.3722 -0.392778
13.9375 32.3059 -0.211271
632.241 73.0774 -0.114546
504.952 48.5887 -0.462445
228.131 40.3441 0.134479
637.729 47.3559 0.141383
149.657 9.82319 0.261269
364.4 22.0528 0.348927
461.091 44.2478 0.118452
412.013 19.8936 0.232163
678.604 76.4428 0.315252
424.214 3.89024 0.542009
49.1309 26.0883 -0.340734
467.141 32.977 0.351811
433.395 42.7865 0.478564
699.607 71.2738 -0.266446
667.846 30.6467 -0.255997
533.014 24.2989 0.147747
691.854 71.2806 0.490171
291.52 2.22154 -0.468832
377.248 30.6457 0.452371
28.5221 40.279 -0.29781
668.541 35.353 -0.183988
591.454 21.3922 -0.51204
461.547 0.763763 -0.450561
125.19 4.61076 -0.347331
425.571 40.8119 -0.134466
11.2263 0.935156 0.299284
711.389 10.2342 -0.0783424
368.633 40.4156 -0.398538
592.069 8.03861 -0.510756
[...]
POINT_DATA 13483
TENSORS Strain_matrix float
-0.266078 -0.583569 -0.7396 
-0.124412 -0.0237441 -0.0231983 
0.051064 0.00117199 0.294213 

-0.257643 0.263501 2.58194 
-0.210385 0.237871 6.07905 
-0.00404318 -0.00537694 -0.810046 

-0.0199849 -0.0037359 -0.12512 
0.0974521 -0.00765228 0.841864 
-0.00403198 -0.00182648 0.251188 

-0.265312 -0.24439 -1.06603 
0.0796259 0.394701 0.768781 
0.0030684 0.0190727 -0.10836 

-0.0185713 -0.0533681 -0.0285602 
0.0344356 0.00284287 -0.0579344 
-0.00469407 -0.000308116 0.0652871 

-0.00681237 0.000116787 -0.0964879 
-0.00507456 0.0038583 -0.00887166 
6.08761e-05 -6.86726e-06 0.0190391 

-0.0638468 -0.024796 -0.425658 
0.0269864 0.0557509 -0.651638 
0.00345372 -0.00145839 0.195629 

-0.141352 0.192418 0.177764 
-0.0689795 0.123563 -0.376033 
-0.0495759 0.0552146 0.593668 

-0.162056 0.197381 -0.283596 
-0.323136 0.211321 -0.735354 
0.0193559 0.0145258 0.0646262 

-0.0612586 -0.0133679 -0.121052 
-0.0282892 0.00278625 -0.723296 
0.00155634 -0.00403742 -0.370209 

-0.0264379 -0.0210597 -0.0333778 
0.0247027 0.00215838 0.00509575 
0.00279392 -0.0805994 0.187239 

-0.00677089 -0.0035706 0.0053223 
0.00281131 5.52937e-05 -0.000182644 
0.000483928 0.000500959 0.00621237 

-0.554859 1.39926 1.8586 
-0.455805 0.765397 1.75165 
0.0445527 -0.0285821 0.701889 

-0.524798 -0.456273 0.650258 
0.114609 0.322976 0.194953 
0.0874393 -0.00620716 0.33225 

-0.0983135 -0.0291513 2.69316 
0.0285383 0.0868958 -2.0744 
-0.0234138 -0.0141679 0.146307 

-0.0683899 0.0727703 -0.101165 
-0.0181582 0.0755442 0.0330674 
-0.0274778 0.00493066 0.149105 

-0.0104814 -0.0151713 0.0153593 
0.00780505 0.00481433 0.00260896 
0.00078902 9.65397e-05 0.00882035 

-0.013574 0.00869083 0.00279276 
-0.00261993 0.000574233 -0.0149023 
-5.62891e-05 0.000703649 0.0235356 

-0.0104063 0.00751649 -0.0063549 
0.00790178 0.00311817 0.0737057 
0.00418035 -0.000653596 0.0543048 

-0.177667 0.110468 -0.718936 
0.0471007 0.017594 -0.746327 
0.0231496 0.00973545 0.19113 

-0.00661342 -0.00622217 -0.0105051 
0.00344592 -0.00134247 0.00347412 
0.000275981 0.000208245 0.00896168 

-0.179119 -0.171899 -0.0685575 
-0.048849 0.0434825 -0.309827 
0.0574948 -0.0375916 0.695157 

-0.0143833 0.0129018 -0.398137 
0.0554527 0.00294131 -0.266533 
-0.000245243 0.000910016 -0.00621628 

-0.101292 0.299511 -10.7066 
-0.101055 0.163969 -2.18988 
0.00647164 -0.0191369 -1.03338 

-0.00801112 -0.0334546 0.353599 
0.0523643 0.00499658 0.124726 
0.00057249 0.000302833 0.0453059 

-0.0735298 -0.0796258 -0.0330735 
0.0925552 0.0364049 0.0442174 
-0.000488048 0.00348079 0.0175287 

-0.0330218 -0.0323226 3.45752 
-0.0176029 -0.00445277 3.53954 
0.000107876 -0.00193712 0.0497901 

-0.19757 0.101807 -0.118636 
0.222699 0.0545681 -0.266163 
-0.00504066 0.00490693 0.0226298 

-0.00208944 0.0157141 0.0404819 
-0.0217037 0.00375442 -0.00115894 
0.000572108 0.000226565 0.00298953 

-0.634923 0.453942 -2.05785 
-0.580195 0.522707 -1.59362 
-0.00104656 6.58788e-05 0.022751 

-0.028475 0.0270179 0.034189 
-0.00908122 0.0137092 0.0148052 
-0.00947381 0.00217718 0.052446 

0.00706659 0.0538259 0.0504579 
0.00791877 -0.0142656 0.00547631 
-0.000249565 -0.000477626 0.0068169 

-0.00409691 -0.0278762 0.00102217 
0.0378853 0.00265096 0.000383252 
0.00217359 -0.00149681 0.0223459 

-0.0117273 -0.0145434 -0.0221133 
0.0172702 -0.000357867 0.00863372 
-0.000892145 -0.000686713 0.0177059 

-0.0210325 0.0189347 -0.0509406 
0.0147935 0.013328 0.00663278 
0.000323948 -0.00166533 0.0125716 

-0.000680085 -0.183472 -0.106147 
0.197255 0.0438886 -0.119082 
0.00848277 0.00623652 0.0108682 

-0.14469 0.0496643 1.10833 
-0.013047 0.13139 1.04994 
0.00593253 -0.00935955 0.0332323 

-0.0257217 -0.00153376 0.00494647 
0.0316736 0.0183067 0.0251164 
-0.000772361 0.00212085 0.00840714 

-0.295227 0.745188 0.391444 
0.0474898 0.224891 0.919786 
5.84554e-05 0.00776959 -0.0179721 

-0.0143364 0.000349843 0.178775 
0.0178067 0.027521 0.802795 
-0.00769843 -0.0222375 0.00159093 

-0.0117719 0.000907267 -0.0265048 
-0.0101624 0.00241568 -0.0240124 
-0.000740876 -0.000145165 0.00317634 

-0.0031917 -0.0394081 -0.082828 
0.0190789 -0.0434642 -0.0133378 
0.0228264 0.065793 0.355196 

-0.207326 -0.479453 0.216862 
-0.210863 -0.0772243 1.02093 
-0.00467596 -0.0290204 0.530458 

-0.00829888 0.0108279 0.0597141 
-0.0122815 -0.00399804 0.0661141 
0.000889835 0.000603346 0.0150176 

-0.0150318 0.012359 -0.0601693 
-0.0198737 0.00304389 -0.00161842 
0.000276809 -0.00347236 0.00379432 

-0.00330437 0.0072586 -0.000122355 
-0.00550877 0.00152721 0.0186521 
-0.000281337 5.4168e-05 0.00237022 

-0.493024 0.453263 8.37116 
-0.440087 0.370633 13.8904 
-0.00730618 -0.0131631 0.329784 

-0.0108198 0.0295004 -0.00272794 
-0.0498028 0.0174017 -0.0225884 
-0.00356344 -0.000209877 -0.00612826 

-0.533694 -0.11121 -1.14949 
-0.118819 0.355099 -1.04176 
-0.0231502 -0.0551296 0.104741 

0.0182237 -0.00436594 0.214023 
-0.112227 -0.0175094 -0.0489786 
-0.0156236 0.0043445 -0.155629 

-0.00806474 0.0136071 -0.0343481 
-0.00828285 -0.000127227 0.035048 
0.00329756 0.00132479 0.0476499 

-0.000283227 -0.0453237 -0.00941129 
0.0676002 -0.0215424 -0.0176038 
0.000479267 -0.00121844 -0.00803034 

-0.0188302 0.017518 0.0417202 
-0.0274845 0.00763016 0.0549779 
-0.00326051 -0.00173385 0.0238921 

-0.105862 0.206114 0.0764552 
-0.148764 0.0165314 0.203244 
0.0251166 0.00926878 0.174757 

-0.0310849 -0.0106699 -0.355645 
0.0578671 0.0084482 -1.53903 
-0.0444362 -0.0380661 -1.43551 

-0.15203 0.0519405 0.660468 
-0.151862 0.0806507 0.0648879 
-0.0593193 0.00689572 0.0540059 

-0.146891 0.221672 -0.0659869 
-0.0385055 0.194692 -0.190266 
-0.00505608 -0.00119746 -0.0791036 

-0.00705553 -0.913827 -0.610288 
-0.00499321 0.0800719 -0.383093 
-0.00149972 -0.0319947 0.103275 

-0.00911503 -0.000925621 0.00993355 
0.00134374 0.00217506 0.00458607 
0.000335435 -0.000696823 0.00782042 

-0.0200917 0.0151805 -0.16415 
0.0276425 0.046771 -0.203621 
-0.0426239 0.0326359 0.0812242 

-0.109911 -0.207202 -0.186835 
0.305136 0.0507889 -0.0508558 
-0.00243204 0.0105925 0.00719501 

0.0055287 -0.0229996 0.0767108 
0.0213117 0.0195318 -0.025042 
0.0138683 -0.00959931 0.0938701 

-0.0106401 0.00117786 0.00991894 
-0.00153993 0.00189311 -0.00181288 
0.000232828 0.000679786 0.013562 

-0.0371463 0.0816662 -0.236123 
-0.00724046 -0.000617755 0.326409 
0.0113656 -0.00788089 0.0325311 

0.0125379 0.00737659 -0.0074598 
-0.0135025 -0.00928438 -0.0473673 
-0.000723301 0.004422 -0.0100866 

-0.0109573 -0.017843 -0.00225712 
0.0221799 0.00205094 0.0261776 
0.000661573 1.90507e-05 0.0137968 

-0.136466 -0.0447523 0.102271 
-0.0125625 -0.0083007 -0.0548451 
-0.00326774 0.0161127 0.0807027 

0.0662137 0.0194422 -0.1102 
0.0257584 -0.0699801 0.586219 
0.003232 0.0251427 0.156158 

-0.0150187 0.00102172 -0.037682 
-0.0056768 0.00587644 -0.219444 
-0.000450185 -0.00126764 0.0910387 

-0.0430187 -0.0218891 0.302689 
-0.00056801 -0.0346211 -0.121723 
-0.00399694 -0.00254546 0.106682 

-0.118539 -0.0995659 0.169394 
0.0607843 0.0929607 -0.0710127 
-0.0136586 -0.011531 0.044887 

-0.0225363 0.0372843 -0.0568205 
-0.0238249 0.0136119 -0.0427427 
0.0342034 0.0226994 0.191535 

-0.189872 0.225063 0.380204 
-0.134187 0.272429 -0.548028 
-0.0209115 -0.0131661 0.054674 

-0.0872102 -0.0457782 0.0820847 
0.00308384 0.0923241 -0.574009 
0.00515295 -0.00560091 0.0196944 

-0.00845699 0.0147763 0.118919 
-0.00802718 0.00822897 0.0171026 
-0.0241493 0.00625378 -0.221909 

-0.0662823 0.0713049 -0.0721522 
-0.0233053 0.036336 -0.0160881 
-0.0128596 -0.0385987 0.18879 

-0.0256957 -0.0357905 -0.140305 
0.0547461 0.0192215 -0.147384 
-0.000579662 0.00087173 0.0576176 

-0.0193366 0.0100655 0.0611303 
-0.013101 0.00183442 -0.0599242 
-0.000210818 -0.000308614 0.0301885 

0.055825 0.0275703 -0.0794209 
-0.195332 0.0199705 -0.27322 
-0.0481628 0.0358177 -0.0924594 

-0.480879 0.477705 -0.177717 
-0.822826 0.659332 0.621351 
-0.0371606 -0.0433653 0.0559225 

-0.00990356 -0.0641326 0.0563494 
0.0928144 0.0201897 -0.0109749 
-0.0054057 0.000214153 -0.00739902 

0.00760988 0.00271819 -0.0200189 
-0.00537916 -0.00207937 -0.0340939 
0.000658172 1.59228e-05 -0.0201299 

-0.00693485 0.0045897 0.00429053 
-0.00965181 -0.00224247 0.0268982 
-0.00100922 -0.000586822 0.0113631 

-0.077767 -0.169273 0.0794509 
0.206559 0.17474 -0.0174317 
0.00320129 -0.00514372 0.0106384 

0.0123918 -0.0924584 -0.0294214 
0.0520299 -0.049831 -0.0675919 
0.0157001 0.0240091 0.463643 

-0.0139485 -0.0359629 7.52507e-05 
0.0288399 0.00940357 -0.019882 
-0.00253213 -0.00219618 0.0199552 

-0.122331 2.86045 50.2367 
0.0237166 0.0418071 -1.72472 
-0.00276489 -0.0544227 -0.355495 

0.0100701 -0.0741839 0.00172126 
0.0473477 0.00436275 -0.00640878 
-0.00558518 0.00170998 0.00862683 

0.0124744 -0.0418276 0.0827344 
-0.047548 -0.0486875 -0.0690216 
0.00055254 0.00477453 0.129148 

-0.015072 0.00881876 -0.678388 
0.00129529 -0.0211639 5.13397 
-0.000416257 -0.000739431 0.559577 

-0.00857905 -0.017278 -0.0567426 
-0.00526564 -0.00104259 0.056608 
-0.0150079 -0.00405943 -0.035013 

-0.034934 -0.0358053 0.068552 
0.0561596 0.0388709 -0.0532488 
0.0074582 -0.00610905 -0.0471501 

-0.0242038 -0.00723029 2.27341 
0.0497221 0.0202034 1.27915 
-0.000552968 0.000167245 0.153577 

0.0043873 -0.00219223 -0.0167431 
-0.0297172 -0.0168913 0.111967 
-0.00414642 0.000775731 0.0101447 

-0.00529311 0.0176157 -0.0153043 
-0.0207215 0.00129258 -0.0203525 
-9.20323e-05 0.00023025 0.00792881 

-0.0137304 0.0118697 -0.0229776 
0.00653415 -0.00906712 0.0010367 
-5.93905e-06 -0.00870721 0.0354946 

-0.0161804 0.00300778 0.0425161 
-0.00651829 0.00725393 -0.0133599 
-0.00121745 -0.000141769 0.0109372 

-0.000637128 -0.0366713 0.110602 
0.0471555 -0.0166449 0.0205493 
-0.00198121 0.00209703 0.00776495 

-0.0607062 0.0226115 0.0121281 
0.0325047 0.0490517 -0.165282 
0.00191833 0.00318048 -0.0180576 

-0.0559271 0.051481 -0.0341303 
0.0272909 0.050858 0.372398 
-0.0141013 -0.0794908 0.721342 

-0.00375558 0.02476 0.0985027 
-0.0202472 0.00457917 0.00911993 
0.00153827 0.00584802 0.0509938 

-0.00852502 -0.18014 0.358732 
0.301464 0.115311 -1.51362 
-0.0107836 -0.0026582 1.27291 

-0.0181127 -0.000192648 -0.0660431 
-0.00643644 0.0136235 -0.0658947 
-0.0117086 -0.00329734 -0.0674109 

-0.00426287 0.00807626 0.00268979 
6.07283e-05 -0.000895726 -8.50755e-05 
0.00101936 0.000544854 0.00783747 

-0.0481309 -0.0693118 -0.191059 
-0.179544 -0.0312964 -0.460243 
-0.00899123 0.0708312 -0.0526093 

-0.202488 -0.0671506 0.0653614 
0.165749 0.22595 -0.253294 
-0.0441638 0.00401686 0.360669 

-0.013022 0.0193057 0.00882891 
0.0162552 0.0554591 0.0161731 
-0.00173967 0.00362708 -0.0450574 

-0.00465518 0.024152 0.0308351 
0.00384599 0.00687775 0.0523464 
0.00113903 0.00311435 -0.0127908 

-0.0084901 0.0120591 -0.00252314 
-0.00211695 0.00397398 0.00477364 
0.000428112 0.000291864 0.00547009 

-0.0500344 0.271018 -0.280541 
-0.173575 0.0947581 -0.108014 
-0.028522 -0.00157861 0.300891 

-0.00801998 -0.00842803 -0.202231 
0.0122743 -0.0156772 -0.513001 
0.000628049 -4.93097e-05 0.178276 

-0.0546671 -0.00691316 -0.0382617 
0.0493966 0.0774129 1.02938 
0.00275177 0.00406005 0.0654115 

-0.0107656 0.00116993 0.00241609 
0.0057325 0.00703682 -0.00773186 
-0.000956722 -3.38786e-05 0.00815555 

-0.0706304 -0.0821353 -0.22879 
-0.0771617 0.268475 0.672598 
-0.0690937 -0.117871 0.086822 

-0.0062402 0.0211993 -0.0142101 
0.136427 -0.00180023 0.486417 
-0.00222898 -0.00480674 0.0611306 

0.00695163 -0.00228665 -0.17647 
-0.0181275 -0.00217128 0.269733 
-0.00487438 -0.002739 0.090911 

-0.00476014 0.00230305 -0.0489803 
-0.0193232 0.00180595 -0.00920785 
0.000359735 0.00100847 0.00229756 

-0.0100199 -0.00121676 -0.00192474 
-0.00918196 0.00385583 0.00526206 
-0.000932316 0.00152785 0.00585728 

-0.0257613 0.0624739 -0.148408 
-0.170315 -0.0257302 -0.0102899 
-0.00439417 -0.0019312 0.0562161 

-0.0111695 -0.0150647 -0.0151506 
0.0274122 0.002821 0.0315853 
-0.00409871 -0.000884097 0.0573475 

-0.0388914 0.0198371 -0.0807113 
-0.020452 0.0185277 -0.012045 
-0.00015407 -0.000229396 -0.000944155 

-0.0269831 0.0639105 -0.0243937 
-0.0487586 0.0241958 0.00443502 
-0.00355497 0.00508011 0.0260372 

0.00340565 -0.0195551 -0.0982526 
0.0744618 -0.0084615 -0.00394305 
-0.00115353 -0.0071794 0.150896 

-1.14428 1.33503 4.36945 
-0.186866 0.614607 0.891319 
0.0399832 -0.0103668 0.312782 

-0.0137096 0.00395334 0.00715249 
-0.0143595 0.00717371 -0.0344488 
0.000823839 -0.000647093 0.00988578 

-0.00617175 0.0179058 -0.0234868 
-0.0126285 0.00980021 0.358155 
-0.000477288 -0.00101109 0.170776 

0.00283886 -0.0185763 0.00599596 
0.0117333 -0.00496407 0.00873243 
0.000793856 -0.000434242 0.00670207 

-0.0378217 0.109502 0.555521 
0.032971 0.0341546 0.34814 
0.0086366 0.0126788 -0.0191576 

0.0400599 -0.172097 0.108562 
0.196492 0.0475956 -0.127316 
-0.0102686 0.0179732 0.571688 

-0.037744 0.0189189 -0.37645 
0.0390937 0.0341472 0.544684 
-0.00281261 -0.00534326 0.549715 

-0.0125038 -0.0580164 -0.0901488 
0.0644929 0.00999819 0.0694834 
0.0167592 0.0201173 0.2475 

0.0956749 -0.0625784 0.00261885 
0.0848621 -0.0549925 -0.00821849 
-0.00065634 -0.0899128 0.0289643 

-0.0128433 -0.0226466 0.309553 
0.0108151 -0.0137581 0.786748 
-0.000159296 0.00399473 -0.0149346 

-0.0539701 0.0119855 0.131265 
-0.0434415 0.00130395 0.0202774 
-0.0115209 0.00735045 0.0388874 

-0.01239 0.0385458 -0.114902 
-0.0245365 0.00235751 0.0154047 
0.00202881 0.00207466 0.0335505 

-0.0209341 0.027758 0.250865 
0.00102808 0.0042198 0.108564 
-0.000251551 8.51011e-05 -0.0159694 

-0.972514 2.02659 4.53329 
-0.412185 1.0749 2.49644 
-0.00361146 -0.00116132 -0.0569438 

-0.00100905 0.0270712 0.0457961 
-0.0132857 0.000194551 0.0724153 
0.00283348 0.0957508 1.17896 

-0.0925641 -0.0210852 0.256957 
0.103836 0.150293 -0.240726 
-0.02137 0.0270076 0.142961 

-0.00531621 -0.00212253 0.00855907 
0.00332919 -0.00423492 0.00633835 
0.0056519 0.0113594 0.0428923 

-0.0173192 -0.0247418 -0.0283892 
0.0501015 0.0111135 0.00692474 
0.000252288 -0.000265903 0.0309699 

-0.0178119 0.0197301 0.00816557 
-0.0450608 0.000780374 -0.0185794 
-0.00813931 0.00454274 0.00735343 

-0.0100275 -0.0213105 -0.0277851 
0.0202793 -0.00288417 0.101289 
-0.00137085 -0.00108737 0.103197 

-0.00642304 0.00681101 -0.00151899 
-0.00814428 0.00215726 0.0206632 
6.09341e-05 1.8537e-05 0.00834298 

-0.0162952 0.0108041 -0.00366448 
-0.0323351 -0.00248509 0.0947592 
-0.0173404 -0.0196359 0.152463 

-0.0110857 -0.054155 -0.0527099 
0.0458857 0.00888716 -0.00152103 
0.00116765 -0.00201728 0.00936618 

-0.0192334 0.0414071 0.0506174 
-0.0761994 0.0771867 -0.0225563 
0.00993218 0.0177028 -0.0276212 

-0.00896908 0.0154224 -0.164906 
-0.0124123 -0.00774234 -0.079788 
-0.000765131 -0.000427529 0.0542062 

-0.0102978 0.0294164 -0.128956 
-0.0118772 0.00253257 0.149187 
0.000620138 -0.000231408 0.0150902 

-0.000823961 0.0163988 -0.0250306 
-0.0112521 0.00251664 0.0171956 
-0.000447207 0.00117727 -0.0109701 

-0.00750852 0.0336535 0.684907 
-0.00281486 0.00637564 -0.849503 
0.0116426 0.0157186 -0.846984 

0.00762684 0.0207312 -0.0162176 
-0.0246719 0.0395109 -0.184471 
0.000238887 -0.00195348 0.0233344 

-0.00540363 0.00469891 -0.0680603 
-0.00254204 -0.00101812 0.0159657 
0.00047133 -0.000580441 0.0679111 

-0.00586655 0.0148069 -0.0822648 
-0.0140721 0.00275507 -0.0542141 
7.75772e-05 -0.000212762 0.0135579 

-0.00856335 -0.00502915 0.0332804 
0.0031599 0.00500317 -0.00118668 
-0.00110808 -0.00012067 0.0127401 

0.0670695 -0.350962 0.0149479 
0.350046 0.0646283 0.0422224 
0.0256332 -0.00535163 0.00432195 

-0.0472996 0.106044 -0.0549386 
-0.113045 0.0197048 -0.105545 
0.00576708 0.0159171 0.0798295 

-0.00563421 0.00642085 0.209194 
0.000608232 -0.00261405 0.095115 
0.00109366 -0.00152634 0.114272 

-0.130734 0.769782 6.0595 
-0.286548 0.44469 6.16535 
0.00589917 0.0380091 -0.177765 

-0.0782851 -0.0423892 4.60215 
-0.0218083 0.0483401 -0.796772 
-0.01466 -0.00691778 -0.0278678 

-0.161371 0.294329 -2.48443 
-0.00867896 -0.0717425 13.1274 
-0.000222668 -0.000731163 0.586868 

-0.00279156 -0.00129186 -0.0783532 
0.00140119 0.00596357 0.111282 
0.00111323 0.00146891 0.0288597 

-0.38181 -0.398443 0.273772 
-0.180383 0.205102 1.29845 
0.0379295 -0.00344717 -0.154817 

-0.244732 0.161117 8.63828 
0.0270578 0.385785 4.21524 
0.00486054 -0.00130797 -0.22223 

-0.0490209 -0.0265904 0.322999 
0.223072 0.096448 -0.091117 
0.00354483 0.00898322 -0.0472273 

-0.351983 -0.276193 -0.181744 
0.340426 0.430237 0.254851 
-0.0403054 -0.045462 -0.0663397 

-0.0272558 0.00321808 0.0197137 
-0.00317084 0.0232008 0.0315125 
-0.000610461 -0.00111623 0.0101055 

-0.019078 -0.0282594 0.021483 
0.067452 -0.00105879 -0.00412861 
0.00186815 0.00339711 0.0531324 

-0.00762855 0.00304592 -0.00802435 
0.000948313 0.00012349 -0.00569435 
0.00196276 -0.00173298 0.0396795 

-0.00637665 0.0041534 -0.0312091 
0.00250946 0.00269496 -0.0188415 
0.0007356 0.000642944 0.0113726 

-0.00591893 0.00967529 0.000845706 
-0.0113708 0.000823397 -6.25767e-05 
-0.000290478 -0.000193782 0.00660657 

-0.0131466 -0.0201044 -0.149461 
0.0266629 0.00706245 0.127211 
0.00843293 -0.0634272 -0.342984 

0.00225308 0.0458279 0.318497 
0.0245553 0.0110403 -0.165461 
0.000571133 -0.000397874 0.00992956 

-0.162408 0.073321 0.435399 
-0.107997 0.0640077 0.456983 
0.0265618 -0.0230193 -0.346257 

-0.258729 -0.4238 0.0262607 
0.245761 0.214188 0.288562 
-0.0361085 0.0851068 0.494216 

-0.00751722 -0.0769645 0.682095 
0.0461801 0.00869919 0.294825 
-0.00331187 0.00244475 0.0361048 

-0.0163823 -0.00320997 -0.0165153 
0.00500696 0.00833647 -0.0088963 
0.00486506 -0.0013135 0.0163024 

-0.0097961 0.00612137 0.00356924 
-0.00859873 0.000679742 -0.0042209 
-5.52847e-05 0.000274851 0.0121032 

-0.00506909 -0.0878352 0.557687 
0.0880108 0.0428933 0.57476 
-0.007092 0.00153292 0.174092 

-0.0459138 -0.0587706 0.0776484 
0.0602576 -0.00685719 0.054815 
-0.0290848 -0.0183587 0.24339 

-0.0793321 0.0495654 -0.362124 
0.172828 0.0982726 0.742882 
0.00866129 -0.0370927 0.222753 

-0.111714 -0.0471869 0.0090904 
0.266654 0.0469117 0.160493 
-0.0173213 -0.0130629 0.137029 

-0.19087 0.107155 -0.943989 
-0.0887873 0.12629 -0.34666 
-0.0031855 -0.0348565 0.0281916 

-0.0234495 -0.0130322 0.667843 
0.0183688 -0.00161149 -0.206221 
-0.00082708 0.0114275 0.215379 

-0.0309058 0.0289675 0.0217565 
-0.0332874 -0.00200583 0.0023893 
0.00859101 0.00574736 0.0561383 

-0.0208534 -0.0276336 -0.10852 
0.0289951 0.0067065 0.00600962 
0.00257478 -0.000390953 0.0387639 

-0.0168367 0.00804163 0.0175352 
-0.0106953 0.00818765 -0.108202 
0.000373857 -0.000201282 0.0371357 

-0.0518329 -0.112679 -0.0274279 
0.106851 0.0457855 0.0565674 
0.00136615 0.000856543 0.0421279 

-0.00692069 0.0332532 -0.0870738 
-0.0261585 -0.00782082 -0.0529697 
-0.000459628 0.00142576 0.0160355 

-0.0552746 -0.222478 0.200125 
0.0593854 0.0852874 0.433049 
-0.023337 -0.0377004 -0.00496286 

-0.0168442 -0.133137 -0.134339 
0.0854727 0.0187871 0.136411 
0.00247905 0.00269786 0.00261251 

-0.0341668 -0.00978448 0.0141206 
0.0451224 0.0240211 0.111524 
0.000159396 0.00178996 0.0406478 

-0.123299 0.0301052 0.0220387 
-0.158776 0.113796 -0.40456 
0.00198645 -0.0191813 -0.0383249 

-0.883252 -0.0582481 2.80666 
-0.0128395 0.304867 -0.791965 
-0.0231493 -0.00287229 0.26453 

-0.0425133 -0.0168211 0.120039 
-0.182846 -0.040414 -0.0517498 
0.0193228 -0.0429014 -0.0308857 

-0.191386 -0.00741982 0.291129 
0.0355391 0.224517 -0.513004 
-0.00427349 0.00527005 0.100928 

0.00686612 -0.030198 0.0128148 
0.0457494 -0.00157208 0.0200394 
-0.000270356 -0.00188738 -0.00053074 

-0.0690227 0.00586332 -0.0954355 
0.027701 0.000522241 -0.0483936 
-0.00254472 -0.000282347 0.0552534 

-0.00253954 -0.01447 -0.00435566 
0.00276929 -0.00699921 0.0156084 
0.00123518 -0.00111363 0.0192169 

0.00598999 -0.0437916 0.137698 
0.0765297 -0.00803913 -0.0846183 
0.000526682 -0.00121371 0.00406737 

0.00458813 -0.092513 -0.0143946 
0.0538057 0.019233 -0.0394446 
0.000896933 0.00630766 -0.0168221 
