# vtk DataFile Version 3.0
Output file generated by Yade's KinematicLocalisationAnalyser
ASCII
DATASET UNSTRUCTURED_GRID

POINTS 13483 float
659.233 27.5022 -0.410134
864.994 44.1971 0.456309
129.495 6.17173 -0.449305
914.454 4.25503 0.322645
536.813 7.56351 -0.303534
337.86 34.4322 0.349372
168.569 6.76559 0.405921
615.755 10.0021 0.138325
533.677 22.5242 0.14542
799.318 12.145 0.331185
226.233 8.73612 -0.124475
275.89 6.27743 -0.268344
713.803 28.4045 0.162879
689.836 13.8274 0.072986
147.848 16.7799 0.436165
238.144 33.9788 -0.397485
233.91 12.8045 -0.270143
309.973 9.43884 0.384949
365.642 32.2197 0.0459276
564.928 8.52883 0.34593
441.297 36.0728 0.101303
640.929 43.683 -0.272896
910.29 31.2495 -0.56888
769.898 40.8544 0.452992
493.025 16.0003 0.285405
258.687 43.6611 -0.123358
528.495 26.9584 -0.483992
634.948 18.9703 0.217669
48.5405 15.3508 -0.468657
794.106 30.7762 -0.310072
518.412 4.88428 0.315478
18.0656 22.7328 -0.291002
879.896 40.0194 0.280529
532.363 2.46569 0.485842
84.2894 43.5103 -0.100305
561.532 29.8444 -0.346583
571.691 16.5623 -0.404274
369.184 22.2274 -0.18099
575.097 25.101 -0.327619
376.531 32.6168 0.422171
259.01 14.4638 0.292324
466.61 35.069 0.0709529
743.939 6.95229 -0.134875
207.549 6.17776 0.369807
59.6992 6.85111 -0.125013
73.6398 8.70557 -0.26802
762.424 8.8091 0.479518
25.4139 11.5216 0.283375
663.865 43.2726 -0.353084
745.427 22.4877 0.325544
185.971 31.784 -0.294344
858.941 32.4559 -0.145126
37.7982 27.6968 0.109629
575.891 2.96368 0.314223
153.273 7.42147 -0.468033
643.851 33.0361 0.385722
542.944 25.8844 -0.114181
188.197 0.930821 -0.259651
35.3538 2.42878 0.281092
374.428 17.4949 0.278594
676.03 43.9619 0.133645
497.055 32.9471 -0.172958
429.037 1.03401 0.187176
774.992 7.56817 0.360582
28.4402 42.1041 0.235825
275.495 30.0513 -0.307666
799.414 7.3713 0.183842
736.809 43.2564 -0.372173
448.836 8.52297 -0.474002
616.608 3.48937 -0.342972
834.194 27.9894 0.386205
141.146 7.46668 0.281214
536.68 24.8971 -0.125106
513.863 14.6779 -0.136973
316.718 16.5469 -0.227875
22.3732 13.4019 0.224396
887.025 30.8737 0.354057
357.589 38.2887 -0.278917
742.873 19.5992 0.311958
762.119 12.5716 -0.263136
897.377 10.8743 -0.197692
500.734 33.9013 -0.169657
99.624 37.594 -0.274245
755.965 32.7411 -0.208302
710.018 36.8661 0.104439
918.617 35.9737 0.121704
889.709 0.799008 -0.476562
313.041 28.5016 0.439193
678.006 6.24045 -0.116105
26.2863 5.1703 0.455728
143.336 37.1252 0.137968
553.247 14.0764 0.199928
876.784 23.0489 -0.497857
210.898 28.0865 0.236227
47.9304 33.8589 0.268236
531.217 1.15958 0.11382
254.025 8.81328 -0.351045
837.528 36.9442 0.279083
863.855 24.7422 0.240844
389.095 20.3216 -0.266576
177.158 26.3761 -0.464001
595.456 37.3474 0.397056
409.551 15.1414 -0.42543
445.69 29.0647 -0.106033
407.596 4.4442 0.404688
593.222 10.8051 -0.0895539
919.365 11.1924 0.200193
86.6826 38.4451 0.389448
361.502 4.75659 -0.174895
608.844 9.34524 -0.324909
388.124 43.0845 0.441996
27.9652 23.9835 -0.466901
33.0094 5.67952 0.325659
617.687 31.6329 -0.398066
546.219 23.5361 0.139846
28.5119 36.3287 0.40572
100.488 30.0558 0.209252
350.746 15.7029 -0.302424
654.455 18.5817 0.131575
513.675 37.156 0.304673
819.308 7.53269 -0.36395
810.021 6.12744 -0.204268
417.636 36.5238 -0.0947296
696.746 24.3416 -0.109329
257.569 16.7971 0.472636
356.442 3.68123 0.462517
111.968 30.7295 -0.336469
125.866 23.6196 0.263633
590.393 37.7151 0.0745766
330.668 18.5213 0.476646
788.814 33.8559 -0.101082
741.48 42.6994 -0.123112
520.03 20.1936 -0.387061
867.996 8.26335 0.300567
463.699 22.9907 0.227662
299.474 23.8779 -0.295661
743.918 30.1941 -0.309934
301.59 27.9895 -0.389256
628.254 11.4417 -0.184975
358.791 35.0078 0.188262
547.133 11.3337 0.440895
396.701 30.8058 0.0940463
466.114 16.3658 -0.105682
344.193 41.134 0.386517
206.897 29.2316 -0.121294
870.535 41.7224 0.179077
914.779 11.5933 -0.293637
6.46492 11.8432 0.442707
470.306 21.9701 -0.415316
41.541 22.1771 0.080728
407.131 30.7733 -0.458476
427.899 24.3503 -0.25749
81.1432 11.757 -0.465553
56.326 32.4955 0.402065
245.086 13.2691 0.392739
677.646 37.7056 0.410292
630.761 20.1896 -0.419266
81.3962 20.5776 -0.462003
772.971 44.372 -0.404822
852.941 2.44164 0.407247
729.009 39.439 0.510291
769.848 2.31049 0.378942
599.994 26.0639 0.408553
642.555 43.8031 0.437612
557.205 17.5289 -0.410253
911.483 2.92754 0.300462
242.825 24.232 0.115818
138.577 34.1094 -0.189329
268.315 6.38252 0.36391
102.653 4.08538 0.252487
69.7825 9.94262 0.184089
299.217 35.3204 -0.307965
18.1153 24.4739 0.35448
606.381 18.8726 -0.387212
663.599 38.3465 0.222366
502.791 20.7801 -0.366461
900.616 37.2227 0.386569
441.617 8.45673 0.0844117
473.453 35.3831 -0.0704112
584.908 3.43354 -0.177562
25.0113 23.576 0.372197
631.083 4.26799 -0.366417
595.446 4.34187 -0.282778
224.373 11.263 0.477723
461.869 16.0723 -0.189374
338.265 6.28551 0.319112
421.107 18.6753 -0.33723
823.72 40.4748 0.118866
208.978 25.3836 0.432965
881.215 6.75929 -0.29891
822.653 36.6967 0.359133
416.518 10.079 -0.181879
796.228 2.42298 -0.372086
663.925 24.6416 -0.393245
827.831 17.6725 -0.399568
468.502 41.9954 -0.281699
540.921 12.2781 0.34007
506.504 43.3713 0.218455
484.622 8.5627 0.133169
732.511 38.5203 0.308999
730.272 34.6505 -0.362112
209.143 38.2319 0.343578
895.171 10.8469 -0.149701
645.175 44.3367 0.241791
12.317 16.7629 0.19011
442.96 24.8369 0.334031
204.152 22.6171 -0.385242
101.278 38.4836 0.202922
874.559 20.5221 -0.440759
725.338 42.7964 -0.231598
347.029 25.0663 0.359749
581.54 10.1381 0.318299
89.5849 43.3519 0.163678
269.448 25.5672 -0.460221
609.474 22.889 0.358837
530.119 18.2755 0.399321
285.919 0.890709 -0.342503
605.241 39.071 -0.353419
583.413 40.019 -0.446753
525.405 32.2761 0.378156
544.168 0.772156 -0.485813
781.644 17.6205 -0.390697
195.854 11.8251 -0.159168
545.859 35.5736 0.441803
618.576 38.6954 0.118165
79.3331 0.943427 0.274358
273.988 4.6897 0.16805
913.962 13.4083 0.220311
897.751 12.8293 -0.40064
921.694 15.8077 -0.483921
330.327 8.45232 -0.227129
835.171 21.6005 -0.396161
443.467 40.6449 -0.32015
488.982 0.815733 -0.397235
717.007 34.6411 -0.497421
29.7404 30.0319 -0.302165
359.822 40.5756 -0.467127
274.887 2.83169 0.308768
883.255 37.2657 0.24003
793.339 45.8417 0.227447
312.869 10.7933 0.18605
737.348 28.2843 -0.103518
610.479 2.65902 0.260098
593.116 6.39493 0.411283
105.553 17.8235 -0.464372
330.161 1.03509 -0.221969
374.005 2.25659 -0.367224
15.2702 7.59109 0.310872
4.72148 30.2059 0.242135
176.975 18.6111 0.364825
74.4259 40.9472 0.209454
72.908 28.3098 -0.326815
461.54 14.2283 -0.427528
399.872 34.3677 -0.468989
856.708 34.6828 0.144906
21.3716 3.94493 -0.283635
76.9091 6.75402 0.130061
688.822 36.8918 -0.154366
321.2 0.932766 0.317773
397.418 15.7328 -0.114596
256.937 4.57445 -0.395256
721.865 20.7588 -0.185331
492.334 8.32078 0.398309
838.327 19.5034 -0.360351
695.889 27.9525 -0.314111
741.779 17.3273 -0.117863
458.027 26.316 0.498188
111.252 43.7745 0.306284
594.225 41.1752 -0.0724781
825.015 13.1811 -0.164683
259.263 29.6903 -0.234804
35.2196 16.8306 0.162226
366.593 13.519 0.491019
117.595 39.6324 0.345159
291.826 41.6762 -0.189217
463.78 1.08213 0.163038
883.992 27.3909 -0.407841
761.735 0.705362 -0.520124
362.129 3.07315 0.473724
327.017 26.1329 -0.144283
505.163 40.1971 0.205649
89.1091 7.75515 0.450873
216.282 44.3458 0.377373
866.145 27.115 0.332685
540.791 38.0406 -0.0865124
218.513 40.6121 -0.249869
175.741 41.2593 -0.385281
921.669 32.078 -0.426842
917.598 11.1485 -0.465326
666.996 3.61779 -0.515566
207.804 23.9918 0.0836012
602.063 27.0386 0.102028
604.138 26.7448 0.254332
446.38 5.55494 -0.137505
525.922 0.934297 -0.277369
854.609 36.5505 -0.477643
92.8179 30.2519 -0.222492
727.834 17.8512 0.418002
299.37 15.351 -0.332308
10.818 2.33104 -0.335628
137.139 35.7132 -0.198552
73.3233 22.7046 -0.445355
781.37 35.6783 0.307587
889.3 42.4762 -0.175474
203.074 27.7467 0.186457
909.169 11.4518 -0.285674
49.2214 35.7331 -0.256684
99.3596 28.3958 0.152067
700.407 12.8177 0.347066
451.453 17.7017 -0.4776
568.285 16.4445 0.114249
259.997 27.8074 0.183026
685.681 4.45415 -0.416241
922.406 10.8736 0.326512
32.7444 31.105 -0.276786
294.757 7.68309 0.184793
242.663 14.8696 0.244301
1.11084 34.7789 0.146623
246.089 14.3409 -0.365392
231.294 10.8248 0.141576
234.392 25.7877 -0.271669
145.539 27.2004 0.136313
600.287 14.7276 -0.327856
182.969 13.9366 -0.33736
877.524 38.7876 -0.220253
190.456 3.74986 0.478362
51.8189 36.6764 -0.357231
830.862 46.1913 -0.426133
306.714 31.079 -0.387445
752.195 23.0145 0.425503
895.251 27.7728 -0.504203
328.327 9.07568 -0.112309
820.429 28.669 -0.319904
358.845 2.62427 -0.359954
454.103 23.5655 0.367385
748.546 15.7944 -0.41457
115.63 11.6609 0.399865
527.667 3.96555 -0.457791
842.315 17.2699 -0.214353
96.5312 7.72269 -0.176459
307.472 14.4984 0.199235
462.378 11.482 -0.198675
909.709 2.52054 0.382546
434.314 1.87616 -0.474893
193.594 38.0736 -0.268286
827.793 10.5881 -0.276411
140.522 35.3217 -0.161098
287.279 30.9808 -0.377891
437.28 21.36 0.201524
630.884 13.2032 -0.319718
422.781 9.81714 -0.438499
498.76 27.1945 -0.39727
866.239 43.8078 -0.361121
52.0617 10.8032 -0.107773
326.624 37.409 -0.255534
414.399 26.5749 -0.344306
447.304 20.7283 0.240209
571.33 43.6823 0.356611
847.07 34.4022 0.242435
736.002 34.0622 0.350201
246.66 33.6605 -0.380919
15.3501 30.6498 -0.156775
728.609 35.7342 -0.125444
557.199 40.4257 -0.149424
250.898 38.4849 0.0954409
760.213 30.2592 -0.119171
165.709 9.09826 0.195583
400.344 20.6067 0.275226
506.961 41.2542 -0.0989136
452.067 19.3296 0.193124
861.594 46.3112 -0.290949
465.264 3.34495 0.416979
54.5589 24.6654 -0.288048
514.028 30.9593 0.355528
475.157 41.2932 0.368246
880.756 32.9619 0.233978
817.396 27.5507 0.237119
593.533 18.0997 -0.169025
870.674 34.9531 0.408504
320.266 2.05055 -0.425827
413.274 28.6578 0.456387
31.8109 38.1053 -0.298096
823.614 29.3603 -0.148343
672.727 19.3396 -0.486064
506.186 0.777617 -0.482893
138.429 4.4515 0.282472
466.3 39.4432 -0.0944635
13.3785 0.914793 0.310801
908.542 5.24966 0.190916
[...]
POINT_DATA 13483
TENSORS Strain_matrix float
-0.0241511 -0.0772048 -0.231354 
-0.0284945 -0.0473639 -0.158268 
6.70481e-18 8.99233e-18 1 

-0.13205 -0.120604 -7.07871 
0.00568486 0.0815482 3.55074 
-2.57011e-18 -1.26046e-17 1 

-0.0444401 -0.0159857 0.217965 
0.00733587 -0.0856789 0.614261 
7.41091e-19 3.75839e-18 1 

-0.232338 0.00345813 -0.217334 
-0.0277997 0.0317398 -0.0638344 
2.52094e-18 1.32553e-18 1 

-0.0844875 -0.0213773 0.0673557 
0.00745301 -0.0668603 0.0350923 
-6.97128e-18 -1.4055e-19 1 

-0.0414581 -0.00307561 -0.0245896 
0.0087199 -0.0714078 0.0862729 
-7.35614e-18 -3.5737e-18 1 

-0.0260377 -0.0229559 0.0312794 
-0.0036543 -0.10029 0.0149771 
-1.16063e-17 -3.44642e-18 1 

-0.0620636 0.0259277 -0.0777767 
0.00615322 -0.0601878 -0.0321856 
1.67199e-18 -6.4093e-18 1 

-0.0528238 0.0232419 -0.128226 
0.0433253 -0.0206798 -0.139771 
-2.28993e-18 -5.72483e-18 1 

-0.181066 -0.0015516 -0.151975 
0.027705 -0.0467678 0.150451 
1.00441e-17 8.78105e-18 1 

-0.0455736 0.0184712 0.0756915 
-0.0106271 -0.0658548 -0.170829 
-4.6622e-18 3.6349e-18 1 

-0.0543892 -0.0383667 0.0131761 
-0.0662422 -0.0971398 0.0118432 
-2.30923e-18 -4.53598e-18 1 

-0.102561 0.0807043 -0.15083 
0.0650849 -0.0197116 -0.163787 
-5.14529e-18 -5.88455e-18 1 

-0.117671 -0.00351102 -0.273923 
0.0145191 -0.0497913 0.151623 
2.50201e-18 1.39709e-18 1 

-0.0609386 0.00192005 0.0420666 
0.0205469 -0.0849883 -0.0400432 
2.48666e-18 5.62606e-18 1 

-0.0321132 -0.0192443 -0.118055 
-0.0319021 -0.0378186 -0.187446 
-1.53504e-18 7.00626e-18 1 

-0.0167614 -0.00628081 0.0432737 
-0.00583977 -0.106068 -0.0155316 
3.23884e-18 -1.70509e-18 1 

-0.0836318 0.00166111 0.0721102 
0.0189345 -0.085606 0.00501325 
-7.74332e-18 -3.73453e-19 1 

-0.0979629 -0.00515517 0.141319 
-0.0333485 -0.0473083 0.0301374 
8.31646e-18 -9.70253e-18 1 

-0.060737 0.0336899 0.0151052 
-0.0482865 -0.0905854 -0.00151669 
-7.37093e-18 -4.30639e-18 1 

-0.0492676 -0.00570532 0.0398782 
0.054862 -0.0298747 0.0218423 
-5.89992e-18 -6.44452e-18 1 

-0.05541 -0.142659 0.491329 
0.0131121 -0.0282034 -0.0127152 
3.72324e-19 -1.98573e-18 1 

-0.248691 0.0164187 0.33381 
-0.0331093 0.0459382 5.0064 
3.81474e-18 -2.78123e-18 1 

-0.109458 -0.0182998 0.244092 
-0.0720882 -0.0227933 1.04867 
-5.22332e-18 3.46325e-18 1 

-0.0364096 -0.0252648 -0.167011 
0.0841242 -0.0520583 -0.0208376 
-1.25787e-17 -6.28062e-18 1 

-0.0291807 0.0696831 -0.189822 
-0.0871153 -0.0147544 0.0514832 
3.50331e-19 -7.25885e-18 1 

-0.0711688 -0.0136942 2.43478 
0.000220444 -0.0385354 -3.89064 
1.20118e-18 7.13117e-18 1 

-0.121376 -0.041208 0.160636 
-0.0872717 0.00707885 0.100415 
1.51848e-17 -1.24078e-17 1 

-0.0469048 0.0107843 0.817764 
0.0245869 -0.0821451 -3.03561 
-2.38124e-18 -3.71e-18 1 

-0.140441 0.022539 -0.167235 
-0.0329982 0.00948544 0.0703825 
-7.64527e-18 9.02327e-18 1 

-0.0536581 -0.0190651 -0.255578 
0.0112399 -0.152259 0.410301 
-7.97305e-18 2.17868e-18 1 

-0.0725957 0.00419372 -0.0616561 
0.0935219 -0.090275 -0.112504 
9.15651e-18 1.07391e-17 1 

-0.160779 -0.0238215 -0.085207 
-0.0460252 0.0455584 0.263916 
-5.36272e-18 6.53158e-18 1 

-0.0791895 0.0259538 -1.62391 
-0.0105101 0.0202218 -1.44712 
6.65716e-19 -1.88377e-17 1 

-0.0123089 0.0137085 -0.0617372 
-0.0638719 -0.117703 -0.179081 
-6.41385e-18 -1.59228e-17 1 

-0.102136 -0.0426115 -0.00687522 
0.0535583 0.0119201 0.116209 
6.07299e-19 -2.2863e-18 1 

-0.0554016 -0.00397019 -0.0943798 
0.00564768 -0.0514427 -0.209953 
-3.76072e-18 -9.43867e-18 1 

-0.0134465 -0.0238812 -0.0219099 
-0.0323216 -0.107978 0.0384852 
3.21475e-17 1.86961e-18 1 

-0.0500778 -0.028907 0.0144363 
0.0505849 -0.0445861 0.101435 
-8.06278e-18 1.20191e-18 1 

-0.0444219 -0.0312237 -0.145958 
0.00344279 -0.022101 0.937434 
-4.32707e-18 -9.90751e-18 1 

-0.0490085 0.0396603 -0.048558 
-0.0392972 -0.0832211 -0.159829 
2.37058e-18 8.85582e-18 1 

-0.0227594 -0.0270532 0.0320384 
-0.0473922 -0.0302712 0.191371 
5.53783e-18 -1.32454e-18 1 

-0.16312 -0.0162853 0.0610033 
-0.0179111 -0.0320808 0.177221 
-1.63346e-17 9.67774e-18 1 

-0.0360448 -0.0264114 0.742598 
-0.00230807 -0.0880156 -0.462196 
-2.66672e-18 -9.87357e-18 1 

-0.0357059 0.0146127 -0.0195359 
-0.0197975 -0.113861 0.14725 
-6.95088e-18 -3.6552e-18 1 

-0.0351427 0.00788061 -0.0257534 
-0.0319442 -0.0714633 -0.0166238 
-6.62483e-18 -1.10529e-17 1 

-0.12535 0.00974687 1.34105 
-0.0394555 -0.0667363 1.00269 
-8.61325e-18 -4.50666e-18 1 

-0.0343553 0.00859801 0.0296631 
-0.0214073 -0.121481 -0.00833444 
-6.23032e-18 2.47153e-18 1 

-0.100562 0.044101 -0.152216 
-0.0741845 0.00717416 -0.144109 
1.05619e-17 -4.5964e-18 1 

-0.0364682 -0.0312852 -0.167727 
0.0291836 0.00638325 0.781694 
-8.15386e-18 2.3334e-17 1 

-0.0366916 -0.0118207 -0.049423 
-0.0234678 -0.0348593 -0.365977 
1.18525e-17 -1.9073e-18 1 

-0.121551 -0.021692 -0.259525 
-0.0303199 -0.0236415 -0.316597 
-9.06882e-18 3.99299e-18 1 

-0.0694633 -0.0322239 0.0323183 
0.00595237 -0.0116377 0.00564944 
6.87157e-18 5.4375e-18 1 

-0.0844691 0.0242988 0.0838798 
-0.00872876 -0.0563851 -0.0299332 
6.14538e-18 -4.04301e-18 1 

-0.0619627 -0.00122521 0.181462 
-0.00743134 -0.0875705 -0.379974 
6.65575e-18 -4.48178e-19 1 

-0.076053 0.00264359 -1.02284 
-0.0163637 -0.00473239 0.544589 
1.76972e-18 -2.00453e-18 1 

-0.0589761 -0.0301192 0.0661387 
0.0983854 -0.00203997 0.210501 
-1.45999e-17 3.08843e-18 1 

-0.0487425 -0.0478639 -0.333302 
-0.00943611 -0.117867 -0.00900039 
1.11603e-18 -3.34199e-17 1 

-0.0253884 0.0198385 -0.078952 
0.0055594 -0.142378 0.064198 
1.78906e-18 -1.08669e-17 1 

-0.0641007 -0.00443189 -0.0902261 
-0.0626898 -0.0764155 0.107373 
4.53895e-18 -2.82527e-18 1 

-0.0447373 0.276162 -0.172509 
0.0753276 0.0820516 -0.275002 
-8.16981e-18 6.45516e-18 1 

-0.0586216 -0.0203984 -0.261374 
0.0207641 -0.00637291 -0.224576 
8.27516e-18 -3.29161e-18 1 

-0.0614131 -0.0398546 -0.162559 
-0.000330608 -0.0384736 -0.0420847 
8.19965e-18 2.20856e-17 1 

-0.0991917 -0.00480169 -0.249155 
0.0289143 -0.05166 -0.0484307 
6.00626e-18 1.08352e-18 1 

-0.0382361 -0.025015 -0.0942315 
0.0229811 -0.0276426 -0.0496631 
-6.5651e-18 6.43553e-18 1 

-0.126235 0.00327287 -0.0445581 
0.00271371 -0.0343322 0.0491804 
5.88687e-18 -7.6244e-19 1 

-0.144834 0.038784 0.0115657 
0.0352342 -0.0597489 0.00206973 
-2.40006e-19 -1.15203e-18 1 

-0.111685 -0.00425199 -0.177508 
-0.00733158 0.0278325 0.174258 
2.78592e-18 1.64702e-18 1 

-0.0725289 0.00537251 0.271688 
-0.0465841 -0.0890763 0.411305 
-4.31588e-19 4.82311e-18 1 

-0.110751 -0.00917796 0.0954516 
-0.0215978 -0.0947502 0.0967915 
6.81287e-18 -7.5686e-18 1 

-0.138513 0.0285093 0.137431 
-0.0730716 -0.038942 -0.350308 
4.33238e-18 -3.91628e-19 1 

-0.0386345 0.0170118 -0.1575 
-7.12429e-05 -0.0840705 0.0405625 
1.13406e-17 8.91345e-18 1 

-0.0468579 -0.0336751 -0.119288 
-0.0555727 -0.0454502 0.129732 
1.80508e-19 -6.4467e-20 1 

-0.0480243 -0.0262083 0.00522626 
-0.0220065 -0.0662935 -0.110306 
0 -4.64579e-19 1 

-0.0559002 -0.0110067 0.0602419 
-0.00881897 -0.0448293 -0.00118735 
-1.49273e-17 -1.47638e-17 1 

-0.00482303 -0.0108045 0.136481 
-0.0329485 -0.093057 -0.110053 
-1.19964e-17 3.55448e-18 1 

-0.14695 -0.0269866 0.00879861 
0.221745 -0.0593658 0.0518184 
6.40776e-18 1.36165e-18 1 

-0.0523908 0.0488207 -0.295711 
-0.0404947 -0.0485645 0.0955524 
1.67348e-17 -7.18091e-18 1 

-0.126349 -0.0791769 0.29269 
0.109065 -0.0473385 -0.0194116 
3.23408e-18 -4.89781e-18 1 

-0.110648 0.0402228 0.0475676 
-0.0474034 -0.0435758 -0.11531 
3.18695e-18 -2.28826e-18 1 

-0.181911 0.068873 -0.0198571 
-0.0547575 -0.0577022 0.225635 
-8.59698e-18 5.12856e-18 1 

-0.0292689 -0.00360938 0.0145276 
0.0153073 -0.0232022 0.0771407 
5.70994e-18 -1.65421e-18 1 

-0.0369551 0.0229627 0.154159 
-0.011651 -0.02362 -0.0856832 
-7.26994e-19 8.53105e-19 1 

-0.0648073 0.00461175 -0.196528 
-0.0511978 -0.043647 -0.0205911 
-3.74814e-18 3.46767e-18 1 

-0.11617 -0.0142128 -0.208343 
-0.00998295 -0.0169896 -0.232253 
8.77205e-18 -8.117e-18 1 

-0.195849 0.0476798 -0.53037 
-0.0645009 0.0281956 0.0208455 
-9.47428e-18 1.13223e-17 1 

-0.208328 -0.0530819 -0.304638 
0.00451286 0.0807323 0.539912 
2.28459e-18 2.61376e-17 1 

-0.0644718 0.0175841 0.251524 
0.0550295 -0.0838946 -0.132134 
1.30112e-17 7.22847e-18 1 

-0.103911 -0.0320196 -0.0779488 
0.0487362 -0.0765413 0.0124881 
-2.26941e-18 -1.85965e-18 1 

-0.0579607 0.011925 -0.343546 
0.00605172 -0.087926 -1.22606 
4.91246e-18 -3.98178e-19 1 

-0.0563351 -0.0156052 -0.0242344 
0.0212477 -0.0398031 -0.0704701 
-8.64257e-18 -6.89659e-18 1 

-0.0510926 0.0227707 -0.00206661 
0.00678797 -0.0696803 0.240181 
6.28582e-18 4.84241e-18 1 

-0.151618 0.0258405 0.132269 
-0.00429849 0.00248053 0.854303 
-1.50519e-18 9.88769e-18 1 

-0.0930941 0.00456558 -0.0275999 
-0.0581624 -0.0282791 -0.0089908 
2.20806e-18 -1.31646e-18 1 

-0.0520456 0.016496 0.1254 
-0.0137644 -0.0244517 -0.186469 
9.285e-18 -1.13232e-19 1 

-0.0757889 0.0220609 0.0198012 
-0.0100156 0.112094 -0.381332 
-1.24821e-18 3.94034e-17 1 

-0.0612825 0.0285107 -0.0518865 
-0.0360974 -0.060508 -0.0130501 
-9.90747e-18 -8.55464e-18 1 

-0.133621 0.0124372 0.120467 
-0.0610184 -0.00221068 -0.0710665 
1.13951e-18 6.76354e-18 1 

-0.189185 -0.180887 -0.648298 
-0.0257114 0.0981359 0.244064 
-9.0561e-19 -1.2209e-17 1 

-0.0335135 0.0341886 -0.0680021 
-0.0611949 -0.0552586 0.031849 
5.31355e-18 -3.79163e-18 1 

-0.0445045 -0.0346579 1.26561 
0.00950083 -0.038787 -1.5432 
2.6435e-18 8.75472e-18 1 

-0.0871004 -0.0187689 -0.0676563 
-0.00103677 -0.0264491 0.115677 
2.94403e-18 -1.29737e-18 1 

-0.0803093 -0.00675944 -0.0967753 
0.0245271 -0.0506721 0.412411 
-4.47143e-18 -7.58443e-18 1 

-0.0543926 0.0324596 0.0184585 
-0.0464306 -0.0700489 -0.0620546 
2.9294e-18 -2.64932e-18 1 

-0.0518707 -0.0281413 0.996557 
0.011933 -0.0829822 0.117956 
-8.76624e-18 9.04392e-18 1 

-0.0743349 0.00878052 0.21314 
0.0244769 -0.0576333 0.0442966 
-1.45357e-18 5.60663e-18 1 

-0.210585 0.0366888 0.0413028 
0.00118901 -0.0273748 0.0405212 
-3.96087e-18 1.05623e-17 1 

-0.0424581 0.0285282 -0.182088 
-0.0536839 -0.0535569 -0.654027 
7.18604e-19 -5.41891e-18 1 

-0.0761204 -0.00066392 0.0180707 
0.00632252 -0.0909942 0.0325979 
5.05607e-18 5.81244e-18 1 

-0.0831189 0.0336653 0.276488 
0.0250038 -0.0890866 -0.354231 
-1.03972e-17 7.10984e-18 1 

-0.0747568 0.0526852 -0.0799756 
0.0208636 -0.0678206 -0.107816 
-1.05559e-18 -1.85957e-18 1 

-0.0484208 0.0153274 1.55206 
0.0317885 -0.0550332 -3.57896 
5.01154e-18 1.83565e-18 1 

-0.041004 0.0183715 0.0160911 
0.00380338 -0.122667 0.0455265 
6.76325e-18 4.39611e-18 1 

-0.0834184 -0.0246646 0.769421 
0.0335857 -0.0234259 0.0655467 
-9.42887e-18 5.69082e-18 1 

-0.0756006 0.00661747 -0.0308482 
-0.0251264 -0.00114786 0.0396824 
5.87919e-18 3.46466e-18 1 

-0.0410102 -0.0199513 -0.202134 
0.00474541 -0.0286969 0.136042 
-3.06372e-18 -3.67647e-18 1 

-0.0296119 -0.0165369 0.196681 
0.0215289 -0.0647824 -0.0170009 
6.97887e-18 -1.59965e-17 1 

-0.0472086 0.0115185 -0.0476056 
0.056541 -0.063921 -0.0753574 
-2.79858e-18 -1.17032e-17 1 

-0.0945619 0.0703249 0.0504019 
0.00433542 -0.0249015 0.0866913 
-1.19174e-17 8.11043e-18 1 

-0.0578906 0.0252878 -0.14838 
-0.033365 -0.0163965 -0.209506 
-2.13219e-17 5.60859e-18 1 

-0.145704 -0.004739 -0.0404126 
0.0547292 -0.0782559 0.0101662 
-2.85027e-18 1.06494e-17 1 

-0.143053 0.0621638 0.17005 
-0.0862537 -0.0510875 0.00259911 
2.17745e-18 2.01973e-18 1 

-0.0581032 0.0318444 0.0381251 
-0.0293267 0.00388277 -0.0133277 
-3.87273e-18 9.668e-18 1 

-0.0808013 -0.0510848 -0.137157 
0.0245087 -0.0173175 -0.204771 
-5.47476e-18 1.68966e-18 1 

-0.0434272 0.0031772 -0.000219334 
-0.0036926 -0.0774657 -0.17661 
3.71382e-18 4.24647e-18 1 

-0.059814 0.0145278 -0.307762 
-0.020561 -0.12409 0.345894 
-6.89489e-18 5.33608e-18 1 

-0.0656899 -0.0498404 -0.0843789 
-0.00145116 -0.0335461 -0.000952729 
-6.74512e-18 -7.05018e-18 1 

-0.116527 0.0221102 0.186338 
-0.0717167 -0.0219757 0.641258 
1.20777e-17 3.93107e-18 1 

-0.0483135 -0.0151698 0.00991354 
-0.00926283 -0.0337801 -0.119445 
-1.95506e-18 -5.61016e-18 1 

-0.0491902 -0.00952817 -1.95938 
-0.00299641 -0.0638856 1.91004 
-6.59358e-19 -5.68147e-18 1 

-0.0809827 -0.00190063 0.188028 
-0.00888402 0.00635213 -0.0723746 
-6.57005e-18 -4.21402e-18 1 

-0.120141 0.0753681 -0.2218 
-0.0136203 0.0441654 0.0664621 
-6.50531e-18 1.4908e-18 1 

-0.047844 0.0209044 -0.029446 
0.0181006 -0.025742 0.890449 
-8.98832e-19 1.26894e-18 1 

-0.139141 0.207566 -0.0170688 
0.045056 -0.0950127 -0.13972 
3.27965e-18 -1.438e-17 1 

-0.0896037 0.0198065 0.131997 
-0.108786 0.0167087 -0.134615 
-1.63549e-18 2.18066e-18 1 

-0.0705647 0.0347705 -0.217547 
-0.0301617 0.0374546 -0.0917321 
1.27151e-17 -6.2883e-18 1 

-0.215715 0.119996 0.0767326 
-0.0207662 0.061416 0.625255 
1.03353e-17 1.37351e-18 1 

-0.0798811 -0.0405584 0.00324305 
0.0519742 -0.0725304 -0.0939325 
-4.53178e-18 6.12403e-20 1 

-0.0687688 -0.0153986 -0.0272244 
0.023101 -0.0537216 0.123885 
8.44664e-18 3.40296e-18 1 

-0.0385719 -0.0269315 -0.00665955 
-0.0608849 -0.0573326 -0.0770471 
-6.36339e-18 4.38854e-18 1 

-0.0796546 -0.0137826 0.117542 
0.00714013 -0.0437287 -0.20675 
-4.86334e-18 -6.33971e-18 1 

-0.0515974 -0.0172419 -0.0780032 
0.0481554 -0.041196 -0.0151709 
4.1672e-18 9.05914e-20 1 

-0.0428049 -0.0298642 0.0365293 
0.0169512 -0.0442507 -0.129007 
1.29405e-17 -1.08973e-18 1 

-0.0301045 -0.0322575 -0.795617 
0.0264452 -0.0407075 -0.696312 
1.08804e-17 -8.54887e-19 1 

-0.0295593 -0.00674609 -0.0686824 
0.0128491 -0.0419582 -0.0448861 
4.29166e-18 -1.74693e-17 1 

-0.108825 -0.0291025 -0.0556991 
-0.0057691 0.0218055 0.0427937 
-1.31693e-17 6.45925e-18 1 

-0.158891 0.0097798 0.21776 
0.0377218 -0.0686088 0.0371353 
-9.83203e-18 -1.24361e-17 1 

-0.0456205 0.01957 -0.142508 
0.0290633 -0.0961416 0.200604 
-1.03318e-18 8.97787e-18 1 

-0.0549701 -0.0077517 0.0249225 
0.0160186 -0.0535304 -0.0157542 
2.10659e-18 -3.67457e-18 1 

-0.0429717 0.0220064 0.0473213 
-0.0180517 -0.0516211 0.0145242 
-5.19939e-18 -8.97413e-20 1 

-0.0538128 -0.0292975 0.0957569 
0.0164979 -0.0440713 2.08399 
-4.73604e-18 -5.63155e-19 1 

-0.124767 0.011885 0.0897252 
0.0389542 -0.00267668 -0.144847 
-9.16409e-18 -4.57498e-18 1 

-0.0566887 -0.037082 -0.0200946 
0.0185499 -0.070625 0.0115422 
7.92007e-18 3.21904e-18 1 

-0.0498198 0.000158837 0.358724 
0.0179963 -0.0359041 0.0558383 
3.19981e-18 -2.31777e-19 1 

-0.0536958 -0.00819206 0.084593 
-0.0116372 -0.073122 0.120677 
-3.10077e-18 -2.27812e-18 1 

-0.0999146 -0.0500164 -0.741676 
0.0283631 0.0217188 -0.156567 
-5.81e-18 -4.60516e-18 1 

-0.181455 0.0110587 1.02871 
0.0930055 0.0853383 -0.636909 
-5.57096e-18 -9.45271e-18 1 

-0.0656823 -0.0259668 -0.806354 
-0.00287288 -0.0326437 -2.10095 
-3.29328e-18 2.50427e-18 1 

-0.142888 -0.018584 -0.0986815 
0.0484461 0.136368 -1.38971 
-4.74514e-18 -9.44138e-18 1 

-0.137903 0.0636218 -0.173811 
0.0183812 -0.096991 0.16347 
-6.08278e-18 1.10069e-17 1 

-0.108018 -0.0356327 -1.35242 
-0.00313202 -0.0255184 -3.77207 
-6.76782e-19 -6.23725e-18 1 

-0.0651878 -0.00541326 -0.0340052 
-0.0236273 -0.0965829 0.0910963 
-1.30701e-17 4.22352e-18 1 

-0.0521794 -0.0609056 0.207259 
0.0375186 -0.0478849 -0.0708228 
2.30252e-17 2.80985e-18 1 

-0.0724239 -0.0478949 -7.41672 
0.00659334 -0.0119652 -2.9869 
2.31738e-18 -9.93032e-18 1 

-0.11428 0.0317302 -0.51366 
0.03721 -0.0273669 -0.554622 
7.25337e-18 -5.32669e-18 1 

-0.243039 0.0611506 -0.0303931 
0.0297797 -0.0930497 0.185951 
-1.49981e-17 -1.86113e-17 1 

-0.0261192 0.0224137 -0.0249065 
0.00860472 -0.089506 -0.0292341 
1.78027e-18 -1.67854e-17 1 

-0.0595835 -0.0112243 -0.0190492 
0.0252832 -0.041393 -0.0584433 
-9.40469e-18 -4.32399e-19 1 

-0.0335323 -0.0678239 -0.0399553 
0.00621842 -0.11692 0.00983779 
-3.51685e-18 -2.01486e-18 1 

-0.0528858 0.0180324 -0.0185306 
-0.0369201 -0.1051 -0.0471003 
-3.56427e-18 6.98876e-20 1 

-0.0318853 0.0145004 -0.0204558 
0.000224696 -0.0626555 -0.0962962 
-3.43244e-19 1.01066e-18 1 

-0.0409098 -0.0022817 -0.205492 
0.0133683 -0.0400488 -0.20621 
-4.25009e-18 -3.60694e-18 1 

-0.0758444 0.01608 0.0735145 
0.0499074 -0.0731652 -0.0715619 
6.12444e-18 -3.82042e-18 1 

-0.0938366 -0.006297 -0.322296 
-0.012284 -0.0208559 0.401222 
9.37586e-19 6.20747e-18 1 

-0.0873086 0.0384014 -0.0417728 
-0.0440363 -0.0276675 0.048151 
-1.65594e-18 -4.07926e-18 1 

-0.0966025 0.00706976 0.222082 
-0.0237674 -0.056361 0.295752 
1.85001e-17 -3.69605e-18 1 

-0.181886 0.0304039 0.676971 
0.0677817 -0.0115085 -0.358273 
5.79574e-18 -3.47456e-18 1 

-0.0680566 -0.0033804 0.0480869 
-0.00908482 -0.0598906 -0.132898 
-1.41134e-17 -6.61508e-18 1 

-0.0497626 -0.0188344 -0.110745 
-0.0371583 -0.0197711 -0.36785 
2.43589e-17 -1.56157e-17 1 

-0.078872 0.0569024 -0.0189899 
-0.0358053 -0.0827466 -0.0501598 
-1.1736e-17 4.55765e-18 1 

-0.0341711 0.0320944 -0.309475 
-0.0850514 -0.0590996 0.35027 
-4.93569e-18 -6.91175e-18 1 

-0.0770456 -0.00655301 0.0633985 
-0.010854 -0.130218 0.026594 
9.57474e-18 -1.23608e-17 1 

-0.0427675 -0.00708454 -0.0393081 
-0.0370852 -0.0645225 0.0196894 
6.22854e-18 -5.2762e-18 1 

-0.0504723 -0.0041867 1.03389 
0.00725128 -0.0756321 0.423118 
-2.01552e-18 4.57674e-18 1 

-0.145217 -0.044791 0.127293 
0.128697 0.0186951 -0.356775 
-4.70556e-18 1.37549e-17 1 

-0.0705189 0.0120442 0.0534044 
-0.0742873 -0.0597376 0.108801 
3.43173e-18 -3.23374e-18 1 

-0.0675956 -0.00364827 -0.315202 
-0.0160443 -0.072722 0.00219089 
-1.35382e-18 -7.84824e-19 1 

-0.122582 -0.0412867 -0.111022 
0.0266841 -0.0091158 -0.0132819 
7.46822e-18 -7.84948e-20 1 

-0.0855448 0.0245987 -0.133126 
-0.0435162 -0.0437618 -0.461567 
1.93393e-18 -4.53901e-18 1 

-0.129184 0.0434303 0.210717 
0.0169672 -0.0232703 -0.142513 
2.81244e-18 1.05969e-17 1 

-0.0831607 -0.00646227 0.0651545 
0.0393382 -0.030417 -0.0616834 
5.5319e-18 3.10411e-18 1 

-0.0631937 -0.0778844 -0.101578 
0.0287012 -0.0671353 -0.0431118 
-4.7853e-18 3.94502e-18 1 

-0.12962 -0.0281926 0.179234 
0.0173851 -0.0845326 0.0492937 
2.64037e-18 -1.04168e-17 1 

-0.118009 -0.0462076 -0.228934 
-0.0151373 0.00548184 0.242322 
-1.77732e-18 -1.96775e-18 1 

-0.125555 0.0641744 -0.243416 
-0.0534405 -0.0803118 0.220135 
-7.64494e-18 -5.62128e-18 1 

-0.0695541 0.00161602 0.255854 
-0.023945 0.0241983 -0.311436 
5.79259e-18 -6.95586e-18 1 

-0.0569614 0.0131327 -0.37461 
0.00527312 -0.082627 -0.317357 
-1.20782e-17 5.18148e-18 1 

-0.0350181 0.0184096 -0.0678956 
-0.0195214 0.105998 0.172093 
-4.41096e-18 -8.71974e-18 1 

-0.0628845 -0.035103 -0.0341113 
-0.0370553 -0.0774145 0.265664 
1.58155e-17 5.03112e-18 1 

-0.119074 0.0367806 0.00442315 
0.0240694 0.026327 0.237625 
0 -7.76999e-18 1 

-0.128951 -0.0255524 -0.158289 
-0.0519182 0.0147305 0.0388746 
7.64701e-18 2.43019e-18 1 

-0.0644003 -0.00575347 -0.0294663 
-0.0395054 -0.017815 0.0923909 
3.43332e-18 -7.74698e-18 1 

-0.198312 0.0134457 -0.11799 
-0.00389825 -0.0135888 0.0746473 
-9.93501e-18 6.68595e-18 1 

-0.0741858 -0.0498247 0.275057 
-0.00158607 -0.0304119 -0.347428 
-9.17424e-19 1.14678e-17 1 

-0.0573435 -0.0336597 0.00772043 
0.0096952 -0.0997046 -0.0480914 
7.02125e-18 4.46015e-18 1 

-0.0459009 0.00825995 -0.0412252 
-0.0514708 -0.0262677 -0.198152 
6.70051e-18 -1.62437e-18 1 

-0.0736085 -0.0248308 -0.152905 
0.0288875 -0.0289528 -0.209276 
1.36907e-17 1.06019e-17 1 

-0.0385723 0.0157969 0.14281 
-0.00258287 -0.02895 -0.124042 
4.41485e-18 -8.29858e-20 1 

-0.179757 0.0223042 0.015281 
-0.0174495 -0.0213555 0.0624517 
5.37346e-18 1.73673e-17 1 

-0.0632246 -0.02964 -0.0803174 
-0.0247744 -0.0197299 0.0414504 
1.50049e-18 2.57228e-18 1 

-0.0382731 -0.00535903 0.0504705 
-0.0309424 -0.0521064 0.0973829 
3.27792e-18 -1.21628e-18 1 

-0.0893225 -0.0118656 0.00628097 
0.0205211 -0.0538358 -0.49819 
-4.39382e-18 8.46649e-19 1 

-0.0458518 0.0922122 0.0413214 
0.0505198 -0.112973 -0.489198 
2.87904e-18 -1.68544e-17 1 

-0.0357571 -0.00085371 0.380313 
-0.0279016 -0.0429466 -0.963015 
4.16316e-18 7.64814e-18 1 
