# vtk DataFile Version 3.0
Output file generated by Yade's KinematicLocalisationAnalyser
ASCII
DATASET UNSTRUCTURED_GRID

POINTS 13483 float
544.96 39.1961 -0.493055
652.187 70.2563 0.502067
114.205 6.15141 -0.435199
677.525 6.68934 0.588401
468.024 8.62692 0.391749
302.651 37.1563 -0.470806
149.005 6.95681 0.46326
525.471 12.1913 -0.20345
466.707 27.1801 -0.155798
614.645 13.6778 0.463196
201.721 8.86789 -0.126073
247.672 6.47712 0.31973
576.1 67.2506 0.131643
568.834 18.1372 -0.125047
131.081 17.9279 0.580542
212.531 34.5429 -0.408017
209.106 12.9778 -0.303458
278.135 9.98982 0.412461
327.97 34.3515 0.529661
489.726 7.79039 0.555722
392.818 42.0177 -0.109063
542.05 68.1028 -0.253396
666.993 54.3175 -0.472155
615.755 75.8678 -0.522052
434.622 21.0628 -0.426769
231.243 45.4305 0.131811
464.432 33.994 0.493049
534.591 28.7672 -0.263779
41.9781 16.5868 -0.440928
638.893 73.548 0.322844
453.369 6.21415 0.345596
16.016 25.8669 -0.286511
662.11 77.2825 0.302701
464.457 2.1582 0.652445
73.9757 45.5026 0.112825
487.238 36.4744 -0.403027
493.092 19.3813 -0.50626
330.099 23.6329 0.201073
495.436 31.7606 0.360739
336.639 35.7339 0.583352
232.051 14.4077 0.342204
414.265 41.4754 -0.0723248
587.095 32.1314 0.121401
184.168 6.28864 0.356103
51.6683 7.15763 -0.112144
64.5934 8.8991 -0.267959
594.007 18.7767 0.663355
21.5332 12.2778 0.287708
548.962 63.0978 0.418846
593.78 55.2482 0.320108
164.416 33.1131 -0.313856
654.28 57.4451 -0.16083
32.0135 30.1341 0.108205
499.291 4.47942 0.529315
135.564 7.4879 -0.568852
539.14 53.2797 0.383736
472.044 32.3564 0.145073
167.322 0.955784 -0.288624
30.2675 2.37961 0.34548
335.427 18.3332 0.295055
553.284 70.5973 -0.134986
438.67 38.7817 0.181931
383.343 1.02318 0.2015
602.28 13.9004 0.42904
25.0404 46.4486 0.23578
246.962 32.9291 -0.388981
614.098 8.14744 -0.334974
594.653 81.3372 -0.352978
400.888 9.96592 -0.626342
523.086 3.90686 -0.375472
632.883 47.2621 0.383258
124.894 7.81594 0.271795
469.505 29.5749 -0.177083
450.072 16.8829 -0.196766
284.185 17.1422 -0.334318
19.0397 14.4002 -0.338321
673.821 76.6344 0.304305
320.907 41.3316 -0.324192
590.072 49.2091 0.332876
598.131 30.017 -0.293059
667.792 13.0061 -0.26517
440.928 40.033 -0.181971
88.045 40.179 -0.319582
604.808 63.6067 -0.229614
566.999 74.2432 0.111439
673.541 59.2044 0.118891
661.922 0.743728 -0.582804
280.513 28.959 0.470465
564.097 6.02037 -0.220604
22.9131 6.10082 0.64859
127.368 40.354 -0.142107
481.11 15.6863 0.204972
661.307 44.4494 -0.553307
187.594 29.4972 0.305676
42.0263 35.7707 0.301271
463.286 1.147 0.115028
227.556 8.83984 -0.398493
634.4 57.0367 0.302519
654.679 43.5131 -0.300575
347.341 22.1488 -0.248008
156.11 27.8099 -0.457492
509.1 45.0009 -0.623621
366.446 16.7839 -0.340768
395.316 33.7113 -0.100115
363.907 5.84999 0.403634
509.267 14.9052 0.274951
675.637 23.7556 0.198405
76.2475 40.3586 0.414543
323.679 4.97523 -0.229942
519.834 11.2832 -0.539549
347.289 46.6098 0.489875
22.9662 27.1104 -0.471229
28.5912 6.10217 0.289555
525.622 54.8121 -0.494097
474.075 28.4799 0.146318
25.0201 40.636 0.41778
88.4854 31.5288 -0.251829
314.389 16.9065 -0.282985
547.17 23.2122 -0.104804
451.963 45.3393 -0.194682
630.415 10.4559 -0.397544
623.812 5.64519 -0.179429
372.539 38.6972 -0.130651
570.714 36.7084 -0.0935028
230.853 16.2394 0.541143
319.19 3.90476 0.472631
98.9761 32.4589 -0.408126
111.322 25.9696 0.250317
507.904 48.1521 -0.0775575
296.554 18.9774 0.461655
634.228 75.784 0.102356
597.256 79.2164 -0.116654
456.715 22.9173 -0.396371
655.466 21.5518 0.352233
410.312 28.1576 0.232411
268.639 25.7693 -0.297718
593.782 65.3224 -0.334595
270.844 29.8473 -0.411637
529.252 19.6665 0.209333
322.025 38.0108 0.199834
475.508 12.6452 0.570374
354.467 33.9312 -0.114085
413.635 19.995 -0.103676
308.39 44.4171 0.439505
183.946 31.0586 -0.128154
656.19 72.0831 0.149125
674.056 26.3435 -0.436435
5.98186 12.8419 0.44483
415.098 25.4071 -0.442329
35.6173 24.122 0.075456
363.914 32.7355 -0.437225
382.772 27.1736 -0.261521
71.1582 12.0201 -0.484358
49.0816 34.2645 0.490435
219.506 13.7563 0.426618
556.446 44.8609 0.460243
531.959 30.9751 -0.501261
71.2755 21.4635 -0.488683
615.834 80.7165 -0.405005
646.004 2.45124 0.658686
584.937 82.1567 -0.478665
600.651 4.35182 -0.667163
517.224 37.9879 0.438293
543.616 67.1234 -0.320597
485 18.6355 -0.416256
676.739 4.77166 0.529221
217.424 24.8051 0.119861
122.893 37.186 0.194002
240.506 6.71819 0.446488
90.4818 4.817 0.260402
60.9424 10.1452 0.244936
268.434 37.2444 -0.351078
17.212 27.4725 0.348661
519.082 25.2175 -0.408747
550.697 50.4138 0.246174
442.686 25.2751 -0.423181
675.706 91.1392 0.367748
394.617 8.675 -0.108635
417.887 44.2098 0.532594
505.023 4.39085 -0.167615
21.4658 24.6326 0.41121
533.06 3.68635 0.571068
511.989 6.26967 0.373203
199.969 11.3779 0.478053
409.625 19.9792 -0.282966
303.738 6.45462 0.35092
376.714 18.7998 -0.361302
621.307 58.2285 -0.111919
185.498 27.0729 0.476443
655.267 6.32878 -0.5439
621.154 53.3406 0.377958
371.752 10.6178 0.171235
613.505 1.79934 -0.678098
550.815 31.2896 -0.488028
630.309 24.7526 -0.369456
413.675 51.798 -0.300348
470.995 13.7585 0.495714
444.711 50.5817 -0.277373
428.992 9.46863 -0.278727
588.383 80.1794 0.256095
585.305 78.0736 0.330903
186.313 39.9379 0.347597
665.833 12.0587 -0.188482
546.058 65.4374 0.25073
10.9501 18.6566 0.283998
394.495 27.5075 0.360968
181.922 24.0053 -0.413641
89.6857 40.9909 0.233596
660.603 40.9154 -0.510807
579.979 85.4745 -0.228513
310.721 27.4521 0.340171
501.976 12.1818 0.451584
78.9 45.6653 0.18779
242.227 27.5243 -0.505189
519.354 37.1119 0.386492
463.382 21.5952 -0.402639
256.386 0.923759 -0.363624
513.992 53.4156 -0.409797
502.152 48.7057 -0.522607
461.574 42.6094 -0.455526
473.71 2.26279 -0.668121
606.185 28.7342 -0.473336
173.711 12.645 -0.205563
475.169 43.019 0.408408
522.385 61.1251 0.153089
69.8847 0.961959 0.283901
245.564 4.82773 0.225506
672.345 27.2868 -0.241103
666.951 14.807 -0.553184
677.568 29.4912 -0.597224
296.411 8.61877 -0.232597
632.473 38.8593 -0.392095
393.163 47.5538 -0.342645
431.749 0.779107 -0.477064
573.851 74.9171 -0.45379
25.8625 34.387 -0.34361
322.866 44.3176 -0.615732
246.351 2.98254 0.40717
667.023 78.8756 0.0526807
635.625 88.4879 -0.216384
280.522 11.484 0.2592
588.993 63.8482 0.0831855
519.989 2.56411 0.359264
510.015 9.49692 0.55571
93.5445 19.1178 -0.522337
296.222 1.04671 -0.232888
334.639 2.27334 -0.364168
13.1424 7.8877 0.541257
4.43396 31.7641 0.300973
156.367 19.1628 0.372094
65.3721 43.2301 -0.21142
63.2432 30.3097 -0.306288
409.214 18.1029 -0.533822
357.48 37.5254 -0.514009
652.045 57.854 0.121033
18.7425 4.19645 -0.283472
67.587 6.94097 0.135413
561.634 54.2536 0.182842
287.725 0.946818 0.40038
354.656 16.9708 -0.1119
229.887 4.55802 -0.40528
572.007 48.991 -0.174498
435.425 8.04627 0.612739
630.942 35.486 -0.374239
570.839 56.0157 -0.317745
589.498 46.6646 0.100952
405.655 31.8078 0.512596
98.2945 46.7538 0.328924
506.883 55.745 -0.104891
632.158 18.5365 0.338379
232.62 31.6566 -0.270744
29.8326 18.6784 -0.171673
328.107 13.9232 0.521115
103.749 42.4661 0.472183
261.671 43.858 -0.254897
412.482 2.50435 -0.263968
668.378 62.2035 -0.502325
596.789 1.43111 -0.580164
324.163 3.4614 0.59214
293.796 27.8455 -0.150256
444.421 47.1701 0.253664
78.7361 8.21798 0.445018
192.702 45.9517 0.377653
654.851 50.8073 0.375459
475.734 50.2407 -0.0709445
194.983 41.8701 -0.27986
155.865 43.7376 0.402053
676.213 54.8587 -0.504062
674.1 24.4863 -0.641355
555.567 4.5552 -0.633607
185.385 25.3421 -0.113777
518.957 40.5092 0.104019
520.774 41.4528 0.305686
399.415 6.16505 -0.102861
458.229 1.13883 0.365993
649.22 58.919 -0.536005
81.9315 31.9469 -0.224868
577.212 48.8561 -0.50384
267.925 15.5024 -0.427144
8.81954 2.41881 -0.31313
121.59 38.8359 -0.233712
64.7416 23.1137 -0.48823
626.818 75.263 0.33994
663.354 86.6773 -0.201732
180.322 29.4273 0.171038
671.721 21.5898 -0.63766
43.5911 37.7621 -0.27988
87.4773 29.8564 0.15793
577.991 17.9059 0.44365
401.546 19.6603 -0.53045
491.253 19.2358 -0.162935
233.292 29.7912 0.197018
569.88 5.5219 0.717047
678.245 24.7285 0.439341
28.6502 35.0569 -0.289375
263.994 7.63561 0.197721
217.181 15.35 0.270722
1.05908 36.2792 0.151971
220.463 14.8137 -0.397383
206.587 10.9567 0.142528
209.16 26.4204 -0.269107
129.175 29.9042 0.124093
514.576 19.9736 0.415383
162.168 14.4854 -0.351156
662.117 75.4288 -0.318164
169.258 3.77621 0.538712
45.6419 39.6938 -0.357187
640.832 69.5832 -0.426295
275.484 33.2457 -0.415088
596.76 52.8217 0.439146
661.004 51.0935 -0.538577
294.487 9.2644 -0.102635
622.194 45.5055 0.436267
321.174 2.49443 -0.446664
402.788 26.5584 0.354495
592.359 42.2486 -0.462919
102.49 12.7211 0.544943
460.568 3.90399 -0.52571
633.883 32.5858 -0.239456
85.7642 7.74489 0.192528
275.541 14.9827 0.212341
410.621 15.0416 0.2945
675.862 3.2926 0.540352
388.274 1.96926 -0.543789
171.575 39.6896 -0.297254
635.584 15.4089 -0.491939
124.751 38.4152 0.178222
257.615 32.6343 -0.374823
389.659 23.6774 0.209643
531.929 21.1435 -0.365864
377.378 9.84957 -0.533151
440.808 32.2778 -0.471061
653.237 70.6039 -0.488323
45.2246 12.2114 -0.142446
292.378 39.0861 -0.274062
370.042 29.0769 0.383512
397.062 22.3159 -0.303186
495.909 55.0172 0.356694
642.742 54.858 0.266955
588.859 72.6094 -0.351257
220.78 34.6937 -0.357277
13.032 34.2828 0.177497
583.629 79.1345 -0.134196
483.835 48.6266 -0.603992
224.293 39.8932 0.142737
609.508 62.262 -0.132313
146.312 9.41255 0.241716
356.55 22.1068 0.310942
445.798 48.6665 -0.112223
401.188 21.487 -0.214
648.584 70.7744 0.316934
412.978 4.21205 0.535902
47.4202 26.5636 -0.311114
452.914 38.4841 -0.402245
419.179 50.5132 0.372854
668.696 72.3405 0.235102
621.841 40.3269 -0.258601
509.662 24.9131 -0.168506
661.375 67.1148 -0.464084
287.351 2.25108 -0.473197
368.483 31.2427 0.529081
28.2154 42.3069 -0.294284
624.885 45.7084 -0.343003
557.807 23.7584 -0.64281
443.496 1.06766 0.69164
122.034 4.73061 -0.361184
411.697 46.5041 0.104559
11.1528 0.863336 0.328009
675.592 8.52491 0.186879
361.481 43.6313 0.428878
560.758 6.9815 0.531808
[...]
POINT_DATA 13483
TENSORS Strain_matrix float
-0.597324 -0.311441 -8.75448 
-0.568123 0.342527 4.67045 
-5.4606e-19 -3.7394e-18 1 

-0.983895 0.97377 6.03712 
0.553683 0.590187 2.45481 
-1.29839e-18 -8.67563e-18 1 

-0.175122 -0.127139 0.203339 
0.0843754 -0.0239219 0.500073 
1.86557e-18 -6.14082e-18 1 

-2.14348 -0.447518 -1.4138 
0.687627 0.748823 -0.575627 
1.66356e-17 1.60717e-18 1 

-0.626651 0.00163352 0.408045 
-0.0859442 0.174379 -0.274999 
-3.63008e-18 3.94574e-18 1 

-0.178427 -0.054552 -0.965791 
0.00940145 0.00268417 -1.1251 
5.29586e-18 2.02812e-17 1 

-0.128281 -0.0321339 0.589383 
-0.0314505 -0.0899884 -0.245894 
-5.66103e-18 2.57233e-18 1 

-0.474579 -0.228396 0.927414 
0.294982 0.0692848 0.203013 
5.01748e-19 -2.54167e-17 1 

-0.444763 0.36156 -0.0421476 
-0.300391 0.308208 -1.44778 
-4.99809e-18 -8.50739e-18 1 

-0.654211 0.0468369 0.00171152 
-0.406401 0.0992657 -0.0634621 
-4.81976e-18 8.23891e-20 1 

-0.0821354 0.00976277 0.0116587 
-0.0189689 -0.0763162 -0.00695028 
-5.89427e-19 -6.84929e-18 1 

-0.216167 4.24385e-05 -0.447985 
-0.0766766 -0.0224963 -0.247593 
4.9924e-19 7.07256e-19 1 

-0.225087 -1.19037 -0.360868 
0.27756 0.444261 0.348807 
5.34588e-18 -1.11956e-17 1 

-0.437516 -0.262161 -0.241515 
0.446308 0.205532 0.339204 
-8.75254e-18 -2.81967e-18 1 

-0.189138 0.00615632 -3.55394 
0.00271276 0.0155003 3.05561 
2.40571e-19 1.04556e-18 1 

-0.117436 -0.0951989 -0.40911 
-0.0186554 -0.0383205 0.234332 
7.18155e-18 -2.07932e-17 1 

-0.0835971 -0.0276153 0.0856747 
0.025675 -0.0878194 -0.00130069 
-2.50955e-18 3.4009e-18 1 

-0.224872 -0.0476332 0.00593015 
0.08326 -0.055891 -0.0315042 
-1.52945e-17 -6.55235e-18 1 

-0.356587 -0.0367294 -2.37195 
0.0270169 0.10571 -1.93685 
-7.86081e-18 -4.53834e-18 1 

-0.278934 0.111766 0.744707 
-0.162751 -0.0298386 0.253519 
-3.89323e-18 -2.33351e-17 1 

-0.199021 -0.301688 0.246536 
0.273747 0.0772115 0.020103 
-1.19195e-17 -5.23437e-18 1 

-1.59 -0.671322 -7.11842 
-0.519373 0.330399 -0.0907453 
-1.91455e-18 -5.19665e-18 1 

-1.19826 0.358942 -7.39643 
0.0274631 0.579325 2.84071 
0 -1.39167e-17 1 

-1.01671 0.438124 121.57 
0.0240407 0.575882 -1.58854 
-3.64756e-18 -4.36156e-18 1 

-0.418795 -0.164606 1.89199 
0.157106 0.181204 0.650523 
-4.42152e-18 -1.31861e-17 1 

-0.202731 -0.0321947 0.0252535 
0.00645542 0.0530096 -0.0411097 
-5.81892e-18 -2.37674e-18 1 

-0.53643 0.24727 -2.63594 
-0.139065 0.453103 -0.7914 
1.68875e-17 4.43991e-18 1 

-1.11739 -0.071406 -1.26067 
-0.213756 0.375896 -0.221064 
-1.34546e-17 -1.31873e-17 1 

-0.149107 0.0226804 0.191408 
0.024961 -0.0874062 0.879267 
-2.64249e-18 -5.8722e-19 1 

-0.269262 -0.112124 -1.64415 
0.170777 0.0527007 -0.768023 
2.85109e-18 6.34753e-18 1 

-0.151753 -0.122718 -0.206151 
-0.137772 -0.343612 0.36587 
-2.53653e-17 -9.99616e-19 1 

-0.254711 0.0701485 0.853224 
0.0513407 0.178763 0.246769 
3.06591e-18 9.34015e-18 1 

0.298258 -1.04765 0.132383 
0.684302 0.361318 0.55895 
-3.80739e-19 8.12242e-19 1 

-0.35493 0.169667 1.14349 
-0.0522722 0.138931 -2.22786 
-1.32102e-17 7.56995e-18 1 

-0.11069 -0.0101538 -0.125615 
-0.0484039 -0.0882152 -0.326523 
-5.04019e-18 -3.96781e-18 1 

-0.503659 -0.219863 -1.55361 
0.0967233 0.18922 -2.10326 
-3.11384e-18 -1.51895e-18 1 

-0.598022 -0.192031 -2.08413 
0.0683461 0.328399 0.281084 
1.50361e-19 3.77378e-19 1 

-0.570436 0.0678267 -0.799612 
-0.383635 0.28215 0.123472 
-7.99401e-18 7.90805e-18 1 

-0.29775 0.852819 -5.94543 
-0.0261667 0.310244 0.799813 
5.06686e-18 2.65602e-18 1 

-0.180833 -0.0502516 1.56118 
-0.00766701 0.028968 1.3243 
-4.30624e-18 -8.53037e-19 1 

-0.14465 -0.00754397 0.2533 
0.00973361 -0.104998 -0.465974 
-5.17878e-18 -1.31698e-17 1 

-0.233838 -0.0502728 0.397278 
0.293033 0.213969 0.465864 
1.71047e-18 1.4767e-17 1 

-0.795863 0.282282 -0.172805 
-0.680897 0.580481 0.159291 
7.62316e-18 3.53538e-18 1 

-0.144105 0.00806818 0.235517 
-0.0565182 -0.0644082 0.991722 
-9.31866e-18 1.78347e-19 1 

-0.114898 0.0303494 0.00763658 
-0.0552073 -0.0679268 0.143233 
-2.15059e-18 -1.96619e-18 1 

-0.096205 0.00345408 -0.00282926 
-0.0230011 -0.050328 -0.03432 
-9.4113e-18 -2.8549e-18 1 

-2.06546 0.543086 49.8871 
-1.11509 0.953642 -12.6793 
2.40212e-18 5.55263e-18 1 

-0.0681163 0.00911778 0.0318931 
-0.0242864 -0.12883 0.00279586 
8.22453e-18 1.62578e-18 1 

-1.77225 -1.11628 -31.3226 
0.0251187 0.655536 12.7993 
-8.7481e-18 7.11899e-18 1 

-1.14114 0.00208102 -0.576051 
-0.282103 0.556581 -4.69234 
-8.44628e-20 -1.29439e-17 1 

-0.122548 -0.0707345 0.0903524 
0.0108466 -0.0098293 -0.277265 
-6.2988e-18 8.57196e-18 1 

0.0303616 -0.471878 -0.375408 
0.635768 0.145562 -0.672187 
6.97879e-18 -1.18732e-17 1 

-0.187869 0.351585 -0.503821 
-0.245502 0.220514 -0.44852 
-4.44522e-18 2.50043e-18 1 

-0.413581 0.0143335 0.424064 
-0.00883593 0.0558949 -3.14577 
-9.62955e-18 3.27405e-18 1 

-0.2868 -0.0391398 -0.223318 
0.0794619 -0.121367 1.41061 
6.43925e-18 -1.09882e-17 1 

-1.63255 0.430333 6.12741 
-0.811162 0.798508 -1.06294 
2.02689e-18 7.76498e-18 1 

-0.651556 0.091913 0.19931 
0.00946806 0.388227 0.3199 
1.73159e-18 6.08912e-19 1 

-0.127481 0.130276 -0.216875 
-0.00592001 -0.0585792 -0.0417364 
7.11262e-18 2.41242e-17 1 

-0.0983418 -0.0818637 0.52699 
-0.0554679 -0.104271 0.279077 
-2.24717e-18 2.0951e-17 1 

-0.12873 -0.136177 -0.182778 
0.050712 -0.0069205 0.00485341 
2.03381e-18 -7.95173e-19 1 

-4.1744 1.07542 6.35875 
-0.23203 0.782178 -0.384258 
-1.26483e-17 4.58894e-19 1 

-0.200947 -0.363782 0.142308 
0.186102 0.126588 0.876132 
-1.31848e-17 3.38736e-18 1 

-0.119382 -0.0905592 -0.246735 
-0.0174286 -0.0581858 -0.139238 
4.17078e-18 1.97147e-17 1 

-0.751588 0.124941 0.701617 
-0.151841 0.2326 -0.369561 
9.59475e-18 -4.46461e-18 1 

-0.051468 -0.0563278 -0.155237 
0.00617548 -0.00967375 0.0534351 
-3.03715e-18 -5.06192e-19 1 

-0.293725 0.0445073 0.579949 
0.0133225 0.025756 1.42934 
8.48248e-18 -7.81488e-18 1 

-0.18574 0.21218 -0.337213 
-0.394312 -0.211776 -0.00129008 
-1.08082e-18 1.57491e-17 1 

-0.00038621 0.56989 1.85694 
-0.415025 0.209999 -0.601799 
-1.49365e-19 8.17116e-19 1 

-0.261616 -0.13864 4.03114 
0.0785086 -0.000454574 -0.75409 
-5.3557e-18 2.82277e-18 1 

-0.637967 0.218299 -0.280594 
-0.246283 -0.00451407 0.00614204 
-2.00418e-18 6.56579e-18 1 

-1.00085 -0.468973 -1.74113 
-0.140553 0.313339 -0.860969 
8.13139e-18 1.43495e-18 1 

-0.140808 0.0643181 -0.0381297 
-0.0415397 -0.0343529 0.12898 
5.26664e-18 9.94892e-18 1 

-0.779994 -0.19093 1.07052 
0.0642748 0.396668 -0.709769 
2.0045e-18 -1.28789e-17 1 

-0.182667 0.0993308 -0.569119 
-0.296434 -0.0164415 -0.482838 
-6.50924e-19 -4.1111e-19 1 

-0.109352 0.01056 -0.28563 
-0.0256429 -0.0456769 0.0343499 
-8.00653e-18 4.09277e-18 1 

-0.222283 0.0423294 -0.0273282 
-0.0760707 -0.0486085 -0.00287011 
-1.01743e-17 -5.07061e-18 1 

0.101539 -0.783802 -1.12009 
0.807248 0.397499 0.439379 
8.39565e-18 -6.51768e-18 1 

-0.145673 0.0132854 -0.565875 
0.0104876 -0.00317644 -0.533091 
-1.45589e-17 -3.72076e-18 1 

-0.311389 -0.0611786 2.45977 
-0.284927 0.340342 -0.180301 
-5.03709e-18 4.52079e-18 1 

-0.145504 0.609058 0.0738097 
-0.685851 0.361739 0.520514 
-5.68773e-18 -1.70358e-17 1 

-0.817496 -0.463122 0.957418 
0.355905 0.141935 -0.489423 
1.50349e-17 -1.51586e-18 1 

-0.222969 -0.397645 -0.417448 
0.0825695 0.21666 0.367072 
3.06658e-19 -2.24807e-18 1 

-0.111324 -0.00629848 0.177393 
0.0255389 -0.0151228 -0.0139763 
-9.06144e-19 6.2117e-18 1 

-0.104521 -0.159433 -0.379532 
0.0976921 -0.0567016 -0.0482747 
0 9.59671e-18 1 

0.0571782 -0.737898 -0.0326166 
0.728035 0.329476 -0.664468 
-4.48695e-18 2.44396e-18 1 

-0.77615 0.104054 0.494937 
-0.111093 0.256541 0.393107 
-3.56515e-18 -1.05219e-17 1 

-0.668393 -14.8109 0.747923 
0.0108692 -0.58734 0.561515 
-2.69994e-18 1.89043e-16 1 

-0.140671 0.000113258 0.0455771 
-0.031762 -0.14428 -0.0563104 
5.6855e-19 -1.11637e-18 1 

-0.377666 -0.277094 -0.579744 
0.364627 -0.0291431 0.0250929 
6.21472e-18 -2.92359e-18 1 

-0.196196 0.00779776 1.56575 
0.0117512 -0.0958312 5.94777 
1.63149e-18 -1.13589e-17 1 

-0.107853 -0.0901445 0.148768 
0.0348879 -0.0364843 -0.119482 
1.43977e-18 2.59158e-18 1 

-0.332894 0.345078 0.125775 
-0.127615 0.0183846 0.280544 
-9.13599e-18 7.44765e-18 1 

-2.78838 -1.33366 6.47366 
-0.478564 0.394733 2.61016 
-9.78355e-19 3.30395e-18 1 

-0.174676 0.0813936 -0.233553 
-0.155081 -0.0311044 -0.0866115 
-2.44033e-18 1.15157e-17 1 

-0.133055 0.183862 0.140511 
-0.0856106 0.0645459 0.567928 
3.49823e-18 1.64139e-17 1 

-0.251469 0.40247 -0.242464 
-0.00666257 -0.114402 0.0288719 
-8.04217e-19 -5.36144e-18 1 

-0.152909 0.104693 0.0584906 
-0.107397 -0.0655192 -0.037037 
-6.85934e-18 1.05209e-17 1 

-0.133453 -0.181242 -0.146678 
0.14368 -0.0603862 -0.377121 
2.09803e-17 -8.7278e-18 1 

-1.84762 -0.181286 -0.935824 
-0.0949255 0.38121 -2.04472 
-4.4941e-18 -3.06656e-18 1 

-0.370191 -0.151463 -0.184095 
-0.0110176 0.220635 0.199008 
-3.67445e-18 -5.2595e-18 1 

-0.119633 -0.0754184 -2.19826 
-0.0259221 0.015605 -0.232048 
-8.41534e-19 3.2787e-20 1 

-0.691651 -0.151349 9.78298 
0.336473 0.273271 3.45558 
-2.64782e-18 -1.9496e-18 1 

-0.281764 -0.0676134 0.293701 
-0.0826266 0.0567195 0.04519 
8.9865e-18 2.06883e-17 1 

-0.247219 0.233723 -0.724912 
-0.350399 0.25977 0.350816 
1.08293e-17 6.50611e-18 1 

-0.403409 -0.285693 0.8413 
0.0518393 0.0957169 0.415489 
-6.3491e-18 5.69791e-18 1 

-0.732109 -0.562814 0.332464 
0.166071 0.268837 -0.826893 
-2.09516e-18 -3.04881e-17 1 

-0.780432 -0.034324 0.738313 
0.29449 0.179126 -0.60521 
1.29808e-18 -4.37247e-18 1 

-0.167622 0.0117026 0.292036 
-0.051401 0.00365157 0.160703 
-4.88987e-18 -4.34916e-19 1 

-0.178063 0.0534264 0.0972383 
0.0939358 -0.128432 -0.0883995 
-2.93849e-20 7.71842e-18 1 

-0.453516 0.377501 1.39288 
-0.132416 -0.0336677 -0.296696 
-6.25097e-18 1.76946e-17 1 

-0.21863 0.0426359 1.26206 
0.0771265 0.103497 1.67216 
1.92487e-18 1.18648e-18 1 

-0.450663 0.167915 -1.31211 
-0.00211858 0.300321 0.18243 
-1.19653e-17 -5.04093e-18 1 

-0.157297 0.187711 -0.0843505 
-0.19171 -0.0489808 0.054118 
-6.44988e-18 -2.94039e-18 1 

-0.141697 -0.461044 1.97926 
0.512499 0.209938 0.444805 
-1.11946e-17 6.52376e-18 1 

-0.739481 -0.133781 0.822049 
0.133048 0.36728 0.653937 
1.71587e-17 2.18102e-17 1 

-0.107255 -0.0136118 -1.64311 
-0.00468576 -0.00974132 -3.21881 
9.63294e-18 4.26236e-18 1 

-0.257407 -0.0140271 -0.810944 
-0.0702088 0.0466328 -0.615976 
-1.27644e-17 -7.21356e-18 1 

-0.156244 0.0176065 -0.297321 
0.107678 0.00385745 -0.174481 
-6.14977e-18 -2.74246e-18 1 

-1.08237 0.172724 -0.474562 
0.0613961 0.519701 -0.467072 
1.255e-17 7.88513e-19 1 

-0.151134 -0.187549 -0.00164402 
0.34418 0.0605983 -0.348073 
2.76523e-17 -9.30046e-18 1 

-1.11725 -0.252959 -0.444971 
0.929377 0.460421 0.516519 
8.93302e-18 -8.26779e-18 1 

-0.282768 0.191397 0.588894 
-0.170941 -0.0892181 -0.198843 
1.82033e-17 -3.04658e-18 1 

-0.272894 -0.221451 0.203609 
0.0473259 0.127689 -0.268071 
-5.30674e-18 -1.00045e-17 1 

-4.95987 -0.859557 3.8511 
0.779132 0.834699 0.299715 
4.48993e-18 -3.25644e-18 1 

-0.159239 0.031349 -5.06937 
0.00300497 0.00362009 7.27196 
-8.23802e-20 7.09144e-19 1 

-0.142546 -0.0258674 0.51791 
-0.0624384 -0.120395 0.274422 
-1.10603e-17 -9.34403e-18 1 

-0.146039 -0.0875193 -0.195405 
-0.0448314 -0.0330451 0.0133998 
2.42076e-18 5.46982e-18 1 

-0.187207 0.00138734 -1.41356 
-0.175703 0.228992 1.74154 
6.94627e-18 -2.42141e-18 1 

-1.28916 0.0878854 1.93443 
0.0230401 0.249961 0.798776 
6.34446e-18 2.84544e-18 1 

-0.301314 0.054204 0.0590848 
0.222493 0.107115 -0.0908304 
-4.55302e-19 1.64146e-17 1 

-0.182535 -0.305796 0.382216 
0.258484 0.137665 -0.519843 
-6.33872e-18 -6.02698e-18 1 

-0.022218 0.95232 0.0255028 
-0.480329 0.399898 0.143014 
1.09302e-17 9.12246e-18 1 

-0.59027 0.343915 0.7099 
0.232213 0.195604 -0.38278 
7.69439e-18 5.5652e-18 1 

-1.47464 0.0939381 -7.62906 
-0.503631 0.613683 -3.92997 
-1.06024e-17 -5.88216e-18 1 

-0.228461 0.0299289 0.466257 
-0.113524 0.147509 -0.140467 
-2.59532e-17 1.18973e-17 1 

-0.303194 0.315328 0.940776 
-0.15928 0.130253 0.623055 
1.95133e-18 3.90265e-18 1 

-0.127696 0.766525 -0.265156 
-0.450518 0.238072 1.02281 
-7.92568e-18 -6.87381e-18 1 

-0.117715 -0.0220107 -0.0557868 
0.0196132 -0.0498314 -0.0873809 
-1.47885e-18 1.22251e-17 1 

-0.413072 0.07126 -0.566822 
0.401302 0.012844 0.314641 
-4.99323e-18 7.48984e-19 1 

-0.090936 -0.1485 0.0564693 
0.104114 -0.0624601 0.0167431 
6.55082e-18 -1.79124e-18 1 

-0.32333 -0.029097 0.225606 
0.0728975 0.0247635 -0.617172 
-1.55145e-17 4.43808e-18 1 

-0.101575 -0.117442 -0.00452044 
0.0747915 -0.0594238 -0.028799 
1.16347e-17 7.87056e-18 1 

-0.165038 0.0648417 0.399609 
-0.0620566 0.0531026 0.412806 
-9.09981e-18 5.55614e-18 1 

-0.101297 -0.0967597 -0.548404 
0.0321587 -0.0354233 -0.896777 
-7.83052e-18 7.7314e-18 1 

-0.0835802 0.00475835 0.000733434 
-0.0160676 -0.0380386 -0.0483273 
-1.2586e-17 5.70974e-18 1 

0.339217 -1.03708 -0.749203 
0.619315 0.392455 0.123442 
-6.02714e-18 -1.14892e-17 1 

-1.45351 0.247789 -0.121289 
-0.11479 0.436227 -0.180138 
4.06631e-18 -2.10709e-17 1 

-0.161064 0.0222162 -0.386781 
-0.0351904 -0.0699219 -0.566723 
8.70769e-18 -2.02005e-17 1 

-0.101654 -0.292265 4.04585 
-0.118549 0.0523409 -1.69479 
3.22876e-18 -5.79159e-18 1 

-0.0865996 0.0177886 0.257877 
-0.108144 0.00980381 0.0879986 
5.46898e-18 -8.59411e-18 1 

-0.164511 -0.127216 -0.0398951 
0.0691109 0.0411762 0.14941 
-5.89083e-18 -5.70008e-18 1 

-0.48778 0.382062 1.42899 
0.0372675 0.217637 -0.634577 
-1.09723e-18 9.37636e-18 1 

-0.178679 -0.068491 -0.222876 
0.0369433 -0.0429201 0.631839 
-1.15007e-17 6.90483e-18 1 

-0.164379 0.0494763 4.21197 
0.0373828 0.0372679 -1.05575 
-9.14645e-18 8.78521e-18 1 

-0.121169 0.00752395 0.111113 
0.0178443 -0.0674036 0.240168 
-4.30619e-18 1.80794e-18 1 

-0.85195 -1.52091 -0.94724 
0.258777 0.308543 -0.028409 
-7.54327e-18 3.52432e-18 1 

-0.741373 -0.336045 0.0893656 
0.382747 0.487487 -2.05631 
-5.94202e-18 8.32665e-18 1 

-0.174598 -0.0473412 -1.21274 
0.0132678 0.0493992 -0.788599 
-5.9234e-18 -8.85066e-19 1 

-0.653915 0.443808 -3.86951 
0.220249 0.680124 -0.671445 
-3.63726e-18 5.76786e-18 1 

-4.15318 -1.67366 -8.81487 
0.222925 0.605392 0.728278 
6.29455e-18 1.87956e-17 1 

-0.0867208 -3.60408 205.527 
-0.164579 0.796352 -22.0236 
-2.47148e-18 3.6707e-18 1 

-2.12224 -0.58165 -32.57 
0.0251085 0.555291 7.83536 
1.34341e-17 -9.45044e-18 1 

-0.654325 0.640074 -10.7559 
0.655253 0.200113 -11.2892 
-7.31149e-18 8.93914e-18 1 

-1.87762 -1.85663 6.2709 
-0.285279 0.704557 -0.867876 
-3.06143e-18 6.20036e-19 1 

-0.380615 -0.163131 2.10765 
-0.147786 0.0768155 -0.86597 
-8.30401e-18 1.52749e-18 1 

-1.79719 -0.894202 0.491158 
0.515302 0.400149 0.272571 
-2.6836e-19 1.49387e-17 1 

-0.058974 0.0373123 -0.0493912 
0.0215346 -0.0689945 0.0380555 
5.45649e-18 -3.72034e-19 1 

-0.116418 -0.0160735 0.0575542 
0.0326558 0.0123224 0.0428334 
4.37627e-19 2.02403e-18 1 

-0.130853 0.00967561 0.739781 
0.0281035 -0.0889224 -0.963964 
3.82438e-18 8.67945e-19 1 

-0.240339 -0.089189 0.455438 
0.0609499 0.0106638 -0.381001 
-1.11594e-17 -2.76223e-18 1 

-0.128256 0.0140379 -0.0454379 
-0.0082438 -0.0532073 0.0771155 
1.9043e-18 -4.98825e-18 1 

-0.0868246 -0.0428302 -0.199659 
0.0274415 -0.0307803 -0.656868 
-9.83163e-18 5.22959e-18 1 

-0.348139 -0.0278644 0.425607 
-0.0865435 0.191288 0.603524 
6.8864e-18 5.37073e-18 1 

-0.887572 -0.267088 3.5056 
-0.0806426 0.389735 -1.51713 
2.16004e-17 8.03495e-18 1 

-1.2206 -0.574668 -1.40869 
-0.245328 0.588159 0.854341 
1.53884e-18 1.5022e-18 1 

-0.219431 0.322233 2.67923 
0.0767465 0.00157191 0.811127 
2.39855e-18 8.77765e-18 1 

0.313891 -1.04444 0.065642 
0.883651 0.720398 0.690119 
-1.99048e-18 7.57915e-18 1 

-0.13065 -0.100848 0.00371464 
0.0482821 -0.0680923 -0.149573 
-7.66949e-18 2.94172e-18 1 

-0.368132 -0.0836628 -2.32282 
-0.00593413 0.0290427 -14.1208 
3.92481e-18 -4.82542e-18 1 

-0.655366 -0.334481 0.429085 
0.332606 0.187351 -0.623046 
5.57548e-18 1.00668e-17 1 

-0.604339 0.131577 -0.713136 
-0.0464709 0.342196 0.92651 
7.78251e-18 -1.52008e-18 1 

-0.875379 -0.0252898 -0.579588 
-0.0853111 0.0843198 0.272341 
-1.08289e-18 -7.05744e-18 1 

-0.83488 0.0140967 -2.0071 
-0.00860154 0.326908 -0.730396 
5.39942e-18 1.21273e-17 1 

-0.124788 -0.000684231 -0.36911 
-0.00619048 -0.0331472 -0.414893 
1.00456e-17 1.2794e-18 1 

-0.335424 0.121433 0.582766 
0.129785 0.0197699 -0.288477 
-2.23672e-17 -6.41298e-18 1 

-0.168917 -0.0207094 -0.0491535 
-0.023169 -0.0505034 0.199675 
6.80947e-18 -1.51997e-18 1 

-0.191226 0.155467 1.31396 
-0.129518 -0.0254411 -1.01213 
-1.12015e-17 9.40622e-18 1 

-0.223383 -0.46489 0.127052 
0.470693 0.214938 -0.605756 
-1.22885e-17 -2.49815e-18 1 

-0.264094 0.00907563 -0.924487 
-0.131725 0.0730096 -3.01278 
2.89868e-18 -2.62847e-18 1 

-0.594709 0.12294 -0.360862 
-0.438279 0.0154063 -1.60975 
8.62847e-18 1.23603e-17 1 

-0.148547 -0.414866 -0.472103 
0.482993 0.1898 -0.930193 
-2.8591e-18 -2.99191e-18 1 

-0.219179 -0.00341129 -0.015619 
0.105499 0.00532429 0.207598 
-1.29803e-17 4.5685e-18 1 

-1.33379 -4.06194 -62.4206 
0.0752858 0.340385 -7.84886 
-3.95076e-18 -6.85606e-18 1 

-1.10544 -0.475761 3.67057 
-0.269043 0.242093 7.37809 
6.06182e-18 1.5547e-17 1 

-0.41989 -1.1149 0.388395 
0.72988 0.488536 0.00467425 
8.41048e-18 2.88595e-18 1 

-0.42837 -0.256053 0.0554708 
-0.00869552 0.586244 -1.15227 
7.11941e-18 1.70353e-17 1 

-0.350694 0.216973 -0.199149 
-0.304756 -0.00838763 -0.000633019 
-7.21137e-18 1.89773e-18 1 

-0.472451 -0.356577 0.0979758 
0.148384 0.0848446 0.535752 
2.39229e-18 1.70179e-17 1 

-0.274716 0.267078 0.444239 
-0.382533 0.0242451 0.167301 
4.94753e-18 1.31073e-18 1 

-0.0258686 0.399941 -0.395821 
-0.533973 0.0813688 -0.275129 
-6.8655e-18 5.07755e-19 1 

-0.250947 0.0247504 1.46348 
-0.29289 0.171694 0.154451 
-9.93875e-19 3.85286e-18 1 

-0.119455 0.0152564 -0.323695 
-0.087906 -0.0139669 0.0393608 
-5.84773e-18 4.11916e-18 1 

-0.420657 -0.438282 0.00776193 
0.285103 0.041981 -0.496084 
1.07742e-17 -1.65303e-17 1 

-2.64823 -1.73895 -8.56637 
-0.482126 1.1466 -0.81222 
-1.38336e-17 -5.62266e-18 1 

-0.17633 0.087504 -0.233453 
-0.0203421 0.0152089 -0.75847 
-9.81787e-18 6.95057e-18 1 

-0.221667 -0.210683 -1.9618 
0.121098 0.235662 0.488106 
-1.09517e-17 -1.3672e-17 1 

-0.193952 0.00744075 -0.0325014 
0.00129366 0.0928806 -0.311855 
1.89176e-17 2.1762e-18 1 

-0.111577 0.0401763 0.117715 
-0.0275741 -0.0142031 -0.383823 
7.31615e-18 4.09664e-18 1 

-2.12125 0.262654 1.19873 
0.269302 1.09476 0.271321 
8.43017e-19 -1.51181e-17 1 

0.817388 -7.71836 38.028 
0.173883 0.198735 -1.1342 
4.83644e-18 -1.05417e-17 1 

-0.113246 0.0710195 -0.572732 
-0.07205 0.0630449 0.611869 
6.16799e-18 2.47088e-18 1 

-0.326121 -0.297482 -0.136708 
0.20431 0.0695789 -3.2072 
-9.00399e-18 -5.40503e-18 1 

-0.132694 0.0647392 0.0283594 
0.080599 -0.0474812 -0.306485 
-4.57097e-18 -2.03025e-18 1 

-0.25035 0.0629598 -2.02839 
-0.0506289 0.076501 -1.55997 
-6.71937e-18 -2.40788e-18 1 

-1.21897 1.51097 4.68691 
0.166806 0.32069 -2.13816 
4.2921e-19 -1.14456e-18 1 

-0.538178 -0.0471984 -0.54874 
-0.078032 0.25631 -1.36071 
-4.50917e-18 -4.49404e-18 1 

-0.208981 -0.116756 0.100602 
0.0112617 -0.0495338 -0.18112 
9.11494e-18 -2.13919e-17 1 

0.0786027 -0.965977 0.581032 
0.93951 0.689316 0.270548 
1.27495e-17 1.36483e-17 1 

-0.545686 0.167836 0.596589 
-0.0303116 0.138159 1.16533 
-9.39479e-19 9.90724e-18 1 

-0.422788 -0.252503 -1.93577 
0.300817 0.241244 1.43474 
-1.16515e-18 -3.45527e-18 1 

-0.461225 -0.181873 -8.4167 
-0.0272694 0.0471389 1.77914 
-5.841e-18 2.46269e-17 1 

-1.4689 0.995226 0.233952 
-0.855867 0.622264 -0.129268 
-6.5974e-18 2.63004e-18 1 

-0.124405 0.00290887 0.0184551 
-0.000357007 -0.0111469 -0.100043 
1.26364e-17 6.06547e-18 1 

-0.648395 0.408158 0.180544 
-0.2401 0.390835 3.37794 
-2.78109e-18 1.48282e-18 1 

0.106644 -0.753667 -0.0263348 
0.757405 0.340078 0.161675 