# vtk DataFile Version 3.0
Output file generated by Yade's KinematicLocalisationAnalyser
ASCII
DATASET UNSTRUCTURED_GRID

POINTS 13483 float
602.472 31.7517 -0.419542
730.558 66.0667 0.523007
119.123 6.07898 -0.453253
759.564 5.55231 0.442282
499.552 7.99023 -0.288883
313.844 35.731 0.237647
155.597 6.91971 0.441369
566.93 10.3711 0.170345
495.739 23.8549 -0.137719
688.155 13.834 0.458064
209.504 8.84974 -0.122873
256.313 6.39104 -0.250435
646.733 50.6437 0.160374
626.285 15.8685 -0.109227
136.253 17.2973 0.456301
220.638 34.7004 -0.394742
216.932 12.9686 -0.294391
288.27 9.88686 0.408608
339.904 33.6391 0.487471
523.14 8.49099 0.355553
410.697 38.3641 -0.098573
587.532 48.3575 -0.303048
748.061 50.289 -0.464095
686.302 64.7239 -0.506876
458.328 16.2533 0.28935
240.407 44.5145 0.126722
490.94 28.5819 -0.487613
582.741 22.1188 -0.240742
44.3594 15.8067 -0.460168
711.016 65.4161 -0.329394
482.587 4.8607 0.356927
16.5128 24.4212 -0.300405
741.335 72.232 0.288803
495.339 2.57642 0.463368
77.5229 45.1528 0.111397
521.492 33.3546 -0.349765
528.619 16.6475 -0.414692
343.036 23.2608 0.18223
530.512 27.7818 -0.296683
349.989 34.2223 0.480234
240.725 14.6134 0.31989
433.923 36.9045 0.0681349
655.731 20.7557 -0.144627
191.658 6.25865 0.348506
54.7029 7.06256 -0.101919
67.8324 8.81352 -0.276363
663.413 10.7472 0.564126
22.7892 11.828 0.28634
605.491 49.1996 -0.434804
663.993 41.8451 0.321395
171.717 32.7078 -0.323422
732.686 52.9125 -0.165957
34.236 28.6768 0.121671
533.347 3.03446 0.345064
141.15 7.44748 -0.508946
589.495 36.9696 0.491932
503.041 28.3397 0.123231
174.313 0.952937 -0.272906
31.8804 2.30995 0.352999
348.352 18.1127 0.271516
613.296 50.4552 -0.172737
461.741 33.7776 0.191863
398.932 1.02878 0.200462
674.036 11.1351 0.465286
26.3844 44.0879 0.235733
256.135 31.1804 -0.313843
687.529 8.46549 -0.334811
664.991 66.569 -0.352898
417.312 8.70437 -0.498825
567.508 3.5492 -0.384974
710.42 41.1642 0.429896
129.931 7.72758 0.283908
498.67 25.8995 -0.134743
478.341 14.7674 -0.143583
294.287 16.9366 -0.341411
20.1454 13.9132 -0.30744
752.645 69.9457 0.321764
332.601 39.6805 -0.296364
658.21 37.4726 0.327106
666.966 20.2213 -0.310635
748.694 13.0077 -0.260875
465.061 34.5335 -0.172888
91.8364 39.7128 -0.30763
677.454 50.4655 -0.238253
638.697 57.5147 -0.109169
754.863 54.7874 0.110789
742.289 0.742837 -0.583078
290.634 28.7608 0.471308
617.105 6.44087 -0.130029
23.8751 5.50777 0.612083
132.537 38.6401 -0.147672
513.817 15.8771 0.183105
740.291 41.1266 -0.511357
195.081 29.0582 0.28228
43.9352 34.7775 0.290307
494.221 1.27769 0.125832
235.912 8.94473 -0.375372
712.876 51.4821 0.266553
734.38 41.4763 0.282828
361.234 21.0144 -0.264725
163.508 27.1267 -0.467644
548.366 41.3818 0.508249
380.878 16.0382 -0.48187
414.193 30.9013 -0.120786
378.809 4.83097 0.493588
547.281 12.4239 0.134201
757.707 22.4833 0.193216
79.8335 40.0172 0.407727
336.022 5.05994 -0.206008
560.374 9.85391 -0.309297
361.575 44.4498 0.453754
24.7891 26.0294 -0.476801
29.7716 5.76847 0.311333
567.59 37.8792 -0.589972
506.401 26.2514 -0.151485
26.0406 38.2451 0.416275
92.2679 31.0538 -0.251055
325.84 16.0851 -0.279731
598.045 20.7316 -0.14703
476.359 38.7363 0.324728
704.296 8.55249 -0.418197
697.116 5.90849 -0.190083
388.929 37.5484 -0.102847
631.433 30.7956 -0.126135
239.218 16.9386 0.478103
331.469 3.89392 0.457264
103.034 32.1648 -0.414027
115.464 24.4762 0.247727
544.525 42.1518 -0.0866072
307.211 18.8668 0.469704
705.359 66.6634 0.0963599
667.904 64.9042 -0.125365
483.678 20.5682 -0.401987
733.761 19.0682 0.293961
430.615 24.071 0.21426
278.741 25.5529 -0.292197
666.312 51.0054 -0.333885
280.92 29.6774 -0.408507
576.969 13.4195 -0.243139
333.697 36.3835 0.205973
508.217 12.5715 0.532442
369.048 31.8745 0.0847403
432.847 16.9272 -0.10068
319.796 42.7703 0.431515
191.382 30.629 -0.127134
734.951 67.5141 0.14841
756.045 25.1726 -0.408758
6.04072 12.539 0.440999
435.284 23.223 -0.403861
37.665 23.0728 0.0777403
379.183 31.5313 -0.372426
398.949 25.767 -0.280039
74.5754 11.9293 -0.485827
51.8072 33.4414 0.429622
227.456 13.6582 0.423811
616.098 41.4374 0.39309
577.613 24.6143 -0.482271
74.6086 21.3527 -0.480011
686.056 69.6024 -0.406133
725.931 2.4378 0.617703
655.852 63.4401 0.480995
668.135 3.7178 0.488759
552.196 29.7208 0.425154
588.837 49.112 0.508796
517.633 19.037 -0.4185
758.564 3.77102 0.545982
225.29 24.7866 0.112342
127.987 35.7401 -0.195408
249.235 6.6572 0.442827
94.3876 4.50995 0.270678
64.1355 10.0217 0.237687
278.503 37.0679 -0.336941
17.5424 25.8473 0.360634
559.703 19.8379 -0.469173
606.202 43.3378 0.228437
467.722 21.1237 -0.390219
757.895 82.7984 0.405268
410.507 8.6534 -0.120709
440.338 37.1066 -0.0434267
541.634 3.46092 -0.204192
23.2461 23.26 0.398503
579.052 4.41675 0.571816
549.387 4.38845 0.3517
207.727 11.3468 0.47695
429.007 16.3069 -0.264434
314.339 6.33526 0.365275
392.144 18.8134 -0.377075
699.875 52.1416 -0.0686147
192.878 26.6107 0.460185
735.647 6.55465 -0.531154
699.613 48.0648 0.339322
387.156 10.5328 0.186918
686.1 2.19713 -0.57707
605.101 26.7814 -0.393149
708.528 21.6732 -0.446524
435.861 43.9281 -0.32236
503.05 13.043 0.476772
469.386 44.9033 -0.230475
450.389 8.70593 0.12181
659.162 64.0394 0.292536
657.287 57.9382 -0.302884
193.69 39.5506 0.343428
746.653 12.159 -0.148057
590.28 48.7864 -0.309472
11.2403 17.4913 0.234715
412.969 25.3262 0.337375
189.159 23.6641 -0.405641
93.4932 40.5259 0.225592
738.928 38.8988 -0.561816
652.433 67.8773 -0.222065
322.026 26.0378 0.335247
538.212 10.9638 0.402038
82.5494 45.3037 0.181126
250.513 26.28 -0.457861
561.357 26.4331 0.380921
493.456 18.6078 -0.409434
265.657 0.890181 -0.347857
557.473 43.0089 -0.408512
538.232 44.592 -0.480891
487.561 34.0756 -0.302792
505.916 2.02003 -0.670926
677.715 25.0368 -0.414589
181.054 12.4991 -0.182538
506.11 38.7741 0.522891
568.59 44.7085 0.145117
73.1687 0.960059 0.28285
254.527 4.75386 0.190773
754.292 25.9461 0.166044
747.92 14.8653 -0.524911
759.521 28.2348 -0.591795
306.927 8.63231 -0.230629
708.507 33.0055 -0.456989
411.982 43.5726 -0.33995
454.71 0.809297 -0.40974
645.8 58.2384 -0.529892
26.6313 31.8761 -0.297567
334.569 42.4219 -0.576095
255.389 2.9103 0.348987
746.363 73.0593 0.195472
705.278 79.4887 -0.112873
290.712 11.3201 0.257635
662.014 48.1134 -0.0832237
562.281 2.59459 0.250729
547.647 7.82303 0.420981
97.4877 18.7082 -0.51991
306.779 1.04116 -0.229559
347.255 2.2684 -0.361739
13.7541 7.66489 0.463147
4.52537 31.5869 0.276313
163.338 18.9888 0.416383
68.6888 42.4962 0.222693
67.0838 29.6852 -0.326837
428.904 14.4464 -0.453783
372.137 35.3036 -0.488993
730.344 53.3517 0.112627
19.3825 4.03573 -0.270444
70.8795 6.90358 0.140813
625.13 44.688 -0.179026
298.092 0.94272 0.371319
369.353 16.1295 -0.126096
238.424 4.64737 -0.379096
639.487 33.7324 0.176259
457.819 8.48923 0.41654
708.481 30.2999 -0.345922
634.426 39.8682 -0.267731
657.003 35.0655 0.0794577
425.827 28.2146 0.49164
102.69 45.6876 0.320376
548.238 45.7595 -0.0940866
708.489 15.8801 0.328219
240.866 30.6861 -0.269397
31.7669 17.8074 0.197893
340.796 13.9767 0.506114
108.27 41.5007 0.464014
271.257 43.2801 -0.227522
431.267 1.64233 -0.349198
746.871 56.5426 -0.451618
664.531 0.687869 -0.603026
336.531 3.50452 0.563434
303.938 26.9219 -0.157443
468.433 41.6627 0.227761
82.1899 8.10303 0.402983
200.077 45.6814 0.377447
736.969 46.8837 0.436865
501.309 40.8132 -0.11649
202.408 41.5781 -0.274289
162.664 42.9459 0.401381
757.865 50.9148 -0.47084
756.198 23.2347 -0.64741
608.151 4.53345 -0.628009
192.69 24.8472 -0.107008
554.328 30.6441 0.104229
556.33 30.1886 0.257032
415.03 5.70531 -0.13806
489.189 0.938798 0.376567
727.458 54.2608 -0.518894
85.6705 31.6787 -0.224543
644.629 34.8368 -0.483962
277.879 15.3753 -0.414586
9.25166 2.37929 -0.33169
126.59 37.5324 -0.200862
68.0093 22.8542 -0.471628
697.704 65.1957 0.301898
744.511 81.1241 -0.223449
187.713 29.043 0.174542
753.64 19.8272 -0.591869
45.3489 36.812 -0.279112
91.3394 29.3455 0.160726
635.607 13.9168 0.427734
419.88 17.4591 -0.55724
526.57 17.0661 -0.106033
241.55 28.7304 -0.181654
624.006 4.86468 0.478576
760.232 23.4823 0.4458
29.4967 32.5552 -0.284786
273.952 7.67205 0.201739
225.109 15.2726 0.26281
1.04745 36.0977 0.156075
228.426 14.7157 -0.380207
214.397 10.9498 0.139245
217.067 26.5091 -0.27204
134.195 28.3139 0.142634
554.081 16.0055 -0.322057
169.016 14.3547 -0.355429
741.105 70.3983 -0.32244
176.314 3.78497 0.524451
47.5228 37.9914 -0.433605
715.647 64.2413 -0.431784
285.665 33.0651 -0.405751
668.99 40.7329 0.506202
742.917 47.7656 -0.531278
304.972 9.26083 -0.103358
699.019 39.8748 0.415287
333.505 2.51502 -0.42947
422.27 23.8465 0.360131
660.672 31.0467 -0.432445
106.855 12.2306 0.516462
491.12 3.81825 -0.532402
712.068 28.7209 -0.206195
89.16 7.96782 0.244525
285.619 14.8761 0.208013
429.789 11.7557 -0.216439
756.868 3.68072 0.670701
403.906 1.98923 -0.533773
178.829 39.3634 -0.292153
711.17 11.7001 -0.394741
129.82 36.8423 -0.175725
267.305 32.1091 -0.398251
406.588 22.1265 0.205967
579.421 15.2947 -0.341775
392.924 9.87787 -0.525397
463.696 27.8351 -0.417038
731.707 66.2285 -0.436377
47.5096 11.1223 -0.116463
303.146 38.1497 -0.280599
386.052 27.6516 0.378788
416.064 20.9674 -0.262272
527.868 49.1384 0.356131
721.226 49.8098 0.241049
660.93 56.71 -0.359515
228.99 34.4875 -0.374359
13.5995 32.946 -0.160533
656.258 59.7396 -0.133392
516.019 43.8572 -0.479048
232.974 39.4717 0.129078
682.262 49.9954 -0.157714
152.873 9.32408 0.21176
371.998 21.2508 0.283339
470.105 42.8288 -0.135251
419.987 19.3084 -0.209344
726.99 65.8411 0.42149
432.674 3.87371 0.544015
50.0939 25.6323 -0.332494
477.068 32.5039 0.352698
442.196 43.1819 0.375911
747.764 66.6472 0.260396
698.201 34.6837 -0.222826
548.596 20.9716 -0.165644
740.024 62.16 -0.451817
297.657 2.26441 -0.45973
384.923 29.6123 0.514712
29.2939 39.7924 -0.300107
701.966 40.0221 -0.229428
613.805 21.4772 -0.474432
470.678 0.776547 -0.469798
127.177 4.65817 -0.340681
433.544 41.3694 0.101493
11.6578 0.907198 0.317879
757.348 7.64695 0.24771
376.336 39.3699 0.441198
[...]
POINT_DATA 13483
TENSORS Strain_matrix float
-0.447747 0.267056 -1.58179 
-0.23846 0.273383 -1.21407 
-2.96811e-19 -2.12714e-17 1 

-2.11958 1.24331 -65.8419 
0.309609 0.71791 -1.07186 
6.64908e-18 5.53427e-18 1 

-0.140988 -0.126503 -0.0337262 
0.0678994 -0.0399176 0.739177 
-9.72824e-18 -1.15583e-18 1 

-1.50671 -0.762237 -0.267383 
0.879466 0.825069 0.184672 
2.27117e-18 -9.12177e-18 1 

-0.247296 0.069176 -0.00775951 
0.0109755 0.0268834 -0.300853 
-4.35732e-18 1.26907e-17 1 

-0.0721563 -0.0398472 -0.0194917 
0.0440037 -0.0566666 -0.0209289 
-1.55442e-18 -4.0076e-18 1 

-0.0933231 -0.0224653 0.0399412 
-0.00626881 -0.0963372 -0.0264579 
-6.76079e-18 -6.44368e-18 1 

-0.156018 0.0661982 -0.0194331 
0.0526296 -0.086654 -0.217776 
-4.0269e-18 -2.83824e-18 1 

-0.0635939 -0.0248895 -1.20944 
-0.0393304 0.0289055 -0.012539 
-2.10905e-18 1.26101e-17 1 

-0.614394 0.356435 -0.256426 
-0.615463 0.232948 0.466863 
-1.73467e-17 9.789e-18 1 

-0.0577161 0.0151856 -0.0035832 
-0.0316688 -0.0748804 -0.0109183 
-1.75125e-17 9.56584e-18 1 

-0.111033 -0.0809723 0.122406 
-0.019924 -0.0777826 0.119233 
-5.75724e-19 -3.83816e-19 1 

-0.652253 -0.383559 -4.89986 
0.218246 0.293592 -0.493461 
-4.42902e-18 2.80114e-18 1 

-0.397672 -0.199205 -0.197215 
0.273649 0.198443 0.159847 
5.02025e-18 3.60831e-18 1 

-0.138192 0.0174171 0.3586 
0.00935017 -0.0774345 0.0556621 
-6.82329e-19 -1.31806e-17 1 

-0.0646923 -0.0230406 -0.109054 
-0.0552472 -0.022323 0.223241 
-6.59326e-18 -9.20963e-18 1 

-0.0693266 -0.0203896 0.0831913 
0.0147525 -0.0928485 -0.00723592 
-2.65314e-18 -9.665e-18 1 

-0.200151 -0.0446018 0.00297725 
0.0674752 -0.0662056 -0.0151301 
9.66861e-18 -7.77189e-18 1 

-0.21374 -0.017054 -0.0310152 
-0.013645 -0.00989234 -0.659326 
-6.3182e-18 2.98622e-18 1 

-0.107928 0.0887991 0.167589 
-0.150858 -0.0852309 0.429873 
-1.85947e-17 -1.32757e-18 1 

-0.211619 -0.13293 0.391863 
0.0974294 0.0526045 -0.152963 
-1.90457e-19 -3.68217e-18 1 

-0.262392 0.632228 -0.531569 
-0.339502 0.209285 0.00710685 
-3.77254e-18 -1.49973e-17 1 

-1.25348 0.27587 -3.21922 
0.0579057 0.602944 1.63695 
6.85814e-18 -8.4466e-19 1 

-0.931376 0.0206184 61.8099 
0.102609 0.501187 5.32297 
5.19035e-18 7.24045e-19 1 

-0.0735969 -0.043833 -0.200488 
0.0925233 -0.0367315 -0.0667037 
-5.86306e-18 1.60663e-17 1 

-0.178447 0.085103 -0.00646551 
-0.0735392 0.0548988 0.0072773 
-3.01216e-18 -2.56564e-17 1 

-0.149835 -0.0582941 0.894015 
0.0566374 0.0384508 -1.84687 
-2.54035e-18 -2.11984e-18 1 

-0.399465 -0.0773082 -0.812029 
-0.332906 0.0108297 0.134213 
6.20907e-18 1.29356e-18 1 

-0.112533 0.0270587 -0.100111 
0.00929425 -0.0857551 -1.33074 
-3.65237e-19 1.40782e-17 1 

-2.33138 4.07924 16.4204 
-0.408201 1.59219 5.25055 
-1.04316e-17 -7.07855e-18 1 

-0.0821935 -0.00419057 -0.413697 
-0.0352086 -0.166813 0.358075 
-2.78309e-18 7.33427e-18 1 

-0.190556 0.121454 0.380718 
-0.0754676 0.117809 0.598916 
-8.45751e-18 -1.92394e-18 1 

0.29149 -0.989031 0.271156 
0.655251 0.235233 0.326504 
2.78224e-18 -9.24906e-18 1 

-0.193857 0.04216 -0.0647384 
-0.0158087 0.00173642 0.106183 
-8.64003e-19 -9.28186e-18 1 

-0.0858337 -0.0438992 -0.110719 
-0.039063 -0.108705 -0.339221 
-1.01836e-17 2.02583e-17 1 

-0.399676 -0.18081 0.196271 
-0.0780156 0.136015 -1.37883 
-1.4792e-17 -6.04179e-18 1 

-0.295725 -0.0565929 0.72102 
0.0337071 0.15273 0.197688 
4.57333e-18 -9.14213e-18 1 

-0.364288 -0.0773446 -0.744833 
-0.219738 0.157577 0.0516008 
-1.01923e-17 -9.42642e-18 1 

-0.352551 0.319006 -1.69856 
-0.113292 0.203099 1.27821 
-4.94828e-18 9.46085e-18 1 

-0.12471 0.0145107 2.82182 
-0.0144641 -0.0268635 0.616465 
3.09646e-18 -5.13521e-18 1 

-0.104917 0.0204923 -0.0489259 
-0.038632 -0.107201 -0.264357 
-5.9488e-18 -6.73519e-18 1 

-0.0940821 -0.0533464 -0.0339824 
-0.0153312 -0.00428901 -0.035189 
3.07955e-19 9.01467e-18 1 

-0.847668 0.427556 0.0725265 
-0.600895 0.612522 0.427926 
2.74219e-17 8.61267e-18 1 

-0.130257 0.0102719 0.397655 
-0.0511828 -0.0670347 0.979051 
-2.11114e-18 1.19788e-17 1 

-0.0990227 0.0667075 -0.087043 
-0.0397817 -0.0659413 0.161399 
-5.47015e-18 1.11036e-17 1 

-0.0855148 -0.0106606 0.0159537 
-0.00868941 -0.0658147 -0.0720865 
9.05868e-18 -7.22659e-18 1 

-1.31277 0.478229 1.09098 
-1.02727 0.859401 -0.278476 
3.32045e-18 -1.66023e-18 1 

-0.0685021 0.0285726 0.0357483 
-0.0557948 -0.130692 -0.0108507 
-5.89754e-18 -5.52309e-18 1 

-0.385815 -0.101325 0.0434917 
0.13184 0.157279 0.708306 
3.45158e-18 2.03081e-17 1 

-0.807244 0.994186 1.482 
0.148686 0.38156 -0.0195455 
3.31559e-18 6.48773e-18 1 

-0.11413 -0.0918998 0.110735 
0.0310889 -0.0153887 -0.27621 
2.26982e-18 1.29999e-17 1 

0.0385226 -0.496453 0.0421565 
0.633902 0.122257 -0.219594 
8.56083e-18 1.43745e-18 1 

-0.0990009 0.0241416 -0.0763503 
-0.0387788 -0.0047044 0.128867 
1.13982e-17 4.34679e-18 1 

-0.162814 0.0827835 0.139111 
-0.0317313 -0.0764304 -0.376376 
-2.44852e-17 -1.92466e-17 1 

-0.138605 0.00109659 1.13513 
-0.0299156 -0.0672172 1.90057 
8.76235e-18 4.84925e-18 1 

-0.267045 0.00463998 -0.731582 
0.00565223 0.0708552 3.28756 
2.18194e-18 1.79338e-18 1 

-0.202649 0.103485 0.132249 
0.232704 0.211104 0.152155 
-2.42618e-18 -1.08167e-17 1 

-0.100067 -0.058343 -0.214682 
-0.00481499 -0.106446 -0.0358659 
7.53247e-18 4.75585e-17 1 

-0.065401 -0.0558763 0.276148 
-0.0453781 -0.138026 0.109123 
-5.74905e-18 2.37892e-18 1 

-0.098953 -0.0815892 -0.308609 
-0.0147827 -0.0294325 -0.0121866 
-3.10723e-18 2.76814e-18 1 

-0.633607 -0.314042 -0.198916 
0.370079 0.752206 0.222676 
2.43007e-18 4.63474e-18 1 

-0.117025 -0.174955 0.124501 
0.104523 0.0278394 0.0885088 
-3.47806e-18 7.53607e-18 1 

-0.113434 -0.0765837 -0.267873 
-0.0133046 -0.0517847 -0.136089 
-2.1919e-17 -1.10378e-18 1 

-0.475327 0.616619 0.0681256 
0.21873 -0.00240309 -0.756595 
-7.44194e-18 -4.23956e-18 1 

-0.11498 -0.0246561 -0.125479 
-0.0464155 0.0253895 0.139392 
3.61751e-19 1.11441e-17 1 

-0.213093 0.0117794 -0.128624 
0.0195502 -0.00593636 0.337947 
-1.98915e-17 -1.72434e-18 1 

-0.181738 0.141174 -0.369629 
-0.259088 -0.229445 0.182066 
7.27812e-18 -5.31644e-18 1 

-0.155298 0.496258 1.7842 
-0.270251 0.130387 -0.0709463 
-6.19302e-18 1.00187e-17 1 

-0.150769 0.00282385 0.0541934 
-0.0642116 -0.0606383 0.244249 
3.40608e-18 -6.61444e-18 1 

-0.232242 0.107684 0.0771454 
-0.209498 -0.06516 -0.482665 
-1.82725e-17 5.84121e-18 1 

-0.488021 0.0462226 -1.89918 
0.204781 0.128961 0.144715 
-4.43597e-18 -8.9427e-18 1 

-0.108953 0.0288952 -0.138418 
-0.0355237 -0.0587557 0.165088 
3.44208e-18 8.18386e-18 1 

-0.382806 0.00614407 -0.476208 
0.0581339 0.0664817 -0.407617 
-6.50786e-18 -5.2949e-18 1 

-0.119532 0.0374435 0.650957 
-0.0701878 -0.0632605 -0.355543 
5.71894e-18 -8.85962e-18 1 

-0.0982898 -0.00337256 -0.554992 
-0.0233064 -0.0547691 -0.137077 
7.59602e-18 2.95254e-18 1 

-0.141546 0.0571442 -0.0909641 
-0.0720403 -0.0730591 0.055134 
-6.71393e-18 -5.84173e-18 1 

-0.258086 -0.830376 0.208818 
0.525537 0.363795 -0.158988 
-1.05974e-17 7.70721e-18 1 

-0.133514 0.0419547 -0.289644 
-0.00791699 -0.0113291 -0.402365 
-1.97349e-18 -9.02525e-18 1 

-0.550952 0.200111 0.544751 
-0.217626 0.180095 -0.376034 
-1.09251e-19 -3.93304e-18 1 

-0.175759 0.626629 -0.014747 
-0.784741 0.415596 0.536066 
-1.0231e-17 -4.62833e-18 1 

-0.612669 -0.493089 0.486081 
0.308943 0.148013 -0.426361 
8.36167e-18 -1.37322e-17 1 

-0.0530196 -0.191468 1.26251 
0.0960759 0.0565126 -0.85993 
3.28621e-18 -3.57196e-18 1 

-0.101818 -0.000339746 0.0570132 
0.0214927 -0.0153115 -0.116864 
9.86404e-18 -5.43888e-18 1 

-0.0979978 -0.31737 -0.465126 
0.239941 -0.00445345 -0.199207 
-6.43663e-18 3.14322e-17 1 

-0.0297712 -0.443361 -0.0296508 
0.405292 0.0828079 -0.216548 
-1.90091e-17 -8.58893e-18 1 

-0.676834 0.657136 1.02461 
-0.267135 0.399046 0.430403 
-2.74832e-18 1.55604e-17 1 

-0.607842 -6.09451 3.64497 
-0.00229472 -0.263588 0.378313 
-7.69632e-18 1.89247e-17 1 

-0.147733 0.0548454 0.0101737 
-0.0724027 -0.139176 -0.0951175 
3.77349e-17 5.20142e-18 1 

-0.206491 -0.013282 -0.171865 
0.01806 -0.051027 -0.0221421 
2.38975e-18 -1.00668e-17 1 

-0.13744 -0.00229599 -0.20901 
0.0145182 -0.0289078 12.7772 
2.9575e-18 4.04409e-18 1 

-0.105795 -0.0617155 0.145464 
-0.00869597 -0.0463964 -0.0984882 
8.85999e-18 5.14451e-18 1 

-0.323487 0.267084 0.156703 
-0.0832384 0.0356865 0.279084 
-9.69655e-18 -1.17744e-17 1 

-2.84667 -0.222887 -2.7019 
-0.585028 0.56671 0.508976 
2.18877e-18 9.60924e-19 1 

-0.157155 0.0881361 -0.34822 
-0.142016 -0.0141608 -0.0807399 
-8.55982e-18 1.53176e-17 1 

-0.100939 0.047381 0.289701 
-0.00939074 -0.00503792 0.129217 
5.51369e-18 6.79494e-18 1 

-0.158902 0.147198 -0.124804 
0.0225915 0.00231687 0.179735 
-3.5243e-18 -2.29732e-18 1 

-0.118053 0.0612009 0.0354823 
-0.0604365 -0.0480942 -0.106536 
-3.4492e-18 -6.19617e-19 1 

-0.165887 -0.113829 -0.40106 
0.23721 0.0876641 -0.188125 
-7.14888e-18 -1.07233e-18 1 

-1.98589 -0.368984 1.11406 
0.0773179 0.609986 -0.91566 
-8.6214e-19 -4.96955e-18 1 

-0.151594 -0.0242672 -0.360995 
-0.013138 0.097785 0.380746 
-1.82841e-18 1.05051e-17 1 

-0.098712 -0.0275458 -0.883901 
0.029255 -0.0291694 -0.682236 
4.01709e-18 7.27187e-18 1 

-0.348731 0.162685 -1.45581 
-0.130997 0.10463 -0.465223 
-1.19181e-17 -4.7663e-18 1 

-0.154718 -0.00107202 1.09456 
-0.0107002 -0.0324856 2.16651 
-6.53982e-18 -2.37479e-18 1 

-0.0767719 0.0114958 -0.106196 
-0.0450257 -0.106342 -0.105185 
-8.55649e-18 2.16816e-18 1 

-0.189651 0.0450907 0.602394 
0.0104285 -0.0327715 -0.750795 
7.81333e-18 6.09794e-18 1 

-0.283049 0.00715002 0.0146947 
-0.0728293 0.0130105 -0.0401136 
-9.28006e-18 -1.02813e-17 1 

-0.816933 -0.0382435 0.756768 
0.298351 0.190201 -0.615769 
4.41476e-18 0 1 

-0.147132 0.00194007 -0.321635 
-0.0482508 -0.00115547 -0.149085 
-4.89453e-18 -2.48423e-19 1 

-0.151139 0.0575845 0.109206 
0.0752006 -0.0992786 -0.0697266 
2.63415e-17 3.77546e-18 1 

-0.186762 0.113354 -0.733606 
-0.0208196 -0.00976491 -0.716856 
-8.45449e-18 2.39937e-17 1 

-0.148245 0.0712598 -0.454937 
0.0279474 -0.0483761 -0.0300972 
-9.25906e-19 -1.96378e-17 1 

-0.204737 -0.0640224 -0.705301 
0.0526057 0.1394 -0.209552 
4.09623e-18 6.75878e-18 1 

-0.0823022 0.106927 0.0411263 
-0.0831421 -0.107469 0.0750662 
4.76665e-19 -4.68721e-18 1 

-0.326042 -0.0335667 6.58822 
0.186432 0.0641356 3.19081 
6.90051e-18 -8.80563e-18 1 

-0.176967 -0.392435 0.353388 
0.184937 0.0350974 -0.127197 
7.93127e-18 9.7917e-18 1 

-0.108769 0.0316839 -0.73822 
-0.04689 -0.000335125 -0.384185 
-9.20329e-18 9.74925e-19 1 

-0.214939 -0.0315445 -0.95367 
-0.02134 0.0568487 -0.845942 
-2.25492e-18 -1.09541e-17 1 

-0.161002 -0.00345455 -0.278274 
0.112251 0.00609684 -0.147883 
1.05881e-17 -8.89401e-18 1 

-0.816907 0.146792 0.169199 
0.0803991 0.400035 -0.873692 
-1.66813e-17 2.76665e-18 1 

-0.103353 -0.0430499 -0.165096 
-0.00189768 -0.0120934 -0.0190926 
-3.5178e-17 -1.98356e-18 1 

-0.642907 -0.17864 0.541715 
0.419552 0.107304 0.411955 
7.13488e-18 -3.82975e-18 1 

-0.256786 0.247179 0.478694 
-0.133263 -0.0591469 -0.16885 
1.20092e-18 -1.50115e-18 1 

-0.096949 -0.00732947 0.0455007 
0.0117096 0.0102848 -0.0506248 
-2.93257e-18 4.79874e-19 1 

-1.66211 0.513606 -1.06605 
0.151682 0.548696 0.474857 
4.57683e-18 3.74468e-19 1 

-0.105488 0.0152401 -0.125236 
-0.0447592 -0.0532933 2.68027 
-1.23498e-17 -2.98631e-18 1 

-0.113166 -0.0301393 -0.0837507 
-0.0318625 -0.115573 -0.0222061 
-9.81326e-18 6.82393e-18 1 

-0.124988 -0.0736442 -0.208538 
-0.0377921 -0.0346676 -0.118494 
4.81731e-18 -6.20204e-18 1 

-0.198642 0.1765 0.464703 
-0.103305 0.137157 1.01408 
-9.53945e-18 6.17259e-18 1 

-0.0711792 0.0929532 0.146406 
-0.0910966 -0.0218871 0.0409884 
-1.05341e-17 5.02619e-19 1 

-0.179731 0.140022 -0.0307832 
0.0743822 0.0495685 -0.215707 
-4.08171e-18 8.35327e-18 1 

0.030673 -0.412569 0.0922377 
0.360256 0.0610333 -0.175725 
-6.69603e-18 3.5171e-18 1 

-0.18136 0.774066 0.0221715 
-0.385208 0.337105 0.15926 
2.36574e-18 2.7852e-18 1 

-0.159486 -0.00692042 -0.543465 
0.028778 0.034532 0.162911 
4.30468e-19 4.55066e-18 1 

-0.867759 -0.336044 -1.18587 
-0.400962 0.312923 -0.376261 
-9.37075e-18 -5.87969e-18 1 

-0.135509 0.0347848 0.32254 
-0.266743 0.173045 -0.243139 
4.38252e-18 8.36663e-19 1 

-0.365088 0.375235 1.02248 
-0.238415 0.177938 0.806254 
3.12147e-18 6.93661e-18 1 

-0.355657 0.629849 0.411542 
-0.262369 0.215267 0.684726 
5.51307e-19 -1.32314e-18 1 

-0.106406 -0.0317967 -0.12427 
0.0298652 -0.04692 -0.24454 
-1.41102e-17 8.3001e-19 1 

-0.196366 -0.0653583 0.000133417 
0.0283297 -0.00279078 0.390325 
-7.75675e-18 4.16044e-18 1 

-0.0782416 -0.0791292 0.0407264 
0.0746962 -0.0853252 -0.0305893 
-4.3313e-18 -1.82371e-18 1 

-0.231771 -0.0888643 -0.174095 
0.133216 0.023243 -1.28372 
-1.39243e-17 6.97369e-19 1 

-0.103369 0.00572779 -0.0250322 
-0.0343759 -0.0215362 -0.0757194 
4.04257e-18 1.8879e-17 1 

-0.141685 -0.122386 0.0940128 
0.0796303 -0.00990567 -0.0971648 
-8.94111e-18 2.85264e-18 1 

-0.0721173 -0.0884185 -0.892477 
0.0500444 -0.0447716 -0.680422 
-1.06934e-17 2.53177e-18 1 

-0.0728996 0.00560708 -0.00224083 
-0.0205477 -0.0373047 -0.0555113 
3.3655e-18 1.01949e-17 1 

0.23294 -0.957328 -0.568875 
0.567639 0.393131 0.400096 
2.61575e-18 -6.93743e-18 1 

-1.40411 -0.110734 -0.508686 
0.0172309 0.434542 -0.300887 
-2.52654e-18 -7.10591e-19 1 

-0.127018 0.00611586 -0.0437569 
-0.0318431 -0.0730104 -0.478091 
4.50026e-18 -2.41264e-18 1 

-0.0364029 0.0622201 -1.4784 
-0.0525108 0.0194871 -0.309643 
-1.74159e-17 9.90158e-18 1 

-0.0854721 0.0365453 0.175349 
-0.0932536 -0.030094 0.107886 
-4.36765e-18 -7.01786e-18 1 

-0.102386 -0.0255429 -0.310202 
0.0187759 -0.0253117 0.0553981 
-1.6984e-18 9.96042e-18 1 

-0.241067 0.337751 0.611277 
-0.0100169 0.0761925 -0.540815 
1.31992e-17 5.94944e-18 1 

-0.163691 -0.067839 -0.0432085 
0.0425577 -0.0462228 0.651588 
7.38611e-18 -4.13574e-18 1 

-0.12918 -0.0175207 0.517877 
0.0467095 -0.0193639 0.00708911 
2.45724e-18 1.42897e-17 1 

-0.101928 0.00420614 0.140013 
0.0014095 -0.0643177 0.12607 
-9.71833e-19 -5.37747e-18 1 

-0.463107 -0.359324 1.68505 
0.11526 0.184472 -0.176816 
-6.15519e-18 -1.40921e-17 1 

-0.359626 -0.418076 -1.58681 
0.192536 0.268102 0.119406 
-2.16021e-18 -2.74195e-18 1 

-0.151071 -0.0218176 -1.58995 
0.0233252 0.0375334 -0.153636 
-1.05717e-17 -1.70194e-18 1 

-0.633656 0.240231 -3.7731 
0.200932 0.691448 -0.274162 
-4.42201e-18 8.86029e-18 1 

-3.74792 -1.84482 -8.28588 
0.370367 0.74511 1.01622 
-1.44604e-17 1.91263e-17 1 

-0.266188 -0.237768 -6.9596 
0.054948 -0.291094 -15.1931 
3.72793e-19 -8.07788e-18 1 

-0.622073 0.262809 -1.0028 
0.153084 0.154456 1.10337 
5.00395e-18 7.14851e-19 1 

-0.344802 -0.707178 2.81856 
-0.107403 0.217526 -2.28313 
3.07785e-18 -1.45957e-17 1 

-0.362233 0.171737 2.75375 
-0.108841 0.381526 4.47141 
2.03556e-18 6.40493e-18 1 

-0.289193 0.124644 0.53835 
-0.218951 0.0637635 0.27543 
1.92517e-17 7.30432e-18 1 

-1.24907 -0.713186 -0.786081 
-0.115124 0.1621 0.569031 
1.27728e-17 1.52193e-17 1 

-0.0600432 0.0357769 -0.0696486 
0.00173798 -0.059207 0.0436087 
-2.03478e-18 4.59768e-18 1 

-0.106629 0.0242783 0.0204067 
-0.0378757 -0.030908 -0.0829741 
1.42416e-18 5.71699e-18 1 

-0.119909 -0.00351967 0.25161 
0.00109137 -0.101414 -0.435002 
1.08778e-17 4.50057e-18 1 

-0.182883 -0.0229356 0.146051 
-0.00825378 -0.000787259 -0.0833961 
3.36646e-18 -4.03127e-18 1 

-0.112213 0.0153286 -0.0537318 
-0.0189922 -0.059293 0.0548308 
-5.36228e-19 4.04951e-18 1 

-0.0674144 -0.0610577 -0.128648 
0.0730755 -0.0451801 -0.370984 
8.91825e-19 1.53554e-17 1 

-0.281924 -0.093196 0.192174 
-0.199409 0.168352 0.65793 
1.57414e-17 -7.30539e-18 1 

-0.442107 0.030916 0.923009 
-0.257866 0.168682 0.0502719 
-1.40271e-17 1.1463e-18 1 

-0.443709 -0.255142 -1.12648 
-0.150411 0.155346 0.184225 
-2.15315e-18 3.34934e-18 1 

-0.116682 -0.00831278 0.195072 
-0.0140948 -0.0570037 0.730238 
-1.9792e-18 1.33887e-18 1 

0.131753 -0.984734 0.0264845 
0.818081 0.671803 0.743876 
-1.69678e-17 1.0408e-17 1 

-0.139481 -0.00440599 -0.012338 
-0.00650568 -0.0542261 -0.128526 
1.14195e-17 -8.55201e-18 1 

-0.112202 0.0403234 0.187404 
-0.0715664 -0.00669523 -0.433516 
-2.56045e-18 -3.59788e-18 1 

-0.306208 -0.0835386 0.03488 
0.134 -0.0621435 0.0408319 
6.40599e-18 1.26986e-17 1 

-0.263257 0.0707846 -0.920886 
-0.0391066 0.234277 0.868785 
-6.38409e-18 -2.01761e-18 1 

-0.457214 0.0419103 -2.46112 
-0.0971678 0.108282 0.138205 
4.12012e-19 3.02361e-17 1 

-0.392145 0.00209077 -0.340421 
-0.101737 0.233341 -0.343684 
4.31939e-18 -2.21806e-18 1 

-0.111683 -0.0032835 -0.456964 
0.0049572 -0.0411227 -0.480584 
-1.33245e-17 3.49076e-18 1 

-0.282119 -0.0120255 -0.0494093 
0.103976 0.0505803 -0.534215 
-1.14125e-18 -1.29189e-17 1 

-0.158606 -0.0167504 -0.034803 
-0.0549948 -0.044923 0.215121 
1.07516e-17 -2.51414e-17 1 

-0.143616 0.0445247 0.938988 
-0.0341394 -0.0470085 0.0793588 
2.2246e-18 2.71693e-18 1 

-0.253799 -0.433926 0.408416 
0.567051 0.226616 -0.952889 
-3.52739e-18 -2.69483e-18 1 

-0.244371 0.0123108 -0.877634 
-0.134444 0.0462034 -2.13191 
2.09785e-17 7.53668e-18 1 

-0.453633 0.167292 0.0448396 
-0.400704 0.0715543 -0.988889 
-4.82386e-18 -9.16187e-18 1 

0.0335234 -0.323849 -0.552286 
0.469418 0.0152266 -0.645397 
-5.49199e-18 1.3574e-17 1 

-0.17526 -0.0252482 -0.187472 
0.0858984 -0.0189691 0.0120594 
-6.29665e-18 1.68478e-17 1 

-0.639327 -0.39615 -5.04111 
0.0575233 0.149081 -0.714308 
-3.23213e-18 -1.22731e-17 1 

-0.251008 -0.0341445 -0.28229 
-0.289013 0.155747 0.446821 
-6.21511e-18 -9.61068e-18 1 

-0.295577 -0.840886 0.679377 
0.49593 0.302914 -0.373921 
-8.29921e-18 -1.88708e-17 1 

-0.146368 0.0518472 0.343086 
-0.0229999 0.0878649 -0.694395 
-1.07787e-18 4.31147e-18 1 

-0.224122 0.0552409 -0.138959 
-0.0129011 -0.0243098 -0.039948 
7.27234e-18 -1.11248e-17 1 

-0.19345 -0.00931563 -0.151227 
0.00110315 -0.00127285 -0.0487508 
-6.65731e-19 -1.01007e-18 1 

-0.115619 -0.0642749 -0.114716 
-0.047658 -0.0593257 0.192256 
1.63412e-18 -1.69949e-17 1 

-0.162294 0.174198 -0.238286 
-0.11031 0.146049 -1.34611 
-3.43728e-18 -1.41457e-17 1 

-0.803503 0.050698 -1.22694 
-0.235745 0.335336 -0.851943 
9.06471e-19 -1.17006e-17 1 

-0.113992 0.00766007 -0.401382 
-0.0792208 -0.00928053 -0.0162658 
1.38256e-17 3.00556e-18 1 

-0.335616 -0.394613 0.0254511 
0.237569 0.0434329 -0.436837 
-9.85939e-19 2.1539e-17 1 

-0.532976 0.405009 -1.48516 
-0.0993436 0.292473 -0.958571 
1.32151e-18 1.62647e-18 1 

-0.186293 0.0414322 -0.0463934 
-0.0831371 -0.055055 -0.0213572 
2.85922e-18 -1.14966e-17 1 

-0.179052 -0.0731642 -1.23502 
0.148962 0.13605 0.317865 
5.33019e-18 -9.22219e-18 1 

-0.155059 -0.00254679 0.132529 
0.00810473 0.0655835 0.049403 
-2.92886e-18 -6.24824e-18 1 

-0.0938003 0.0418497 0.200508 
-0.0149941 -0.00883821 -0.285792 
-9.35412e-18 -3.29214e-18 1 

-2.02788 -0.018412 21.8486 
0.212459 0.922549 7.00015 
-5.56312e-18 6.15371e-18 1 

0.00558099 -0.190872 -0.0363753 
0.155954 -0.0360773 0.308943 
-1.25272e-17 6.26361e-18 1 

-0.0809891 0.0348971 -0.217929 
-0.0429543 0.0283756 0.758842 
1.1613e-17 -8.99296e-18 1 

-0.265474 -0.120821 -0.396397 
0.086242 0.0203646 -2.21243 
-1.3826e-17 1.34523e-17 1 

-0.11824 0.0599155 0.0380814 
0.0698882 -0.0496365 -0.335916 
-3.2436e-18 2.05737e-17 1 

-0.0939667 -0.01226 -0.0454568 
-0.0165517 0.00242879 -0.451552 
1.4406e-18 1.51337e-18 1 

-0.431318 0.125139 2.21362 
0.0257946 0.169001 -2.60496 
-3.595e-18 -2.17089e-20 1 

-0.157107 -0.0436414 0.161913 
0.0253513 0.0369506 -1.84295 
-1.59194e-18 1.79616e-19 1 

-0.13456 -0.0762321 0.0558785 
-0.00375453 -0.0978867 -0.0788941 
-1.62206e-17 -7.97271e-18 1 

-0.321358 -0.200035 0.567482 
0.308154 0.208913 0.365407 
-8.28005e-18 -5.17616e-18 1 

-0.304627 0.090864 -2.93022 
-0.0155994 0.0608574 3.53745 
-4.01112e-18 -1.13748e-17 1 

-0.155659 -0.0410648 0.055671 
-0.0414514 -0.0107141 0.0970627 
5.01729e-18 -7.46893e-18 1 

-0.161746 0.110629 69.8375 
-0.00679254 -0.121613 -34.1061 
7.59283e-19 4.39529e-18 1 
