# vtk DataFile Version 3.0
Output file generated by Yade's KinematicLocalisationAnalyser
ASCII
DATASET UNSTRUCTURED_GRID

POINTS 13483 float
643.215 28.3242 -0.429118
838.178 47.5668 0.543835
125.729 6.1552 -0.46303
876.819 4.73055 0.410316
524.102 7.60249 -0.302979
329.114 34.7932 0.315382
163.699 6.83272 0.418598
601.012 10.1186 0.137912
521.062 23.0664 0.1395
777.243 12.3441 0.384411
219.968 8.81775 -0.125983
268.542 6.30314 -0.263947
695.779 29.2475 0.169417
672.954 13.9409 0.0723637
143.539 17.1162 0.441438
231.626 34.2723 -0.397781
227.527 12.9111 -0.277025
301.87 9.51806 0.388913
356.378 32.5724 0.271437
551.454 8.59502 0.344772
430.33 36.3709 0.103616
625.136 44.4242 -0.283972
871.093 36.8067 -0.452242
749.889 41.3575 0.444859
481.129 16.1145 0.283601
251.823 43.9617 -0.123255
515.793 27.3091 -0.486523
619.777 19.163 0.220148
47.2593 15.4432 -0.460936
773.136 32.8367 -0.317055
506.079 4.90745 0.313418
17.3506 22.9908 -0.293135
851.306 47.4001 0.263835
519.791 2.4668 0.489902
81.8759 44.0366 0.101638
548.337 30.2591 -0.359607
558.026 16.6005 -0.417318
359.492 22.2479 0.182266
561.653 25.2893 -0.321021
367.008 33.0141 0.455666
252.047 14.5048 0.299605
455.099 35.4507 0.0713596
724.701 7.32844 -0.179652
201.663 6.19914 0.374457
58.0703 6.88708 -0.128041
71.738 8.78614 -0.268616
742.976 8.95481 0.448181
24.6158 11.6437 0.273159
647.217 44.1803 -0.354299
726.744 23.1409 0.320759
180.679 32.0692 -0.309969
835.053 34.6112 -0.146277
36.757 27.9234 0.113685
562.114 2.97594 0.319599
148.762 7.4179 -0.498213
628.336 33.7761 0.438304
530.037 26.2225 0.121354
182.95 0.941196 -0.261367
34.3262 2.41084 0.293953
364.795 17.6631 0.27639
658.997 44.9869 0.136795
484.984 33.297 -0.172707
418.485 1.03253 0.193256
754.815 7.62197 0.382997
27.7834 42.5816 0.235743
268.123 30.4051 -0.319096
777.395 7.66913 0.187558
717.748 44.8158 -0.363752
437.827 8.53035 -0.487455
601.819 3.53409 -0.343945
810.474 30.1661 0.377348
137.002 7.55208 0.287068
523.977 25.3279 -0.12462
501.702 14.739 -0.145925
308.37 16.6107 -0.319702
21.671 13.5801 0.222657
860.186 40.2761 0.364329
348.545 38.5312 -0.280711
724.315 20.061 0.318804
742.481 12.8562 -0.274877
863.736 12.7729 -0.22336
488.584 34.2329 -0.168021
96.81 38.2564 -0.279908
736.203 33.7127 -0.207378
691.878 37.6402 0.114423
877.982 41.0063 0.123556
857.668 0.734752 -0.577121
304.86 28.7497 0.448632
661.261 6.28111 -0.1224
25.4839 5.2087 0.468685
139.435 37.786 -0.141473
539.973 14.2329 0.21629
847.964 27.7605 -0.442799
204.967 28.4014 0.243258
46.5836 34.2834 0.272331
518.647 1.1592 0.127476
247.137 8.84255 -0.361902
814.757 39.012 0.255834
836.614 26.8537 0.243896
379.195 20.416 -0.272395
172.093 26.6501 -0.466138
581.267 38.0418 0.402705
399.284 15.3052 -0.413408
434.703 29.4071 -0.108768
397.274 4.46919 0.407545
579.107 10.7646 -0.094101
879.996 13.1773 0.18769
84.1636 38.9269 0.395635
352.143 4.80468 -0.181042
594.243 9.47473 -0.348458
378.45 43.5328 0.446274
26.9909 24.214 -0.484501
31.9909 5.71365 0.325486
602.837 31.9814 -0.397887
533.25 23.9082 0.136268
27.7351 36.6651 0.407605
97.7235 30.4431 -0.232465
341.661 15.8501 -0.298388
639.145 18.8772 0.116559
501.275 37.7796 0.310736
795.64 7.55583 -0.440168
787.48 6.454 -0.195716
407.336 36.8527 -0.0977871
678.939 24.805 -0.0994583
250.577 16.8447 0.467212
347.136 3.69846 0.463518
108.887 31.1846 -0.374401
122.319 23.8869 0.258239
576.281 38.2891 0.0730698
321.97 18.7309 0.487402
768.555 35.7032 0.0977243
722.045 44.1773 -0.113608
507.657 20.3102 -0.372257
839.679 10.0787 0.26389
452.187 23.3435 0.232257
291.415 24.1948 -0.297199
724.346 31.3981 -0.317681
293.677 28.2211 -0.396711
613.102 11.6262 -0.195474
349.69 35.2356 0.193644
533.989 11.4499 0.465757
386.775 31.1753 0.0970039
454.605 16.5485 -0.104107
335.393 41.5224 0.338157
201.047 29.6506 -0.12181
842.786 46.8286 0.146844
876.312 14.4531 -0.29912
6.20707 11.9046 0.441454
458.696 22.2191 -0.405941
40.4335 22.4343 0.0792388
397.185 31.1105 -0.354207
417.418 24.4173 -0.263901
78.7699 11.7657 -0.477109
54.75 32.9319 0.382505
238.413 13.4267 0.414382
660.621 38.7057 0.418043
615.598 20.424 -0.424808
79.1058 20.8318 -0.473969
752.652 45.0061 -0.422661
825.51 2.53537 0.51796
710.207 40.5882 0.538392
749.794 2.3256 0.388809
585.769 26.8098 0.419071
626.737 44.4871 0.437419
543.871 17.9368 -0.380785
875.567 2.83111 0.3466
236.22 24.4507 0.113708
134.792 34.7898 -0.191847
261.134 6.43449 0.381365
99.8251 4.19405 0.265737
67.9544 9.99729 0.198189
291.385 35.6433 -0.320869
17.4362 24.7353 0.35194
591.703 19.0961 -0.382481
646.915 39.2628 0.235105
490.757 21.0269 -0.364
871.661 50.323 0.38016
430.719 8.50605 -0.0985657
461.819 35.7201 -0.0797007
570.915 3.4213 -0.18843
24.1538 23.8773 0.379598
615.916 4.43954 -0.345409
581.308 4.32436 -0.288566
218.151 11.3544 0.489872
450.525 16.1606 -0.194198
329.378 6.27577 0.328397
410.964 18.7502 -0.334606
800.821 42.441 0.114339
203.038 25.7049 0.440767
849.716 6.62026 -0.322332
800.149 38.4335 0.400478
406.101 10.1768 -0.172932
774.646 2.29135 -0.439445
647.485 25.5713 -0.415648
803.873 17.9616 -0.381511
457.026 42.3913 -0.292742
528.215 12.2797 0.403873
494.061 43.9079 0.218446
472.836 8.59008 0.125577
713.616 39.6044 0.322614
711.342 35.6693 -0.356427
203.338 38.6799 0.344419
861.616 12.0532 -0.187018
629.113 44.9705 -0.24124
11.8228 16.8935 0.202866
432.144 24.8179 0.335181
198.373 22.9095 -0.401756
98.4591 39.1346 0.20833
845.901 25.5903 -0.438992
706.629 44.027 -0.241297
338.084 25.2959 0.356949
567.646 10.1293 0.31801
87.0877 44.0336 0.168246
262.311 25.7311 -0.449673
594.902 23.0317 0.362934
517.785 18.4515 0.372676
278.302 0.892091 -0.343324
590.888 39.6921 -0.367037
569.455 40.3796 -0.461909
512.802 32.6681 0.378263
531.38 0.7764 -0.497996
760.772 18.9498 -0.346011
190.307 12.001 -0.165341
532.918 36.2331 0.442904
603.861 39.0092 0.129455
77.3291 0.939567 0.275526
266.695 4.71723 0.172079
875.618 16.3402 0.249441
862.894 14.5557 -0.576726
882.383 18.2623 -0.460463
321.621 8.54918 -0.226742
811.042 23.5609 -0.388337
432.319 41.1197 -0.314597
477.202 0.818574 -0.397182
698.607 35.5954 -0.551503
28.81 30.3847 -0.30753
350.715 40.8333 -0.516892
267.579 2.85592 0.320044
856.186 45.8572 0.202036
772.017 48.2224 0.2198
304.6 10.8704 0.213519
718.187 29.2397 -0.0866475
596.013 2.67072 0.292307
579.005 6.37716 0.418955
102.64 18.1929 -0.484982
321.479 1.03354 -0.224247
364.194 2.27432 -0.359348
14.798 7.63837 0.368841
4.61968 30.78 0.258697
171.84 18.7002 0.396933
72.5454 41.4098 0.218563
70.7467 28.6684 -0.330975
450.226 14.3028 -0.435362
389.911 34.7169 -0.474319
832.677 36.6183 0.142376
20.6877 4.03152 -0.269026
74.9087 6.82059 0.124704
671.311 37.5406 -0.191347
312.519 0.945007 0.313722
387.361 15.7738 -0.128776
249.949 4.59801 -0.399148
703.467 21.3594 -0.17833
480.491 8.36901 0.403381
812.715 20.899 -0.341628
678.082 28.3786 -0.311451
723.31 17.9476 -0.115875
446.736 26.6915 0.518563
108.315 44.2799 0.315432
580.005 41.8339 -0.0734092
800.799 13.3569 0.262033
252.315 30.0011 -0.241751
34.1189 17.0249 0.168437
357.098 13.6384 0.498026
114.139 40.1113 0.461147
284.102 42.0681 -0.204982
452.493 1.08976 -0.217149
858.258 35.1063 -0.462988
742.101 0.711375 -0.513517
352.726 3.17927 0.516525
318.536 26.471 -0.156098
492.815 40.7007 0.210625
86.7695 7.91234 0.421298
210.117 44.8088 0.377415
841.29 29.8936 0.351395
527.939 38.5565 -0.0933313
212.509 40.9146 -0.259236
171.01 42.0041 0.266324
880.965 37.1133 -0.445257
878.472 13.9832 -0.569294
651.395 3.48304 -0.457533
201.947 24.3145 -0.103071
587.611 27.6025 0.102401
589.623 27.2336 0.265778
435.422 5.56613 -0.139711
513.443 0.932915 -0.279153
830.497 38.3314 -0.505847
90.2545 30.7147 -0.222365
709.497 18.3558 0.429838
291.38 15.4458 -0.342748
10.3905 2.32314 -0.345564
133.328 36.4314 -0.198205
71.183 22.9957 -0.469894
761.031 36.5967 0.321803
858.964 53.7225 -0.176284
197.262 28.1441 0.179053
871.422 13.5068 -0.373318
47.8856 36.1895 -0.266977
96.6168 28.8081 0.158289
683.293 13.0567 0.441863
440.378 17.6708 -0.511484
554.671 16.6033 0.12104
253.028 28.0982 0.184941
668.879 4.46586 -0.408619
882.915 13.4899 0.396711
31.7759 31.4497 -0.280079
286.949 7.70867 0.187587
236.021 15.0314 0.251479
1.09741 35.3687 0.145368
239.408 14.49 -0.370111
224.95 10.9273 0.140713
227.887 26.0954 -0.270959
141.528 27.7024 0.135216
585.939 14.8741 -0.340676
177.708 14.0805 -0.34803
850.224 45.7738 -0.247354
185.079 3.80862 0.500005
50.3598 37.1385 -0.37721
807.903 48.4218 -0.426714
298.623 31.3912 -0.376789
732.281 24.0972 0.428559
861.008 33.3691 -0.508365
319.635 9.16099 -0.107947
798.019 30.3926 0.337208
349.496 2.61005 -0.368165
442.933 23.5967 0.379205
729.805 15.6005 -0.463302
112.386 11.8444 0.415386
515.194 3.91096 -0.473374
815.589 18.2486 -0.218435
94.0075 7.85468 0.194442
299.377 14.5899 0.20232
451.089 11.5554 -0.202523
873.934 3.64661 0.58281
423.587 1.94325 -0.517716
188.031 38.5714 -0.273572
803.417 10.3389 -0.318127
136.66 35.954 -0.150205
279.679 31.2317 -0.380911
426.411 21.4491 0.202651
615.7 13.3671 -0.32488
412.178 9.7764 -0.468799
486.786 27.4812 -0.396802
839.186 47.8459 -0.453326
50.6052 10.8691 -0.111224
318.112 37.8537 -0.258262
404.149 26.8222 -0.344936
436.375 20.6911 0.24152
557.382 43.9821 0.35634
823.455 35.994 0.251162
716.7 34.9824 0.369994
240.027 34.0299 -0.378832
14.7785 31.2463 -0.159046
709.791 36.8772 -0.122235
543.906 41.0221 -0.0103523
244.188 38.9109 0.102542
740.332 30.945 -0.118793
160.888 9.21437 0.201843
390.159 20.6217 0.29382
494.579 41.804 -0.10111
440.866 19.3145 0.195838
835.238 49.483 0.303902
454.027 3.40531 0.431297
53.0018 25.0846 -0.316285
501.58 31.5194 0.336118
463.522 41.7201 0.373318
854.703 40.9925 0.251184
794.86 28.804 0.231944
579.577 18.3107 -0.177287
845.109 39.756 -0.322311
311.829 2.1915 -0.440712
403.006 28.9724 0.478956
30.9734 38.4586 -0.302547
801.203 30.6584 -0.167478
656.077 19.6035 -0.469535
493.933 0.779064 -0.474699
134.337 4.51586 0.277675
454.755 39.8452 0.0990606
12.8889 0.915833 0.312204
873.614 6.0078 -0.192541
394.307 38.7984 0.399338
[...]
POINT_DATA 13483
TENSORS Strain_matrix float
-0.0537868 -0.0748643 0.489039 
-0.0310706 -0.00961062 0.72203 
-4.70444e-18 8.31522e-18 1 

-0.250701 -0.49784 -16.714 
0.130342 0.82838 37.9138 
-2.25922e-18 -9.80999e-18 1 

-0.0819457 -0.00807849 0.38422 
0.00175737 -0.0694461 0.531112 
1.17186e-17 -1.08992e-18 1 

-1.18207 -0.686873 -0.628377 
0.225225 0.396435 0.163179 
9.2914e-19 1.50985e-18 1 

-0.114306 -0.0101577 0.0257682 
-0.0132052 -0.0681118 0.0120815 
3.07607e-18 1.29219e-17 1 

-0.0506887 -0.00270304 -0.0124184 
0.00169164 -0.0643131 0.049122 
3.03667e-18 -2.10231e-18 1 

-0.0539066 -0.0281177 0.0374814 
-0.00664423 -0.0907472 0.000835509 
-3.90929e-18 -6.00159e-18 1 

-0.0739692 0.031258 -0.0777504 
0.00900073 -0.0526049 -0.032429 
4.0953e-18 -8.71124e-19 1 

-0.0811489 0.0030285 0.0801748 
0.00537294 0.0061845 0.087313 
-4.32089e-18 1.02939e-17 1 

-0.22233 0.0216467 -0.0999155 
0.0849819 -0.0864651 0.157871 
-1.4663e-18 2.47439e-18 1 

-0.0635915 0.0120991 0.0412168 
-0.00160598 -0.0591702 -0.136763 
8.07238e-19 1.14558e-17 1 

-0.0774858 -0.0460284 0.200921 
-0.0651022 -0.0960273 0.0512195 
-9.16726e-19 -7.28092e-18 1 

-0.141959 0.00971291 -0.195585 
0.0853238 0.0269643 -0.243692 
-2.62108e-18 1.16245e-17 1 

-0.135295 -0.0325038 -0.258635 
0.0356556 -0.0415604 0.170771 
9.63867e-18 -8.04578e-18 1 

-0.105216 0.000660008 0.157878 
0.00807815 -0.0564121 -0.271304 
6.38489e-18 5.41748e-19 1 

-0.0488122 -0.0155462 -0.0923876 
-0.0430651 -0.0326644 -0.261006 
5.74904e-18 2.54861e-18 1 

-0.0375197 -0.0117746 0.0695918 
-0.00486108 -0.100702 -0.000590294 
-1.43622e-17 -2.08538e-18 1 

-0.121307 -0.00495042 -0.0525154 
0.0148027 -0.0768926 0.0186048 
2.91108e-18 3.56842e-18 1 

-0.11514 -0.00662601 -0.0320653 
-0.023139 -0.0590837 -0.0272017 
-4.35492e-18 -9.6776e-19 1 

-0.093781 0.0272413 0.128598 
-0.0607041 -0.0771068 0.13041 
4.88628e-18 -2.14245e-18 1 

-0.0641562 -0.023897 0.0901085 
0.090219 -0.0300195 0.0382396 
5.13477e-18 5.46177e-18 1 

-0.0838635 -0.175481 0.285921 
0.0492275 -0.0786275 -0.00806112 
-5.81702e-18 -1.89171e-17 1 

-1.13092 0.273523 -3.80892 
-0.0188692 0.412277 0.881481 
-1.16693e-17 -1.04131e-17 1 

-0.136001 -0.00047693 0.236764 
-0.176327 -0.066102 -0.739369 
1.55156e-17 -1.21789e-17 1 

-0.043514 -0.0347 -0.193112 
0.096239 -0.0439172 -0.0794632 
-1.72006e-17 3.8115e-18 1 

-0.052156 0.051232 0.00554117 
-0.0749829 -0.0135553 0.156222 
1.04231e-17 -1.44861e-17 1 

-0.0831242 -0.00652766 -2.01756 
0.0109043 -0.0228128 -6.86761 
8.71311e-19 -9.03581e-19 1 

-0.157413 -0.049674 0.121708 
-0.097868 0.0184828 0.10869 
-1.6097e-17 4.488e-18 1 

-0.0822032 0.0085231 0.803479 
0.0236996 -0.086361 -1.54221 
3.29966e-19 3.79864e-18 1 

-0.198794 0.00325951 -0.447024 
0.0164606 -0.00445257 -0.256076 
-5.19643e-18 -8.80919e-18 1 

-0.0730634 -0.00318687 -0.270985 
0.0239978 -0.14309 0.411326 
4.50101e-18 5.51222e-18 1 

-0.0980405 0.0115401 -0.280232 
0.058802 -0.0645702 -0.245102 
3.47595e-18 3.06701e-18 1 

-0.0735111 -0.496552 0.0753564 
0.186519 0.095855 0.395602 
-6.15137e-18 1.79635e-17 1 

-0.102642 0.0561731 0.242621 
-0.0124853 -0.0246171 0.288473 
3.34236e-18 -1.6388e-17 1 

-0.0432084 -0.0232617 -0.00247618 
-0.0504831 -0.12459 -0.211821 
-8.00528e-18 -2.17413e-17 1 

-0.132281 -0.0165217 -0.0441946 
0.0147604 0.0269312 0.0407176 
2.69306e-19 -6.79997e-18 1 

-0.0732077 0.00571911 -0.715954 
0.0123888 -0.0555095 0.335081 
-3.65254e-20 8.13494e-18 1 

-0.0904467 0.0439945 0.264749 
-0.079316 -0.0353117 0.205484 
4.28209e-18 1.39113e-18 1 

-0.0893022 -0.0332082 0.205825 
0.0682819 -0.0419514 0.0744336 
-8.362e-18 1.63961e-19 1 

-0.070232 -0.0263144 -0.108423 
0.00743611 -0.018429 2.37837 
7.2753e-18 -3.01444e-18 1 

-0.0752836 0.0296029 -0.0631864 
-0.0351977 -0.079145 -0.163464 
-2.06493e-19 -1.63473e-18 1 

-0.0619812 -0.024139 -0.0459728 
-0.0420363 -0.018458 -0.0168055 
-6.34331e-18 -1.50722e-17 1 

-0.252441 0.0114431 0.261679 
-0.0318316 0.0444299 0.325271 
-5.02078e-18 -1.91268e-18 1 

-0.0524675 -0.0268998 0.591965 
-0.00592418 -0.0877479 -0.130005 
-6.73114e-19 8.34813e-18 1 

-0.0597884 0.0226491 -0.0205598 
-0.0233851 -0.105983 0.159004 
-7.68242e-18 1.75977e-18 1 

-0.056859 0.000413734 0.00350683 
-0.0208064 -0.0631069 -0.0390283 
-7.33353e-18 -2.75802e-18 1 

-0.166239 -0.00568109 0.0785261 
-0.015463 -0.0290292 0.112599 
-1.8263e-17 -1.69394e-18 1 

-0.0524342 0.000620501 0.0415223 
-0.0231345 -0.105912 -0.000586804 
-4.17116e-18 3.60471e-18 1 

-0.13426 0.0409227 -0.247137 
-0.0725446 0.0128052 -0.491523 
4.97191e-18 -2.93424e-18 1 

-0.134406 -0.12066 -0.569615 
0.000824882 0.0557631 0.619291 
1.11816e-17 2.07016e-18 1 

-0.0805705 -0.0512469 0.0809773 
-0.00196011 -0.0302286 -0.271904 
1.28185e-18 -1.49549e-18 1 

-0.124132 -0.161283 -0.170838 
0.0829115 -0.0189335 -0.319236 
-1.59212e-18 2.09293e-18 1 

-0.0851383 -0.028201 0.0188236 
0.0132263 -0.0121985 0.110042 
3.62362e-18 -9.37415e-19 1 

-0.104285 0.0370161 0.0740098 
-0.0193728 -0.0499464 -0.0147506 
1.4493e-17 -2.09545e-17 1 

-0.0966278 -0.00281352 -0.768401 
-0.0224138 -0.0772923 -3.33164 
2.47449e-18 1.28754e-18 1 

-0.163697 -0.0108025 -1.33358 
0.0238597 0.032236 0.952244 
-2.70873e-18 -2.05025e-18 1 

-0.0996642 -0.0119353 0.0701617 
0.127895 0.0838307 0.224414 
-1.54986e-17 1.85513e-17 1 

-0.074449 -0.0284732 -0.20294 
-0.00431644 -0.107787 -0.00649487 
2.11434e-18 3.06547e-17 1 

-0.0384349 0.0191603 -0.0193431 
-0.00279908 -0.137379 0.0369994 
7.88496e-18 -2.51004e-17 1 

-0.0643399 0.0334066 0.0287721 
-0.0638897 -0.0854186 -0.0794454 
-1.81974e-18 6.91815e-18 1 

-0.0765939 0.356199 -0.111371 
0.097967 0.0825669 -0.237299 
3.63311e-18 -2.43587e-17 1 

-0.0773174 -0.0640594 -0.33145 
0.0215164 -0.0043171 -0.27572 
-1.14376e-17 1.50284e-17 1 

-0.0782857 -0.0837931 -0.261326 
-0.00233294 -0.0437787 -0.0706858 
-1.26032e-17 3.04565e-18 1 

-0.120673 0.048168 -0.237989 
0.0120432 -0.0569087 0.139904 
1.11655e-17 4.89716e-19 1 

-0.0918968 -0.0328583 -0.0627275 
0.0195085 0.0115514 0.115535 
2.88289e-18 6.88783e-19 1 

-0.168281 0.0211719 -0.132191 
-0.00013817 -0.0190651 0.174231 
2.22713e-17 -1.60603e-17 1 

-0.159947 0.0932635 0.0414983 
0.00151003 -0.0816544 -0.0156454 
-6.22533e-19 -5.31547e-18 1 

-0.109052 -0.0710329 -0.0330724 
0.0979718 0.0338923 0.371215 
-3.92573e-18 6.65804e-18 1 

-0.088564 0.00042447 -0.272625 
-0.0408643 -0.0914319 0.52679 
-8.03363e-18 6.39522e-18 1 

-0.136216 -0.0115285 0.0537009 
-0.0269672 -0.0824442 0.0729856 
-1.59293e-17 -3.22378e-18 1 

-0.176939 0.14365 -0.203959 
-0.0971952 0.0357159 0.137163 
-1.52798e-17 1.29647e-17 1 

-0.0598151 0.021024 -0.110765 
-0.0156076 -0.0852862 0.192961 
-1.15084e-18 -3.31583e-18 1 

-0.0682533 -0.0243793 -0.0638118 
-0.063903 -0.0303833 0.139659 
-3.56937e-18 -2.64398e-18 1 

-0.0636862 -0.0251949 0.0191054 
-0.0383036 -0.0613088 -0.148225 
-4.13369e-18 -7.51281e-18 1 

-0.0816063 -0.00335726 -0.282834 
-0.00470301 -0.054856 0.233711 
1.32379e-18 7.16217e-18 1 

-0.0350838 -0.00511215 0.122174 
-0.0303015 -0.0743099 -0.0859739 
-2.1139e-17 1.68151e-18 1 

-0.507232 -0.133369 -0.921916 
0.143022 0.126508 0.82152 
1.10443e-17 2.96231e-18 1 

-0.072681 0.0713025 -0.205284 
-0.0494135 -0.0446946 -0.0133862 
-6.494e-18 4.98888e-18 1 

-0.24368 -0.123648 0.389603 
0.136479 0.0537493 -0.173181 
8.55299e-18 1.67445e-18 1 

-0.126315 0.0233473 0.153291 
-0.00815632 -0.0292608 0.0952935 
-2.22115e-18 8.33289e-18 1 

-0.614285 -0.524126 0.182109 
0.129367 0.155582 0.304474 
-2.58101e-18 8.24724e-18 1 

-0.0377072 -0.0307781 0.00467883 
0.039488 -0.0161678 0.0684811 
1.11866e-17 -1.00853e-17 1 

-0.0567607 0.00629 -0.0181611 
0.00417999 -0.0157636 -0.0968424 
5.08184e-18 9.11006e-19 1 

-0.0723175 0.0299178 -0.205884 
-0.0937455 -0.0393264 -0.0140323 
-2.82718e-18 -3.17079e-18 1 

-0.155452 -0.0245692 -0.177721 
0.0299064 -0.0233519 -0.295817 
-9.04641e-18 -1.60101e-17 1 

-0.538918 0.546584 -0.161836 
-0.330649 0.396741 0.294428 
-8.42582e-18 1.32629e-18 1 

-0.406779 15.5875 1.15301 
-0.0015966 0.216994 -0.456318 
-5.56923e-18 -1.94555e-16 1 

-0.0831744 -0.00439884 0.223213 
0.084492 -0.0870189 -0.200078 
-5.16099e-18 -3.67393e-18 1 

-0.143696 0.00613523 -0.1574 
0.0235458 -0.0605378 -0.0326505 
-9.82344e-18 -6.40919e-18 1 

-0.0899315 0.0176675 -0.172835 
0.0109638 -0.0725213 -1.7831 
6.7797e-18 1.54151e-18 1 

-0.0689436 -0.0443213 0.055708 
0.0460925 -0.0406052 -0.083109 
3.39051e-18 -6.65061e-18 1 

-0.0653347 -0.000382608 -0.0224033 
0.0335515 -0.0698266 0.281587 
-3.09992e-18 0 1 

-0.580922 0.591533 -1.7728 
0.211939 0.180936 5.61281 
3.32443e-18 -2.93598e-18 1 

-0.12442 -2.62526e-05 -0.032563 
-0.0787495 -0.0146027 -0.0354445 
-1.61825e-17 3.66155e-18 1 

-0.0730521 0.0104784 0.159483 
-0.00176246 -0.0172928 -0.161229 
6.07842e-18 2.93067e-18 1 

-0.0937623 0.0584593 -0.128304 
-0.00251559 0.147491 -0.327723 
-4.35841e-18 -4.88157e-17 1 

-0.0849476 0.0392332 0.0128667 
-0.0453758 -0.0561192 -0.0265927 
-5.46338e-18 5.56647e-19 1 

-0.156979 0.164461 -0.236436 
-0.0370901 -0.00955699 -0.105208 
5.32313e-18 7.16203e-18 1 

-0.519536 0.910262 -0.214436 
0.0374683 0.180809 -0.469313 
-1.00041e-17 -1.07702e-17 1 

-0.0600699 0.0610771 -0.2638 
-0.0982548 -0.00276023 0.00780511 
-1.59069e-18 -6.5395e-18 1 

-0.0610507 -0.0309924 0.0945082 
0.00440225 -0.0357935 -0.758845 
-1.26167e-17 -1.15588e-18 1 

-0.103419 -0.0285245 -0.100109 
0.0149699 -0.0286458 0.0899835 
2.73571e-18 -1.81552e-18 1 

-0.0928307 -0.0108458 -0.343276 
0.0162889 -0.0347212 0.530969 
6.64123e-19 4.49943e-18 1 

-0.112076 0.00555388 0.0976944 
0.00611308 -0.0453851 0.128197 
2.43495e-18 -3.86905e-18 1 

-0.0686032 -0.0277271 -0.122948 
0.0183756 -0.0760991 0.530613 
-2.64214e-18 -3.12805e-18 1 

-0.0991376 0.00580642 0.205461 
0.0309591 -0.0579199 0.0406526 
-3.90975e-18 -1.02888e-18 1 

-0.419325 0.0297534 0.396292 
-0.0725574 0.0608832 0.15729 
-6.29099e-18 7.2021e-18 1 

-0.0842869 0.0205923 -0.484517 
-0.0469958 -0.0363959 -0.606823 
8.4753e-18 -3.95312e-18 1 

-0.097605 0.0316494 0.0866252 
0.018643 -0.101605 -0.0196528 
3.22911e-18 -7.3942e-18 1 

-0.125442 0.0115949 -0.298588 
0.0307972 -0.0688342 0.0315327 
5.89076e-18 1.50083e-18 1 

-0.0902241 0.044208 -0.150461 
0.0292101 -0.0707437 -0.422004 
-6.37111e-19 -9.29143e-18 1 

-0.0747387 0.017447 0.654517 
0.0195184 -0.0449695 -3.16967 
2.27972e-18 6.01469e-18 1 

-0.0630678 0.0270102 0.00329011 
-0.00056249 -0.120851 0.0291637 
4.14318e-18 3.5513e-18 1 

-0.124827 -0.00949434 0.11973 
0.0198237 -0.0101478 -0.119269 
-1.12279e-18 -9.25144e-18 1 

-0.0851244 -0.0627717 -0.0464356 
0.032892 0.0382819 0.0274027 
-9.51265e-18 -4.8058e-19 1 

-0.0715102 -0.0155285 -0.471748 
0.0145935 -0.0171229 0.217709 
-1.63908e-18 -3.23199e-19 1 

-0.0870885 -0.030385 -0.0450861 
0.0254232 -0.0232177 -0.0451876 
7.01961e-19 -7.55443e-18 1 

-0.0617164 0.0256697 -0.0447625 
0.0539356 -0.0573117 -0.0763194 
-6.51429e-19 4.06746e-18 1 

-0.0975852 0.0139815 -0.185291 
0.0184475 -0.0723801 0.0219061 
-1.24663e-18 1.85819e-18 1 

-0.0700345 0.0145109 -0.161395 
-0.0381193 -0.0175673 -0.228569 
2.13976e-17 4.45705e-18 1 

-0.356808 -0.0941446 0.149611 
0.14037 -0.00411754 0.276402 
-8.24048e-18 5.88606e-19 1 

-0.274175 0.239765 0.412315 
-0.11434 0.0401494 0.0781465 
-2.85767e-18 -1.50822e-18 1 

-0.0690439 0.0363286 0.025744 
-0.0314131 0.00389468 -0.02329 
-2.57914e-18 5.47048e-18 1 

-0.0745831 -0.060712 -0.142165 
0.0134239 0.00482662 -0.149229 
1.25653e-18 -2.06571e-18 1 

-0.0687584 0.0035729 0.0369987 
-0.0195 -0.0673159 2.13614 
1.93298e-18 6.22827e-19 1 

-0.0754101 0.0300714 -0.223918 
-0.0223448 -0.124686 0.242569 
-3.24427e-18 7.19319e-19 1 

-0.111005 -0.0604429 -0.10037 
-0.0320182 -0.0327952 0.0787585 
-5.38062e-18 7.2611e-18 1 

-0.184791 0.0262682 0.428904 
-0.0489406 0.0456921 0.761299 
7.18178e-18 -7.46527e-18 1 

-0.0596712 -0.0397129 0.0308861 
0.0211452 -0.0317186 -0.142713 
1.32529e-17 1.869e-18 1 

-0.0705349 0.00570812 -0.608803 
0.00307537 -0.0489413 1.3386 
2.11831e-18 -7.06103e-19 1 

-0.121739 -0.0960711 0.25466 
0.103229 0.0445101 -0.157404 
-1.00952e-17 -3.25753e-18 1 

-0.195028 0.113604 -0.238588 
-0.0776791 0.0978203 0.188545 
-5.134e-18 -2.27363e-18 1 

-0.0815235 0.00614253 0.0965506 
0.0473378 -0.00781525 0.688062 
3.31455e-19 -4.78968e-18 1 

-0.382418 0.353181 -0.245458 
0.157895 -0.00507916 -0.102238 
-1.53974e-17 -9.44736e-18 1 

-0.113217 0.0119229 0.234726 
-0.120223 0.0366906 -0.081423 
-4.67094e-18 6.95527e-18 1 

-0.0928723 0.0272679 0.190745 
-0.0425433 0.0674201 -0.0952717 
-1.4991e-18 -5.99639e-18 1 

-0.201053 0.178859 0.142949 
-0.0633026 0.0371106 0.49908 
-1.08398e-17 -2.92607e-18 1 

-0.0925817 -0.014355 0.212124 
0.00236522 -0.0597023 -0.18466 
3.72081e-18 3.01687e-18 1 

-0.0795921 -0.0191393 -0.0339072 
0.0155788 -0.0532524 0.12134 
3.75091e-18 -8.62104e-18 1 

-0.0508803 -0.0346628 0.00923736 
-0.0383304 -0.0656723 -0.0620558 
1.31404e-17 -2.98144e-18 1 

-0.116943 -0.0570071 0.289539 
0.0288804 -0.0304189 -0.203741 
-5.8888e-18 -5.51495e-18 1 

-0.0618559 -0.0376683 -0.0369879 
0.0528046 -0.0230869 -0.0241378 
-1.06149e-17 -1.46794e-17 1 

-0.0689929 -0.0531671 0.0983373 
0.021954 -0.0375986 -0.0825062 
-2.37981e-18 9.3859e-18 1 

-0.0497212 -0.0417638 -0.178184 
0.0398842 -0.024975 0.138469 
-7.06829e-18 8.32341e-18 1 

-0.035675 -0.0110307 -0.0681338 
0.00840608 -0.0387887 -0.0840824 
-8.93624e-18 -4.67629e-18 1 

-0.143649 -0.511505 -0.570533 
0.146732 0.204041 0.44596 
5.28233e-18 1.46465e-17 1 

-0.302083 0.0745497 0.593885 
-0.0366837 -0.0669748 -0.121113 
1.15027e-17 -6.84215e-18 1 

-0.0814053 0.012061 0.0073459 
0.0235456 -0.0874217 0.311562 
-8.0937e-18 1.49206e-17 1 

-0.0630463 -0.000335858 0.192173 
0.00481611 -0.0419543 -0.00599304 
9.95267e-18 -2.66373e-19 1 

-0.0707922 0.0323075 0.0786681 
-0.0363708 -0.0320237 0.0732092 
-4.53789e-18 -6.66261e-18 1 

-0.0694156 -0.0197992 -0.245078 
0.00901603 -0.0279953 0.222271 
-8.5341e-18 3.23166e-18 1 

-0.190953 0.0273315 0.158241 
0.0354229 0.0270508 -0.165204 
-1.3901e-17 1.04821e-17 1 

-0.106957 -0.0545813 -0.209252 
0.0141731 -0.047155 0.109027 
-5.55704e-18 6.54883e-18 1 

-0.0839889 0.00312368 -0.196477 
0.0245157 -0.0295801 -0.39234 
-6.38809e-18 1.25546e-19 1 

-0.0729136 -0.00223003 0.120035 
-0.0106317 -0.0707941 0.129797 
-1.38173e-17 -7.22557e-18 1 

-0.162341 -0.0734022 -1.64744 
0.0557576 0.00796405 -0.130704 
6.15261e-18 1.12392e-17 1 

-0.216866 0.00850306 1.12692 
0.0937725 0.109989 -0.687645 
-1.32657e-18 5.44163e-18 1 

-0.0777745 -0.0199292 -1.71898 
0.000273161 -0.0291717 -2.32733 
-1.65712e-18 1.32716e-18 1 

-0.188933 -0.13438 -0.262113 
0.0729412 0.24875 -2.74032 
6.10479e-18 -1.00138e-17 1 

-0.469007 0.260232 0.265158 
-0.0549905 0.0856859 0.828367 
-5.71355e-18 8.90251e-18 1 

-0.145275 -0.00495399 -0.02715 
-0.00574191 -0.0268566 -9.25053 
2.10855e-18 -8.83488e-18 1 

-0.118902 -0.0304373 -0.12909 
-0.00546855 -0.0611653 0.167723 
-4.9586e-18 -1.91052e-18 1 

-0.127469 0.00192358 0.574765 
-0.00154073 0.0456186 -0.0761981 
-1.55077e-18 3.06782e-18 1 

-0.118197 0.0113552 0.993455 
0.00863196 0.00200355 0.706394 
-9.77994e-19 -2.16495e-18 1 

-0.13384 0.0743306 -0.917638 
0.0505075 -0.010759 -0.489429 
2.48854e-18 -3.28568e-18 1 

-0.767354 -0.0746996 -0.776706 
-0.357999 0.0695598 0.336446 
-5.6376e-18 -1.2809e-17 1 

-0.0431905 0.0305597 -0.0332923 
-0.00279851 -0.078905 -0.00668422 
1.45957e-17 8.5561e-18 1 

-0.0771444 -0.00638887 -0.0283397 
0.00982759 -0.0369059 -0.0746254 
-7.49589e-18 2.34373e-18 1 

-0.0565341 -0.0615172 -0.0529661 
0.00979394 -0.111169 -0.00655554 
2.46703e-18 -8.76157e-18 1 

-0.0827577 0.024368 0.0206854 
-0.0271265 -0.0832827 0.092626 
1.60878e-17 -1.63525e-18 1 

-0.0523113 0.00894724 -0.00385735 
-0.0110135 -0.0630287 -0.0174201 
5.28792e-18 3.51241e-18 1 

-0.0551315 -0.0315348 -0.186208 
0.0293137 -0.0496144 -0.606379 
-7.85634e-18 -1.03262e-17 1 

-0.0936527 0.0265103 0.00493857 
0.0533034 -0.0325474 0.0239982 
9.50988e-18 1.34642e-18 1 

-0.134691 -0.0449083 -0.362392 
-0.0306018 -0.00815583 0.672585 
-7.0653e-18 4.00061e-18 1 

-0.109741 0.051844 -0.110034 
-0.0549096 -0.0243787 0.00740288 
-1.14678e-19 -1.05504e-17 1 

-0.0954239 0.000168042 0.0793786 
-0.0221253 -0.0601848 0.143844 
-4.95627e-18 4.58914e-20 1 

-0.17753 -0.192582 -10.8212 
0.183345 -0.0177224 -5.43227 
-1.23603e-18 3.04129e-18 1 

-0.0911238 -0.00646145 0.0431007 
-0.0246952 -0.0481203 -0.164752 
2.83648e-18 -2.82742e-18 1 

-0.0637772 -0.0225562 -0.100005 
-0.036442 -0.0184665 -0.421474 
1.11125e-17 -3.04339e-18 1 

-0.102473 0.0769941 -0.0447349 
-0.0391647 -0.089252 -0.0527888 
8.96014e-18 -6.61054e-18 1 

-0.0534052 0.0286528 -0.333427 
-0.0951648 -0.034986 0.184801 
3.58067e-18 -5.05886e-19 1 

-0.105574 0.00758161 -0.0298565 
-0.0639468 -0.120879 0.162927 
2.42714e-18 -3.94411e-18 1 

-0.0558316 -0.00691309 -0.0257734 
-0.0361554 -0.0665882 0.0123392 
8.43226e-18 -6.65848e-18 1 

-0.0696292 -0.00357844 -1.12607 
0.0136422 -0.0578238 -0.533808 
-1.62743e-18 5.36841e-18 1 

-0.167665 -0.0761619 0.125664 
0.155803 0.0244981 -0.32411 
-2.36451e-19 -6.62063e-18 1 

-0.103793 -0.00273681 0.110232 
-0.0630442 -0.0527046 0.128752 
7.72049e-18 4.57995e-18 1 

-0.106084 -0.0322375 0.80342 
-0.0227991 -0.0721463 -0.224491 
-2.05442e-18 -7.00609e-18 1 

-0.142749 -0.0438677 -0.131661 
0.0839887 -0.00579848 -0.0195591 
-1.88266e-17 1.25056e-17 1 

-0.111555 0.0305802 -0.087225 
-0.0663608 -0.00215837 -1.04264 
-4.56266e-18 2.51489e-18 1 

-0.27835 0.101107 0.244825 
-0.0757498 0.00165411 -0.36472 
-1.18817e-17 6.61704e-18 1 

-0.1222 -0.0857082 -0.0920212 
0.15749 -0.0191357 0.0404532 
3.84042e-18 -2.17287e-18 1 

-0.0806216 -0.0743303 -0.075527 
0.0317216 -0.0570708 -0.0191795 
-1.1519e-18 6.50821e-18 1 

-0.335355 -0.258118 0.587349 
0.121743 0.075991 -0.0156174 
-1.33737e-17 -1.47071e-17 1 

-0.116835 -0.0605348 -0.0237459 
-0.0621584 0.061497 0.801567 
-5.64363e-18 6.8039e-18 1 

-0.2465 0.175622 0.541329 
-0.103756 -0.021413 0.0549831 
-1.1614e-18 -4.8243e-18 1 

-0.102097 0.0121513 0.276284 
-0.0296763 0.0371359 -0.36556 
3.90262e-19 -6.56941e-18 1 

-0.123178 0.0392925 -0.256464 
-0.0300067 -0.0301085 -0.232866 
1.56702e-17 1.09556e-17 1 

-0.0414806 0.0299416 0.00543408 
-0.0052361 0.0454019 0.0217348 
-2.9333e-18 1.5483e-18 1 

-0.0834668 -0.042368 -0.0652281 
-0.0477835 -0.0686877 0.293466 
5.45621e-19 3.36862e-18 1 

-0.177347 0.0381693 -0.237491 
0.0268607 0.049681 0.392445 
-3.03275e-18 4.36582e-18 1 

-0.208278 0.0215505 -0.29175 
-0.0481048 0.060607 0.0355745 
-4.93041e-18 -7.75763e-19 1 

-0.0843017 0.00548836 -0.147869 
-0.0486106 -0.0107277 0.156647 
-2.15524e-18 -1.4071e-17 1 

-0.364193 -0.431914 0.00984104 
0.177831 0.0495273 -0.256107 
-2.56858e-18 1.10229e-17 1 

-0.144465 -0.157333 -0.117715 
-0.0508602 0.128229 -0.825871 
-1.02748e-17 1.58861e-17 1 

-0.0867747 -0.0479608 -0.0317308 
0.0134614 -0.092158 -0.0642264 
1.2427e-17 1.86405e-17 1 

-0.0521959 0.0325002 -0.0661954 
-0.0446848 -0.015993 -0.0235063 
-1.30014e-17 7.7314e-19 1 

-0.0982347 -0.0116652 -0.183995 
0.00930271 -0.00762146 -0.480279 
4.62083e-18 2.00098e-18 1 

-0.0508972 0.00791588 0.159902 
0.00100644 -0.031929 -0.114961 
9.99529e-18 -3.48466e-18 1 

-0.618902 0.216716 0.200642 
0.366951 0.251832 -0.506204 
1.61191e-17 9.91558e-18 1 

-0.0748469 -0.0292437 -0.0892267 
-0.0308644 -0.0200932 0.0628984 
1.5654e-18 3.18387e-18 1 

-0.0436605 0.0168045 -0.0493416 
-0.0467926 -0.0459192 0.0949063 
-3.16607e-18 -6.28942e-18 1 

-0.112978 -0.011316 0.055634 
0.0140142 -0.0451421 -0.538389 
2.61789e-18 -2.60275e-18 1 

-0.0647015 0.0723971 0.0637829 
0.0551641 -0.072009 -0.398834 
-7.1447e-18 1.86684e-18 1 

-0.0629426 -0.00520928 0.157132 
-0.0116737 -0.0241373 0.0621967 
2.73197e-18 -1.43611e-18 1 

-0.115761 0.0289227 0.263268 
-0.00849435 0.0145522 0.0619424 
4.77249e-18 -7.01794e-18 1 

-0.0713093 -0.0365108 -0.187153 
0.0297313 0.00957229 -0.229908 
-2.73439e-17 1.38641e-17 1 
