# vtk DataFile Version 3.0
Output file generated by Yade's KinematicLocalisationAnalyser
ASCII
DATASET UNSTRUCTURED_GRID

POINTS 13483 float
619.295 30.6206 -0.405286
770.381 63.9889 0.544953
121.09 6.09828 -0.477296
798.519 4.31923 0.562333
508.079 7.87344 -0.273017
319.201 35.3394 0.256968
158.024 6.88963 0.437927
579.813 10.3481 0.168288
504.263 23.7722 -0.139545
725.531 13.5689 0.551342
212.926 8.86523 -0.121701
260.477 6.33077 -0.257359
667.682 36.4949 0.161749
644.922 15.8022 -0.0763434
138.441 17.2168 0.454611
224.256 34.5881 -0.394265
220.397 12.9527 -0.28793
292.994 9.65008 0.392399
345.615 33.349 0.434935
532.35 8.61672 0.350577
417.631 36.9668 0.0962093
602.106 45.8826 -0.25921
788.764 46.653 -0.45727
711.39 52.2966 -0.525934
466.413 16.2711 0.284098
244.144 44.2386 -0.12203
499.49 28.5626 -0.4839
596.67 20.5155 -0.242556
45.3321 15.7225 -0.459738
734.428 56.7172 -0.334411
490.663 4.90382 0.323573
16.9248 24.1137 -0.316852
782.079 68.3883 0.304678
503.851 2.6029 0.476401
78.6998 44.8416 0.108957
529.894 31.9275 -0.394002
538.604 16.6479 -0.445319
348.841 22.6855 0.194858
541.633 26.005 -0.301105
356.059 33.6583 0.467802
244.412 14.6044 0.307682
441.592 36.6683 0.0634781
684.834 9.93769 0.158758
195.059 6.24681 0.371075
55.8606 7.04807 -0.101953
69.076 8.80315 -0.272313
699.31 8.492 0.686175
23.3979 11.6067 0.282246
622.713 46.6351 -0.358001
691.193 29.9327 0.33278
174.615 32.4669 -0.321115
771.694 50.6548 -0.163843
34.9968 28.2987 0.121066
542.81 3.04022 0.319765
143.501 7.45721 -0.50516
605.228 34.8937 0.483958
511.433 28.1597 0.123769
176.851 0.950144 -0.272923
32.8146 2.38273 0.312258
354.069 17.9575 0.266204
633.88 48.5591 -0.13568
470.06 33.6946 0.188052
406.073 1.0284 0.197634
709.825 10.804 0.358705
26.7752 43.456 0.235732
260.059 30.8638 -0.32116
724.473 8.71229 -0.314321
688.741 52.4555 -0.361919
424.728 8.59696 -0.515119
580.572 3.64921 -0.331795
749.062 40.956 0.42044
132.101 7.63959 0.290285
507.17 25.8101 -0.134678
486.483 14.7213 -0.173975
299.128 16.7315 -0.336394
20.6023 13.5999 0.225255
793.311 65.0646 0.313143
338.128 39.1259 -0.286603
686.861 25.6537 0.314976
699.574 13.1087 -0.306922
786.688 12.8897 -0.265232
473.402 34.441 -0.171067
93.2733 39.5158 -0.299347
702.95 38.364 -0.259207
662.367 43.8852 0.106513
795.757 50.95 0.108469
780.33 0.744121 -0.584762
295.546 28.8664 0.454565
634.776 6.42953 -0.108199
24.3092 5.23997 0.5459
134.644 38.2638 -0.14574
522.409 15.4298 0.181617
781.012 39.6657 -0.496782
198.323 28.6811 0.259675
44.6158 34.6182 0.291974
502.723 1.35467 0.135579
239.6 8.89169 -0.36983
751.66 51.3477 0.267
773.126 39.346 0.265262
367.725 20.7831 -0.267339
166.214 26.9819 -0.470335
560.493 39.3152 0.418205
387.388 15.6997 -0.478983
421.816 29.9927 -0.130803
385.374 4.57147 0.401802
558.796 11.0784 -0.0839241
799.199 18.4758 0.223138
81.0524 39.7845 0.397284
341.67 4.98831 -0.199662
573.304 9.57318 -0.371369
367.471 44.0595 0.448056
25.665 25.4638 -0.494091
30.4983 5.67731 0.348257
580.808 34.3676 -0.455019
515.002 26.2924 -0.142609
26.415 37.4255 0.411064
93.7516 30.9199 -0.247682
331.385 16.1255 -0.259465
614.276 19.5309 -0.131502
484.876 38.6455 0.317714
741.525 8.58639 -0.410134
734.182 5.9736 -0.19283
395.427 37.282 -0.0981108
651.759 26.9596 0.091763
242.937 16.9157 0.464575
336.974 3.87347 0.459717
104.697 32.0193 -0.386623
117.721 24.2597 0.260787
555.718 39.5037 -0.0907843
312.413 18.8611 0.502677
729.457 57.4669 -0.119513
691.986 51.0782 -0.133788
492.073 20.5703 -0.395404
771.413 18.6455 0.295907
438.361 24.2025 0.225134
282.965 24.7754 -0.295984
691.068 37.7452 -0.271378
285.109 28.8291 -0.401212
590.571 12.3786 -0.194002
339.143 35.8217 0.20456
516.721 12.1989 0.525474
375.318 31.6821 0.0921045
440.534 16.8798 -0.106221
325.255 42.2623 0.429106
194.525 30.0589 -0.12188
775.034 64.613 -0.0259191
796.688 20.3528 -0.283177
6.00184 12.4916 0.432627
443.886 22.98 -0.386981
38.5858 22.7827 0.078284
385.465 31.478 -0.347053
405.233 24.5322 -0.269311
75.8926 11.8845 -0.483992
52.5765 33.3795 0.427031
231.029 13.5463 0.420049
634.651 40.0464 0.421372
593.016 22.1279 -0.521367
75.9851 20.9235 -0.493922
710.367 56.6717 -0.405341
763.497 2.41558 0.603645
680.268 47.9462 0.48463
704.941 2.37459 0.443491
564.975 27.9837 0.424328
603.463 46.7739 0.45854
526.071 18.77 -0.421095
797.087 2.82268 0.405904
228.846 24.6659 0.111869
130.115 35.2342 -0.200023
253.25 6.54153 0.405475
95.9468 4.47214 0.270091
65.362 10.0315 0.23278
282.693 36.2631 -0.33528
17.9179 25.5362 0.377554
571.067 19.1917 -0.454981
622.781 41.624 0.214043
475.948 21.1601 -0.370972
798.842 78.1859 0.395687
417.842 8.65134 -0.115264
448.002 37.0004 -0.0778947
551.355 3.52973 -0.183609
23.5803 23.0788 0.396999
593.15 4.53578 0.437079
560.873 4.3531 -0.296051
211.118 11.3584 0.474647
436.659 16.2242 -0.248224
319.607 6.36274 0.343614
398.809 18.8909 -0.339388
738.132 51.5985 -0.0924263
196.397 26.0279 0.457493
773.542 6.4652 -0.525627
737.967 47.6427 0.304506
393.997 10.3098 -0.156605
723.046 2.22803 -0.575797
621.818 26.2384 -0.407862
746.049 21.6642 -0.44245
443.318 43.7269 -0.301449
511.501 12.8115 0.455666
477.871 44.7953 -0.228128
458.302 8.69177 0.122611
683.254 48.7329 0.302036
681.015 42.375 -0.374225
196.802 39.0727 0.348101
784.64 12.0428 -0.154048
605.065 46.6355 -0.257827
11.4799 17.3512 0.240861
419.452 25.0506 0.33787
191.974 23.1876 -0.409588
94.9396 40.3365 0.217007
779.777 37.1296 -0.519971
676.847 52.5074 -0.224524
327.682 25.6279 0.341439
548.226 10.4119 0.315101
83.7784 45.0955 0.176968
254.419 26.0229 -0.455693
574.221 24.55 0.346914
501.899 18.5386 -0.409968
269.952 0.888894 -0.344773
569.743 41.1879 -0.382746
549.194 41.3248 -0.487703
496.03 34.0372 -0.377649
514.784 1.68784 -0.668207
712.238 24.3087 -0.409386
183.953 12.1859 -0.169163
515.111 38.4042 0.471837
581.944 41.1188 0.130147
74.5009 0.950281 0.273572
258.661 4.74806 0.178929
795.046 21.4825 0.175921
785.895 14.7169 -0.540916
800.511 24.11 -0.568305
312.035 8.6235 -0.229004
746.987 32.8243 -0.468012
419.038 42.0557 -0.336075
462.623 0.81131 -0.399476
669.283 43.731 -0.511753
27.2497 31.1253 -0.292789
340.208 41.7171 -0.559215
259.524 2.88574 0.337761
787.191 68.6366 0.198841
727.823 69.7811 -0.113387
295.538 11.0215 0.23896
687.211 36.4417 -0.0765991
575.21 2.54154 0.267103
558.506 6.52806 0.418627
99.0145 18.6004 -0.520903
311.958 1.03748 -0.227231
353.169 2.27393 -0.359175
13.9173 7.67724 0.424591
4.50575 31.6284 0.282157
165.883 18.9037 0.412633
69.7738 42.0924 0.223177
68.2174 29.2973 -0.3326
436.562 14.3708 -0.451045
378.389 35.1945 -0.482891
769.558 51.4447 0.130061
19.6027 4.01996 -0.271085
72.1608 6.87198 0.138814
644.25 39.2407 -0.147662
303.184 0.921922 0.365771
375.814 15.93 -0.132623
242.325 4.6241 -0.399119
668.929 26.9509 -0.164924
465.798 8.47465 0.414766
746.952 30.1674 -0.352126
651.387 30.6473 -0.302419
685.695 23.9654 -0.103166
433.67 27.7942 0.505179
104.543 45.3369 0.318044
559.246 43.0988 -0.090143
745.705 15.8953 0.328628
244.696 30.3307 -0.252353
32.5176 17.381 0.190033
346.473 13.8918 0.504462
110.046 40.9588 0.455207
275.538 42.6427 -0.224572
438.892 1.59936 -0.317414
786.233 51.9677 -0.387522
697.638 0.754019 -0.53885
342.194 3.42876 0.554658
309.018 26.7826 -0.164026
476.925 41.5348 0.22786
83.5938 8.06644 0.364296
203.276 45.2272 0.377015
776.811 44.507 0.373763
510.262 40.8038 -0.10281
205.723 41.188 -0.255891
165.378 42.5904 0.381015
798.728 47.0573 -0.458897
797.588 18.6389 -0.573437
626.243 4.19466 -0.660197
195.469 24.5576 -0.121489
566.682 28.8358 -0.115717
568.586 28.3431 0.277706
422.389 5.6731 -0.141541
497.74 0.919516 -0.305258
766.869 52.8498 -0.534824
87.1134 31.5919 -0.220443
674.51 23.0866 -0.49509
282.584 15.484 -0.373717
9.42225 2.39536 -0.32905
128.65 36.8854 -0.196468
68.6942 23.1642 -0.499065
722.485 54.2407 0.297043
785.713 76.7097 -0.219516
190.808 28.5285 0.180773
793.181 15.8468 -0.497246
46.0233 36.716 -0.271813
92.813 29.2159 0.161081
654.281 13.4557 0.413458
427.416 17.3305 -0.551918
535.549 16.824 0.111743
245.398 28.3914 -0.0285939
642.111 4.58786 0.397577
801.055 19.3005 0.407357
30.1428 32.0209 -0.284913
278.414 7.66312 0.194386
228.654 15.1709 0.257761
1.06163 36.1993 0.155392
232.003 14.608 -0.376502
217.852 10.9474 0.139159
220.604 26.4025 -0.270714
136.713 28.08 0.135699
565.348 15.0592 -0.391617
171.639 14.2613 -0.351551
781.676 66.6442 -0.3333
178.897 3.82588 0.510432
48.2425 37.9223 -0.420709
747.227 60.7183 -0.128451
289.785 32.1299 -0.402996
697.136 28.5006 0.472816
783.447 44.4007 -0.478039
310.067 9.24349 -0.104446
737.589 39.4545 0.396065
339.081 2.53091 -0.406747
429.955 23.677 0.380701
689.693 19.8364 -0.522142
108.516 12.0126 0.446114
499.457 3.77404 -0.542213
750.418 28.2995 -0.222716
90.6548 7.93691 0.233945
290.453 14.6838 0.21481
437.482 11.7043 -0.219936
795.52 3.46483 0.502284
411.107 1.99714 -0.523531
181.821 39.0038 -0.283745
748.482 11.8022 -0.412635
131.929 36.3902 -0.173911
271.348 31.6033 -0.389027
413.767 21.865 0.207414
593.126 14.0876 -0.353509
399.871 9.84605 -0.495159
471.922 27.7295 -0.405653
771.431 64.0341 -0.454614
48.5689 11.0814 -0.11412
308.395 38.231 -0.265648
392.18 27.2375 -0.350428
423.589 20.896 -0.2487
538.513 45.4701 0.356508
760.184 49.0497 0.236506
684.756 43.0195 0.395127
232.604 34.3127 -0.380376
13.6609 32.5973 -0.162279
680.095 44.1756 -0.120342
525.764 42.5586 -0.462414
236.74 39.1721 0.115779
707.675 37.4184 -0.143225
155.286 9.29474 0.212824
378.506 20.9991 0.277672
478.592 42.7224 -0.132294
427.523 19.0615 0.176224
766.987 64.351 0.331532
440.387 3.84792 0.522981
50.8032 25.5614 -0.332047
485.523 32.4647 0.351093
449.887 43.0073 0.371404
788.206 62.1479 0.252312
736.705 34.2617 -0.249384
559.645 19.208 -0.142884
779.877 58.7274 -0.450968
302.73 2.21277 -0.460078
391.127 29.4571 0.51947
29.6282 39.138 -0.307408
740.641 39.9638 -0.209797
630.464 20.0123 -0.508159
478.774 0.777339 -0.471613
129.468 4.57068 0.270269
441.105 41.1102 0.0968002
11.8373 0.917093 0.316426
795.638 6.34551 -0.205633
382.664 39.2739 0.421825
[...]
POINT_DATA 13483
TENSORS Strain_matrix float
-0.274198 0.140583 1.55442 
-0.155226 0.178841 -0.517122 
2.13455e-18 1.29929e-17 1 

-0.907466 0.272725 40.9384 
0.0942397 0.743494 65.5863 
-3.18169e-18 -1.16138e-17 1 

-0.106232 -0.0108537 0.022938 
0.00553175 -0.0606237 1.35817 
-8.26958e-18 6.79692e-19 1 

-1.18128 -0.700039 -0.334602 
0.625861 0.648592 -0.0747127 
-1.81564e-18 4.79329e-18 1 

-0.266054 -0.00599401 -0.173988 
0.0227477 0.045864 -0.421056 
1.56753e-17 1.06006e-17 1 

-0.0660087 -0.0200731 -0.0186583 
0.0264477 -0.0600892 -0.0136138 
-5.43852e-18 -5.91143e-19 1 

-0.0857304 -0.0254605 0.0979596 
-0.00781071 -0.098251 0.0402298 
-6.24789e-18 -8.07917e-20 1 

-0.132952 0.0314809 -0.0742626 
0.0724934 -0.0594264 0.0106391 
-1.0563e-17 7.47832e-18 1 

-0.030854 -0.0130985 -1.37159 
-0.0672455 0.0211474 0.184382 
-6.22263e-18 8.75753e-18 1 

-0.285442 0.393224 -0.559976 
-0.357872 -0.04304 1.74677 
6.30569e-18 -2.43377e-18 1 

-0.0591969 0.00631228 0.00689574 
-0.0156494 -0.061358 -0.0318878 
1.22201e-17 8.18966e-19 1 

-0.101292 -0.0517295 0.206574 
-0.0567208 -0.0896018 0.0678631 
5.88359e-18 5.35258e-19 1 

-0.270448 -0.0811552 0.153604 
0.112402 0.156727 -0.0484008 
-2.0105e-18 -1.37256e-17 1 

-0.238204 -0.133192 -0.0660295 
0.302293 0.0595107 0.232174 
1.15692e-17 2.05649e-17 1 

-0.128748 0.00857448 0.101909 
0.0107459 -0.075408 -0.174183 
8.77139e-18 1.81885e-17 1 

-0.0604139 -0.0164166 -0.257593 
-0.0556601 -0.0220474 0.139083 
1.86881e-18 -6.10088e-18 1 

-0.0587536 -0.0182733 0.0807018 
0.00680603 -0.096633 -0.00357566 
-1.97769e-18 5.76186e-18 1 

-0.164837 -0.0256453 0.00189496 
0.0227852 -0.0712453 -0.0385975 
-6.89881e-18 6.70447e-18 1 

-0.150213 0.052588 -0.130928 
-0.0196783 -0.0369771 -0.051031 
-1.12175e-17 -1.67739e-18 1 

-0.0844501 0.0546659 0.226066 
-0.122747 -0.0792554 0.377592 
2.61162e-18 6.51117e-18 1 

-0.158798 -0.140444 0.258487 
0.200917 0.0211845 0.0475731 
-1.14848e-17 -1.13613e-17 1 

-0.272201 0.362599 0.0492753 
-0.171182 0.123527 -0.15447 
-7.04538e-18 5.99607e-18 1 

-1.14958 0.335282 -3.5591 
0.0200967 0.594206 2.03572 
8.93282e-18 1.14646e-18 1 

-0.290772 -0.226915 44.0366 
0.461774 0.381838 17.5359 
3.63898e-18 -2.15597e-17 1 

-0.0608963 -0.036991 -0.193719 
0.102717 -0.0415352 -0.088876 
2.72812e-18 3.83642e-18 1 

-0.0918537 0.0319783 0.0198363 
-0.0654116 0.0211912 -0.122618 
-1.99895e-18 1.43918e-17 1 

-0.136324 -0.0527706 2.97788 
0.0552535 0.0506566 -3.03701 
-3.9139e-18 -9.1606e-18 1 

-0.17388 0.0919949 -0.0788223 
-0.337248 0.0869291 0.746422 
-1.67754e-18 1.5657e-18 1 

-0.102058 0.0101845 0.824519 
0.0151476 -0.0844867 -1.18175 
1.39601e-18 -2.86938e-18 1 

-0.184971 -0.485697 -0.0227071 
0.513176 0.156645 0.494471 
-6.26611e-18 -3.03336e-18 1 

-0.0966722 -0.00333285 -0.312236 
0.00566498 -0.150116 0.367704 
-8.27408e-18 3.1114e-18 1 

-0.131768 0.101922 0.698085 
-0.0836794 0.101983 0.533625 
-2.5531e-18 -8.8232e-19 1 

0.189199 -0.942666 0.220812 
0.59148 0.152988 0.347324 
7.01184e-18 1.57368e-17 1 

-0.167561 0.230692 -1.17341 
-0.0297181 0.134369 -0.639794 
1.10428e-18 -1.16486e-17 1 

-0.0767812 -0.0533115 -0.116424 
-0.0184099 -0.110482 -0.335893 
-3.60375e-18 4.04057e-18 1 

-0.363238 0.00494513 -0.573085 
-0.208075 0.096086 -0.838338 
4.6343e-18 0 1 

-0.142395 -0.0103759 -0.170412 
0.0421396 -0.0233722 -0.657526 
4.53452e-18 -3.86047e-18 1 

-0.205378 0.0485707 -0.11315 
-0.228164 0.0949556 -0.0954505 
-2.28136e-18 1.27186e-17 1 

-0.112993 0.11135 0.251439 
-0.147469 0.0366042 0.569336 
-1.45686e-18 -1.91693e-18 1 

-0.103057 -0.0246952 1.11043 
-0.0153233 -0.00730466 1.45177 
-2.55547e-18 2.5629e-18 1 

-0.0968223 0.0228318 -0.0555573 
-0.0229903 -0.0799825 -0.170147 
1.79594e-18 7.42551e-18 1 

-0.08503 -0.0816712 -0.047197 
0.00979442 -0.00422767 -0.0172276 
-3.85602e-18 2.51217e-17 1 

-0.856624 0.439859 0.144167 
-0.648543 0.544107 0.184127 
2.45182e-19 -1.23572e-17 1 

-0.088217 -0.0156854 0.436813 
-0.0112242 -0.0790702 -0.0512191 
-2.23192e-18 -7.06091e-18 1 

-0.0892812 0.0572264 -0.0613787 
-0.0324475 -0.066559 0.152181 
-7.39002e-18 -8.48905e-18 1 

-0.0789708 -0.00715881 0.0113882 
-0.0164926 -0.0613563 -0.0670497 
-9.17672e-18 6.37272e-18 1 

-0.418541 0.244061 9.03148 
-0.106359 0.0942608 5.40819 
-1.74595e-17 1.58124e-17 1 

-0.0714832 0.0139929 0.0547167 
-0.0356699 -0.116478 -0.00402348 
1.6925e-17 -2.32203e-18 1 

-0.169402 -0.0449006 0.172466 
0.0104894 0.0231155 -0.19138 
-4.57672e-18 -2.62961e-17 1 

-0.250405 0.608358 0.963547 
-0.11269 0.241555 0.725562 
-4.98386e-19 8.54451e-18 1 

-0.102544 -0.0678029 0.105894 
0.0160345 -0.018871 -0.263552 
-6.61992e-18 -6.82361e-18 1 

-0.0491026 -0.354119 -0.0126962 
0.473914 0.0219673 -0.44382 
3.228e-18 7.56109e-18 1 

-0.100876 -0.00222972 -0.0733196 
-0.011548 -0.00131535 0.132484 
-2.16769e-18 5.43664e-19 1 

-0.1378 0.042353 0.0998254 
-0.011467 -0.034407 -0.0125493 
4.4868e-18 -1.7146e-17 1 

-0.129316 -0.00855308 -1.51233 
-0.0254414 -0.071824 -2.85615 
-9.41923e-18 -4.07102e-18 1 

-0.179707 -0.0368557 -4.80824 
0.0259194 0.0406338 3.2549 
-6.86364e-18 -6.31139e-19 1 

-0.25934 0.0800912 0.128773 
0.253433 0.266698 0.330501 
2.61225e-18 -1.92151e-17 1 

-0.0980608 0.00982667 -0.139879 
-0.00439577 -0.0920606 0.0537674 
3.32741e-18 -1.43619e-17 1 

-0.0466856 0.0177654 0.00864644 
-0.0081058 -0.141077 0.0169495 
4.45512e-18 -1.66069e-18 1 

-0.0965984 -0.00986412 -0.203661 
-0.063256 -0.0436842 -0.00902674 
9.97786e-18 -1.36388e-18 1 

-0.337646 -0.334078 1.6073 
0.0835206 0.23433 1.05684 
-4.51346e-18 7.50506e-18 1 

-0.0985952 -0.151306 0.248536 
0.0755332 0.0234301 -0.0120975 
7.88163e-18 9.05029e-18 1 

-0.0998741 -0.0828288 -0.283772 
-0.00701452 -0.0465082 -0.0847299 
9.88005e-18 -1.07479e-18 1 

-0.490143 0.154445 -0.112337 
0.476067 0.164157 0.481608 
6.54624e-19 -8.83742e-18 1 

-0.147786 -0.0107377 -0.0872252 
-0.0177423 0.0358503 0.226436 
1.30253e-18 -1.10884e-17 1 

-0.206332 0.0210801 -0.0639618 
0.0188831 -0.00112109 0.234348 
5.1553e-18 5.48437e-18 1 

-0.176802 0.115828 -0.359202 
-0.215694 -0.179829 0.180447 
4.49269e-19 2.12654e-17 1 

-0.184279 0.312112 1.03019 
-0.163672 0.0625974 0.352385 
-4.31769e-18 9.73442e-18 1 

-0.13213 0.00273449 -1.29994 
-0.04412 -0.0874071 1.05407 
3.44235e-18 6.35137e-18 1 

-0.209901 0.125931 -0.0951119 
-0.199852 -0.0484541 -0.375905 
-9.52449e-18 6.25045e-18 1 

-0.459893 0.149503 0.644837 
0.187521 0.110745 -0.016707 
-5.06697e-18 -4.08638e-18 1 

-0.0863042 0.0107116 -0.11892 
-0.0110002 -0.0749021 0.162713 
3.82157e-18 9.7886e-18 1 

-0.392173 0.00711686 -0.507308 
0.0634831 0.0755575 -0.416296 
-1.01665e-17 -5.47317e-18 1 

-0.0927604 -0.0164468 0.45487 
-0.0150738 -0.0768127 -0.502494 
-1.80483e-17 -1.28917e-17 1 

-0.095507 -0.0145341 -0.566072 
-0.0085705 -0.0522038 -0.0990892 
6.38596e-18 1.03686e-17 1 

-0.070575 0.0190574 0.125127 
-0.0442802 -0.0634036 -0.0947476 
-6.43887e-18 4.88877e-18 1 

-0.227383 -0.731505 -0.289028 
0.425266 0.349351 -0.00511484 
2.73599e-18 -9.77138e-19 1 

-0.103757 0.0674538 -0.332033 
-0.0482333 -0.0234413 -0.303148 
4.09355e-19 3.05003e-18 1 

-0.430645 0.138017 1.00417 
-0.123866 0.0668312 -0.117134 
-2.68358e-18 4.3704e-18 1 

-0.183474 0.350774 0.0891164 
-0.258882 0.0635578 -0.370647 
-6.03758e-18 1.08118e-17 1 

-0.606893 -0.502709 0.484587 
0.291604 0.13759 -0.382159 
9.86309e-18 2.25098e-18 1 

-0.0763889 -0.201178 0.824145 
0.0788692 0.0589214 -0.76657 
1.0263e-17 1.24967e-17 1 

-0.0772937 0.00470906 0.0137595 
0.0157581 -0.0236799 -0.0970028 
9.83051e-19 4.12402e-18 1 

-0.183525 -0.195001 -0.696144 
0.14293 -0.00364766 -0.248565 
-1.6178e-18 1.31447e-18 1 

-0.130062 -0.236058 -0.154804 
0.219222 0.0211872 -0.248426 
-1.19462e-17 7.79663e-18 1 

-0.650911 0.677133 1.02102 
-0.275668 0.404991 0.459042 
-1.01789e-18 -2.47348e-18 1 

-0.538297 1.75776 -1.23299 
0.00348879 0.188125 -0.129481 
-9.74259e-18 4.67365e-17 1 

-0.113196 0.00984262 0.0604884 
-0.00144253 -0.100455 0.0123578 
1.13539e-17 3.32137e-18 1 

-0.158891 0.0103284 -0.158161 
0.00595603 -0.0567118 -0.0341594 
2.31676e-18 8.31659e-18 1 

-0.116533 0.0268401 -4.22913 
-0.00564217 -0.0685056 12.0251 
-6.64211e-19 -1.05008e-17 1 

-0.091603 -0.0683214 0.0815445 
0.0503283 -0.0411706 -0.0942357 
3.40171e-18 1.57002e-17 1 

-0.278557 0.193505 -0.0101274 
-0.0783214 0.0185737 0.300969 
4.43584e-18 1.44976e-17 1 

-2.75739 -0.668686 1.13874 
-0.57549 0.457408 5.06763 
2.67659e-18 9.73411e-18 1 

-0.125543 0.00493182 -0.0547127 
-0.0959271 -0.009044 -0.0480187 
-6.26164e-18 -5.91377e-18 1 

-0.0954921 0.0279075 0.304405 
0.012499 -0.00592877 0.155636 
3.76217e-18 -4.71614e-18 1 

-0.154836 0.0977614 -0.459979 
0.00909173 -0.00347021 0.0506628 
1.824e-18 3.69417e-19 1 

-0.104716 0.0436503 -0.0633722 
-0.04664 -0.0511478 -0.1227 
5.25539e-18 -2.19807e-19 1 

-0.162189 -0.0819776 -0.351859 
0.153823 0.065988 -0.329374 
-5.60901e-18 8.5566e-18 1 

-1.08577 0.995169 -2.78952 
0.0152594 0.45751 0.159515 
2.66909e-18 -5.41475e-18 1 

-0.0704539 0.00116614 -0.402746 
-0.0588043 0.0390466 0.16257 
7.41191e-18 -4.07655e-18 1 

-0.0909642 -0.018421 -0.4313 
0.0174988 -0.0263311 -1.48362 
6.42491e-18 9.26857e-18 1 

-0.16484 -0.0481861 -0.792367 
0.0267954 -0.0225011 0.21934 
-2.9439e-18 2.40374e-18 1 

-0.132447 -0.0229271 -1.12961 
0.00828767 -0.0256306 0.461501 
1.26548e-18 8.16723e-18 1 

-0.138761 -0.0177819 0.0574588 
0.0296297 -0.0623542 0.18083 
-4.29487e-18 -5.03628e-18 1 

-0.111983 -0.0189726 0.133246 
0.0107748 -0.0765396 0.369805 
1.60795e-18 -4.32727e-18 1 

-0.145164 0.0856411 0.110059 
-0.102629 -0.030712 -0.0386799 
-9.96363e-18 -2.71735e-18 1 

-0.807554 0.129917 0.292503 
0.307869 0.192142 -0.758673 
1.55126e-17 -1.0071e-17 1 

-0.132095 -0.00856975 -0.779521 
-0.029523 -0.0054446 -0.514056 
-3.06305e-18 -1.41382e-17 1 

-0.124383 0.0532318 0.104574 
0.0561522 -0.111506 -0.0946781 
1.4301e-17 -5.46917e-18 1 

-0.175373 0.00390086 -0.0336913 
0.0533415 -0.078367 -0.511404 
7.16598e-18 5.08398e-19 1 

-0.126051 0.0644268 -0.220061 
0.0403863 -0.0593617 -0.289373 
1.3351e-19 -4.94521e-18 1 

-0.131052 -0.000924233 -1.14516 
0.0166499 0.0184011 -2.04699 
2.44076e-19 -7.20786e-19 1 

-0.0706588 0.0424923 -0.0262594 
-0.0022748 -0.13349 0.0294003 
-3.33317e-19 8.33293e-18 1 

-0.219906 0.0745167 1.38623 
-0.0086876 -0.00979723 1.08279 
-1.05473e-17 8.19602e-18 1 

-0.148293 -0.415595 0.783943 
0.210142 0.055032 -0.304514 
7.31678e-18 1.3942e-18 1 

-0.102431 0.013948 -0.65203 
-0.016949 -0.00445632 0.179353 
1.55671e-18 -2.24993e-19 1 

-0.203975 -0.0269526 -0.943061 
-0.0388909 0.0496207 -0.829628 
9.92854e-18 -8.61018e-18 1 

-0.112984 0.0117629 -0.110745 
0.0560148 -0.0359157 -0.0661069 
-5.27081e-18 -1.1865e-17 1 

-0.395981 -0.0338275 0.315045 
0.0978529 0.235727 -0.469302 
1.27795e-17 -5.47691e-18 1 

-0.0874748 -0.0364244 -0.10715 
0.00946208 -0.0125075 0.0109547 
1.82953e-18 -1.92933e-18 1 

-0.653257 -0.178941 0.611419 
0.430182 0.135786 0.433923 
6.41418e-18 -1.75796e-17 1 

-0.23923 0.244705 0.477584 
-0.13141 -0.0493209 -0.151199 
1.16948e-17 8.20152e-18 1 

-0.0829198 0.0322938 0.0304844 
-0.0201032 0.0072604 -0.0494222 
-9.46505e-18 1.54145e-18 1 

-0.077426 0.182122 0.0532941 
-0.0819359 -0.00278509 0.0693694 
3.33626e-17 -1.02852e-18 1 

-0.0909938 -0.0020668 -0.307602 
-0.0265854 -0.0735307 1.65398 
4.81601e-18 3.53107e-18 1 

-0.102592 -0.0238152 -0.0490182 
-0.0330364 -0.117665 -0.06532 
-8.5449e-18 -1.61576e-17 1 

-0.119193 -0.0691445 -0.155872 
-0.0408044 -0.0242673 0.0647929 
-4.18959e-18 8.11032e-18 1 

-0.168565 0.032144 0.351111 
-0.072421 0.060355 0.715405 
6.06544e-18 -3.77405e-18 1 

-0.0846479 -0.0397047 0.179649 
0.0107898 -0.0400697 -0.0954009 
-1.23559e-18 -5.00216e-18 1 

-0.102703 0.00451821 -0.210322 
0.0125311 -0.0284078 -0.910451 
1.14199e-17 6.35256e-18 1 

-0.0693395 -0.591982 0.765212 
0.566163 0.226857 -0.263114 
-7.08269e-18 1.86148e-18 1 

-0.298724 0.57529 0.0946552 
-0.293904 0.234644 0.206442 
2.8752e-19 -6.54109e-18 1 

-0.139788 0.00129837 -0.726539 
0.0190776 0.0280155 0.483278 
2.63463e-18 5.35644e-18 1 

-1.05551 -0.0251783 -4.63545 
-0.594123 0.377196 -2.81565 
-7.45849e-18 1.7975e-17 1 

-0.150781 0.0729738 0.199654 
-0.178641 0.137405 -0.0924582 
-5.04074e-18 -1.94342e-19 1 

-0.286417 0.0917472 0.64085 
-0.104879 0.0950191 0.401873 
7.14487e-18 1.25035e-17 1 

-0.34565 0.607365 -0.00733251 
-0.36195 0.215686 0.392212 
-3.96536e-18 -1.90038e-17 1 

-0.10497 -0.0563768 0.208478 
0.0410858 -0.0562979 -0.143606 
1.24106e-17 9.684e-18 1 

-0.103819 -0.0770639 -0.150884 
0.00834352 -0.0626774 0.128274 
1.14596e-17 9.9826e-18 1 

-0.0794935 -0.0421517 0.0289788 
0.0414359 -0.0905169 -0.038964 
1.02266e-17 -3.45149e-18 1 

-0.217927 -0.119148 -0.422298 
0.108455 0.0316981 -0.851246 
7.17226e-18 -8.76056e-18 1 

-0.0900209 -0.00960641 -0.0397281 
0.00532099 -0.0142807 -0.0446905 
-8.86274e-18 -2.03174e-17 1 

-0.119356 -0.155039 0.029998 
0.110091 -0.0216391 -0.0342473 
-8.99496e-18 2.90462e-18 1 

-0.0648856 -0.0621591 -1.31263 
0.0319422 -0.0467505 -1.0697 
-5.56515e-18 -8.86701e-18 1 

-0.0588281 -0.00525512 -0.031722 
-0.00436488 -0.0244209 -0.0606157 
4.27115e-18 -1.27088e-17 1 

0.11128 -0.942457 -0.320755 
0.474029 0.366259 0.660387 
-8.43891e-18 -1.00159e-17 1 

-1.08416 0.0434874 -0.677152 
0.0219318 0.321686 -0.348655 
8.5384e-18 -7.08555e-18 1 

-0.118539 0.0264305 0.229875 
-0.0263052 -0.0760229 -0.335137 
-5.06024e-18 -4.20902e-18 1 

-0.0615629 0.0290364 -0.538825 
-0.0193025 0.0197695 -0.476801 
4.47002e-18 1.80369e-18 1 

-0.0770823 0.0335252 0.114772 
-0.0404017 -0.0217762 0.115405 
1.86982e-18 8.02655e-18 1 

-0.102353 -0.0112197 -0.254717 
0.0166188 -0.0168514 0.221224 
1.76846e-19 -2.74111e-19 1 

-0.229649 0.0221118 0.211975 
0.0741154 0.0386094 -0.267656 
-4.53764e-19 1.81505e-18 1 

-0.13911 -0.0837402 -0.512725 
0.0244479 -0.0388685 0.253638 
1.06175e-17 5.13389e-18 1 

-0.117967 -0.00773516 0.395289 
0.03576 -0.0225477 -0.0317936 
-8.42761e-19 7.16347e-19 1 

-0.0906579 -0.00281736 0.140535 
-0.00996935 -0.0646695 0.131095 
2.02625e-18 -9.15081e-19 1 

-0.54271 0.01523 0.820801 
-0.136433 0.207588 0.253087 
9.61104e-18 4.04157e-18 1 

-0.222435 -0.0143564 -6.19293 
0.0629778 0.106818 -3.2538 
4.60219e-18 -1.68772e-18 1 

-0.107237 0.0107067 -1.76271 
-0.0165112 -0.00450104 -0.43282 
1.68863e-18 -5.18233e-19 1 

-0.726183 0.0606522 -4.06516 
0.325369 0.715163 -0.510482 
4.82996e-18 1.50658e-17 1 

-3.64818 -1.6762 -8.35549 
0.367737 0.736251 1.00512 
2.32851e-17 3.3013e-17 1 

-0.218617 -0.0652461 -3.31622 
0.0823817 -0.0139375 -8.61452 
7.36259e-18 3.62985e-19 1 

-0.237009 -0.144581 -0.767552 
0.204236 -0.0145622 1.93401 
2.66921e-18 -6.28049e-19 1 

-0.251788 -0.20374 1.08333 
-0.0662346 0.103329 -1.2461 
3.22194e-18 1.38791e-17 1 

-0.240205 0.173493 -1.6259 
0.0263656 0.157216 0.838985 
-1.67654e-18 3.17206e-18 1 

-0.289811 0.0813441 0.268577 
-0.187845 -0.0015682 0.780486 
7.55715e-19 -9.52969e-18 1 

-0.884202 -0.000312825 -0.291841 
-0.317058 0.0382562 0.301853 
3.57654e-19 -1.46638e-17 1 

-0.0554751 0.0414478 -0.0266213 
-0.0060603 -0.0647531 0.0538659 
5.92515e-18 3.66504e-18 1 

-0.0965427 -0.00482697 -0.0291561 
0.0141005 -0.0318287 -0.0775848 
5.94332e-18 -1.33422e-18 1 

-0.0850749 -0.0424719 0.0812026 
0.00970225 -0.10366 0.183088 
7.88718e-18 3.81433e-18 1 

-0.173785 -0.0172491 0.0931664 
-0.00873149 -0.00447799 -0.0882208 
5.14142e-18 7.152e-19 1 

-0.103057 0.0161293 -0.0548997 
-0.0190496 -0.0588552 0.0542799 
-5.71229e-18 8.50454e-18 1 

-0.0715592 -0.0394749 -0.229655 
0.041522 -0.0372225 -0.691919 
-5.4863e-18 -4.69655e-18 1 

-0.258512 -0.10478 -0.813137 
-0.229315 0.142576 0.247977 
-7.34954e-18 8.29605e-18 1 

-0.217304 -0.0636622 0.00290961 
-0.0778211 0.073322 -0.315157 
3.8845e-18 -1.3265e-17 1 

-0.109819 0.026814 -0.217271 
-0.0252948 -0.00902454 0.0422453 
3.09247e-18 4.36079e-18 1 

-0.106847 0.019472 0.159391 
-0.0333239 -0.0529236 0.378482 
-1.03123e-17 -6.75286e-18 1 

0.143891 -0.988751 0.0410916 
0.83888 0.685857 0.744559 
-1.03193e-17 1.22618e-17 1 

-0.124637 -0.00834077 -0.0139053 
-0.0107015 -0.0543152 -0.127643 
1.91792e-17 -1.16699e-17 1 

-0.0989487 0.0371522 0.0568245 
-0.0769167 -0.00510366 -0.378411 
-2.57383e-18 -7.69766e-18 1 

-0.217794 0.0398805 -0.175457 
-0.0192893 -0.0377264 -0.0818582 
1.59232e-17 -1.43572e-18 1 

-0.200385 0.0264421 -1.1125 
-0.0332629 0.171518 0.859154 
7.67803e-18 -1.07576e-17 1 

-0.288116 0.0974956 0.30811 
-0.19205 -0.040015 0.272241 
1.92275e-18 -3.65323e-18 1 

-0.0972664 -0.061768 -0.0974103 
-0.0313832 -0.0476338 0.105821 
-1.57301e-17 2.25603e-18 1 

-0.0928416 -0.0055529 -0.041739 
0.010064 -0.0460232 -0.125049 
4.25223e-18 -3.59264e-18 1 

-0.265509 -0.0376161 -0.0536843 
0.130291 0.0495586 -0.513218 
-2.30204e-18 8.75231e-18 1 

-0.133241 -0.0167306 0.109362 
-0.0542589 -0.0467338 0.186514 
-4.87358e-18 6.38914e-18 1 

-0.115313 -0.027814 0.713003 
-0.0186417 -0.0666029 -0.28646 
8.15253e-18 -8.41418e-18 1 

-0.162868 -0.416331 0.173417 
0.416143 0.173987 -0.627747 
-3.47133e-19 -9.30751e-18 1 

-0.163411 0.0269053 -0.204139 
-0.0939613 0.0157656 -1.85384 
2.18245e-18 -8.43219e-19 1 

-0.416435 0.199614 0.150988 
-0.404663 0.0623337 -0.98769 
-3.87449e-19 7.46721e-18 1 

0.0664676 -0.292361 -0.610586 
0.435228 0.0463926 -0.819735 
-2.78318e-18 5.45982e-18 1 

-0.121037 -0.0909236 -0.0826393 
0.0782855 -0.058025 -0.0921829 
6.46182e-18 -1.36134e-19 1 

-0.613239 -0.409804 -5.89084 
0.0502428 0.169114 1.21939 
-2.32641e-18 -1.329e-17 1 

-0.311889 0.00518482 0.695699 
-0.110576 0.185497 0.344459 
-1.54666e-17 6.68971e-19 1 

-0.301093 -0.733836 0.60756 
0.442574 0.240952 -0.531469 
1.44591e-17 7.8868e-18 1 

-0.100316 0.00975948 0.0596883 
-0.00594402 0.0124015 0.0497341 
7.04036e-19 8.55918e-18 1 

-0.212475 0.0718674 -0.162117 
-0.0727387 -0.0181644 0.0194672 
-1.2056e-17 1.71322e-17 1 

-0.183613 -0.0129892 -0.152556 
0.0062004 -0.00291841 -0.0415177 
1.13287e-18 6.77433e-18 1 

-0.107024 -0.0585637 -0.101678 
-0.0443586 -0.0587431 0.319705 
-4.84961e-18 -1.3856e-18 1 

-0.24393 0.199025 0.0961579 
-0.0867261 0.170474 -0.727544 
-6.75339e-19 1.12613e-17 1 

-0.576705 0.0954242 0.318095 
-0.0598043 0.28594 -0.425568 
-6.32948e-19 8.46568e-18 1 

-0.106539 0.000682266 -0.185504 
-0.064715 0.000918864 0.21419 
6.14635e-18 1.62184e-17 1 

-0.341002 -0.406445 0.0274197 
0.234887 0.0364342 -0.434475 
2.72446e-18 5.75164e-18 1 

-0.47242 0.143571 -1.32929 
-0.0773618 0.285429 -1.07328 
3.19681e-18 2.79721e-18 1 

-0.1761 0.0688508 -0.0234398 
-0.079614 -0.0553472 -0.0601435 
7.05964e-18 1.72446e-18 1 

-0.0859224 0.0210679 -0.17389 
-0.0236196 0.0119107 0.217935 
-6.45932e-18 -9.51596e-19 1 

-0.138919 -0.0106678 -0.0525645 
0.00461435 0.0350661 -0.329807 
-2.09672e-18 -1.0293e-17 1 

-0.0701682 0.0328597 0.219169 
-0.0205558 -0.0219578 -0.247435 
-1.77103e-17 -2.93811e-18 1 

-1.891 0.707864 1.56218 
0.446286 1.09579 1.05645 
-8.84697e-18 4.60076e-19 1 

-0.0120799 -0.137427 -0.119454 
0.090499 -0.0273497 0.0288951 
7.2947e-18 -3.28604e-18 1 

-0.051355 0.0485747 0.102185 
-0.0407008 -0.021719 0.248288 
1.98019e-18 -7.93943e-18 1 

-0.138519 -0.0248945 0.0222405 
0.0185449 -0.0359642 -1.11727 
-5.86214e-18 -1.21577e-17 1 

-0.0975235 0.0624169 0.0465717 
0.0804183 -0.067215 -0.38257 
5.42616e-18 -1.53278e-17 1 

-0.0768257 -0.0103829 0.207164 
-0.001829 -0.0096042 0.101857 
4.44619e-18 4.26483e-18 1 

-0.309063 0.0036822 -0.179527 
0.0531618 0.119913 0.0574702 
-7.40713e-18 1.06208e-17 1 

-0.149023 -0.0272821 0.316948 
0.0204934 0.0369678 -1.91333 
-7.64223e-18 8.15024e-18 1 

-0.117762 -0.0917237 0.0621055 
-0.00411693 -0.0961959 0.0489587 
7.33057e-19 -2.97784e-17 1 

-0.140149 -0.167458 0.558696 
0.109837 0.0257333 0.433263 
-3.33363e-18 1.07036e-17 1 

-0.222102 -0.0595931 0.255837 
0.00162373 0.00703175 1.23206 
3.61156e-18 -2.26806e-18 1 

-0.142762 -0.0344989 0.0479315 
-0.0330384 -0.0169195 -0.0277917 
-1.15226e-17 6.05886e-18 1 
