# vtk DataFile Version 3.0
Output file generated by Yade's KinematicLocalisationAnalyser
ASCII
DATASET UNSTRUCTURED_GRID

POINTS 13483 float
640.129 28.2143 0.445108
835.475 48.7065 0.54957
125.174 6.16903 0.454064
874.419 4.00276 0.368252
521.9 7.6407 -0.300145
327.82 34.7573 0.329093
163.038 6.85905 0.427005
598.889 10.0533 0.150071
518.836 22.6977 0.153371
774.987 12.4438 0.400948
219.189 9.02535 -0.112417
267.536 6.30215 -0.263196
694.114 29.123 -0.155499
669.99 13.9223 0.0722319
142.722 16.9579 0.398709
230.644 34.3311 0.405983
226.632 12.9497 -0.281346
300.749 9.5471 0.386452
354.935 32.3027 -0.269188
549.273 8.53767 0.345756
428.116 36.4505 0.0983724
622.991 44.5914 -0.256836
869.261 32.5365 -0.49992
747.964 41.2908 -0.47447
478.987 16.0689 0.28019
251.028 44.0094 -0.125498
513.75 27.0378 -0.526708
617.167 19.4802 0.223618
47.0037 15.5201 0.456542
771.414 32.7992 0.313989
503.946 4.93689 0.313197
17.262 23.1271 0.28448
850.167 47.2281 -0.241408
517.64 2.46495 0.49223
81.5805 44.1058 -0.100433
546.057 30.1473 0.349356
555.972 16.4926 -0.408095
358.518 22.3042 -0.18684
559.022 25.2008 -0.337684
365.346 32.9262 -0.424648
251.193 14.6155 -0.348216
453.047 35.3491 0.0753694
722.559 6.92996 0.11929
200.91 6.21932 0.370467
57.7935 7.0036 0.0879393
71.3793 8.9072 0.287829
740.917 8.63874 0.472955
24.6284 11.529 0.290428
644.993 44.3499 -0.358027
724.177 22.5271 -0.36706
180.102 32.2126 0.304686
832.398 36.0083 -0.154773
36.4505 28.0073 0.12221
559.977 2.9453 0.327439
148.201 7.50592 -0.473813
625.942 33.8921 0.432639
527.983 26.2857 -0.137795
182.289 0.936998 -0.267405
34.2806 2.42747 0.28978
363.749 17.5907 0.269268
657.085 44.6547 -0.13222
482.86 33.2498 -0.172233
416.598 1.02907 0.194967
753.683 7.89326 -0.351689
27.5983 42.7799 -0.235015
267.198 30.342 -0.31851
774.869 7.80464 0.207571
716.104 43.6465 0.357675
435.793 8.60576 -0.48414
599.817 3.50619 -0.344256
807.939 29.3352 -0.36696
136.321 7.62319 -0.304456
521.705 25.1078 -0.126377
499.469 14.8487 -0.137049
307.161 16.6238 -0.336063
21.6701 13.4926 0.235708
856.014 38.3824 -0.378413
347.011 38.5814 -0.286119
721.258 19.6677 0.355114
740.797 12.5924 0.253644
861.096 11.2974 -0.274711
486.467 34.2034 -0.167309
96.4833 38.2246 -0.27577
734.755 33.1993 -0.209194
690.029 37.4243 0.112536
878.486 38.1713 0.144141
855.061 0.797227 -0.582208
303.74 28.5658 0.450589
658.416 6.32019 -0.123012
25.4372 5.16491 0.469306
138.907 38.0525 -0.147997
537.899 14.4424 0.218191
845.382 27.2855 0.527694
204.253 28.4769 0.226445
46.2514 34.1243 -0.291231
516.505 1.15724 0.126414
246.333 8.85875 -0.358516
812.166 37.9238 0.284694
832.341 25.6828 0.268497
377.797 20.7678 -0.256604
171.608 26.8128 -0.469296
578.819 37.7695 0.419873
397.362 15.4975 -0.442449
432.703 29.5087 -0.104033
395.472 4.41561 0.411841
576.881 10.8395 -0.0894572
879.003 11.449 -0.268601
84.0321 39.0032 0.400871
350.813 4.86451 -0.181432
592.06 9.38165 -0.344931
376.651 43.6471 0.448594
26.7976 24.167 -0.478325
31.919 5.72205 0.32528
600.358 31.9846 -0.418611
530.814 23.5862 0.146649
27.6559 36.7702 -0.420892
97.4064 30.7293 0.222603
340.32 15.8677 -0.291978
636.475 18.6514 -0.14711
499.212 37.4543 0.313314
793.508 7.55797 -0.401216
785.28 6.3112 0.215897
405.323 36.8749 0.104384
676.925 24.7136 0.121981
249.631 17.0416 0.496056
345.871 3.73348 0.458718
108.433 31.4066 0.357516
121.875 23.7119 -0.260924
573.938 38.041 0.0733537
320.699 18.7478 0.455158
766.709 35.7736 0.114349
720.252 42.9407 0.117183
505.657 20.238 -0.41411
838.142 11.0364 0.35918
450.352 22.9894 -0.229543
290.547 24.0501 0.292206
722.786 30.029 0.266306
292.577 28.3119 0.387514
610.717 11.966 -0.211979
348.329 35.3605 0.209454
532.03 11.4311 0.460314
385.065 31.5541 0.091083
452.59 16.4754 -0.106117
333.982 41.7273 -0.351313
200.39 29.6945 -0.124292
840.154 47.0727 0.144621
875.671 13.2722 -0.29129
6.32766 12.1736 0.464783
456.772 22.2234 -0.406256
40.2283 22.4124 -0.0755314
395.344 31.116 -0.419766
415.266 24.4953 0.297186
78.5983 12.0056 -0.510406
54.4297 32.922 -0.42313
237.561 13.4793 0.39687
658.458 38.1478 -0.418815
613.497 20.5769 -0.430392
78.7755 20.9166 -0.473777
750.752 45.0978 0.428633
824.963 2.44773 -0.461781
708.123 40.0687 -0.510655
748.687 2.36957 -0.378204
583.344 26.3294 0.395555
624.75 44.7481 -0.4529
541.856 17.8516 -0.40434
872.692 3.18946 -0.260482
235.199 24.5231 0.114701
134.383 35.1073 -0.196661
260.212 6.64908 0.382932
99.3695 4.19222 -0.266404
67.5934 10.0895 -0.20101
290.386 35.8536 0.294965
17.4775 24.8969 -0.354186
589.515 19.028 -0.387272
644.678 39.2692 0.240067
488.468 20.8812 -0.366347
867.509 46.6986 -0.365095
428.701 8.53708 -0.0989724
459.739 35.8217 -0.373621
568.776 3.42388 -0.190596
24.0897 23.7052 -0.396499
613.692 4.55843 -0.329588
579.126 4.34121 -0.286861
217.349 11.4996 0.483193
448.576 16.2794 -0.190119
328.158 6.26417 0.332496
408.95 18.9576 -0.3359
799.069 41.5157 0.104263
202.575 25.5461 0.423995
848.258 7.4928 -0.31636
797.704 37.911 -0.333335
404.225 10.1403 -0.166741
772.373 2.30595 0.429582
644.769 24.9812 -0.388574
801.255 17.7192 -0.394988
454.769 42.3514 0.301039
525.971 12.3525 0.34597
492.108 43.6696 -0.219469
470.737 8.57866 0.125974
711.561 38.854 0.302006
709.136 35.1431 0.320244
202.705 38.7893 0.361478
858.892 11.3616 -0.171992
626.787 45.0999 -0.22432
11.8694 16.9074 0.217589
430.088 25.1127 0.343455
197.548 22.889 -0.405564
98.1316 39.1121 0.204607
843.198 24.6339 0.454538
705.397 44.9323 -0.227613
336.657 25.3212 0.346371
565.465 10.0791 0.323001
86.8386 44.1008 0.166633
261.314 25.7697 -0.472915
592.574 22.8265 0.361096
515.433 18.3539 0.410559
277.274 0.888707 -0.343322
588.41 39.4764 -0.359422
567.177 40.2402 0.461054
510.614 32.5636 0.395013
529.201 0.784732 -0.497792
759.409 19.5283 -0.416087
189.563 11.9505 -0.170393
530.692 35.7561 -0.44508
601.381 39.1275 0.132381
76.9367 0.94958 -0.272452
265.704 4.71844 0.173993
874.512 15.098 0.253401
861.678 13.2749 -0.356954
881.101 15.8464 -0.556434
320.414 8.52449 -0.227777
808.272 22.2565 0.393434
430.263 40.9232 -0.316166
475.063 0.814888 -0.397966
696.784 35.4938 0.576928
28.5502 30.4583 0.209082
349.19 40.585 0.505208
266.584 2.85556 0.323409
852.511 43.4896 -0.224323
770.786 47.9991 -0.23355
303.44 10.8942 0.217407
715.775 28.5611 -0.0948595
593.878 2.64944 0.276919
576.822 6.40673 0.416293
102.122 18.2382 0.478908
320.288 1.02918 -0.22407
362.717 2.25493 -0.367497
14.7945 7.59141 0.391965
4.64165 30.668 -0.254385
171.064 18.9786 -0.37592
72.0077 41.5333 0.177572
70.6203 28.6094 0.317946
448.159 14.4357 -0.413441
388.165 35.008 0.477992
829.613 37.5067 0.127285
20.6609 4.01973 -0.269786
74.5693 6.91302 -0.127234
669.191 37.0478 0.156836
311.339 0.945152 0.314328
385.937 15.9858 -0.0971405
249 4.57107 0.378181
700.952 21.2794 0.194344
478.377 8.33225 0.402842
811.266 20.0494 -0.421574
676.12 28.5048 -0.345116
720.325 17.71 0.0864281
444.728 26.3765 0.49587
107.892 44.5448 0.318022
577.646 41.5548 0.0766382
799.028 13.1165 0.231231
251.527 30.1383 -0.233137
34.0077 16.9526 -0.181339
355.854 13.7238 0.493706
113.794 40.2481 -0.465964
283.231 41.8944 -0.197015
450.407 1.08963 -0.218357
854.942 33.6102 0.42556
740.991 0.814507 0.48674
351.382 3.24356 0.522459
317.28 26.1719 0.147726
490.85 40.547 0.211368
86.1702 8.06064 -0.444576
209.249 44.6319 0.377905
834.723 28.2345 0.397751
525.564 38.4596 -0.0941693
211.733 41.0405 -0.263811
170.382 42.1022 0.067579
880.343 33.5362 -0.440643
877.379 12.4949 -0.577044
648.642 3.51366 -0.447336
201.242 24.3617 -0.102234
585.3 27.2134 0.104024
587.349 26.9565 -0.261362
433.417 5.61552 -0.135286
511.297 0.930002 -0.28273
827.275 38.8825 -0.476231
89.8997 30.6977 -0.232287
706.756 18.0748 0.447141
290.26 15.4096 -0.346169
10.369 2.31536 -0.346693
132.912 36.6553 0.191936
70.8202 22.659 -0.477524
759.226 36.9636 -0.311797
857.053 50.9633 0.119965
196.61 28.1776 0.183692
870.349 12.9355 -0.375832
47.6566 36.2182 0.259403
96.2137 29.0962 0.156351
680.381 12.8239 0.469358
438.074 18.0777 -0.473918
552.619 16.5026 0.122784
252.12 28.1904 0.18118
665.899 4.48671 -0.411102
881.774 10.9561 0.402199
31.5641 31.4753 0.278085
285.879 7.69118 0.189025
235.209 15.109 0.269438
1.09497 35.218 -0.14534
238.562 14.551 -0.365176
224.19 10.9976 0.115161
226.934 26.2123 -0.226359
140.77 27.6223 0.126256
583.721 14.8971 -0.342944
176.984 14.0492 -0.35162
846.998 44.9119 -0.224033
184.382 3.79452 0.509887
50.0787 37.2302 0.395593
805.94 47.6879 -0.426783
297.596 31.3745 0.396265
730.726 22.2691 -0.458822
863.485 33.0165 -0.527818
318.423 9.1303 -0.109404
795.312 29.8845 -0.353766
348.197 2.6063 -0.374138
440.879 23.6978 0.360388
727.08 15.8175 0.422777
111.818 12.0567 -0.400812
513.028 3.89832 -0.475527
815.25 17.7773 -0.180587
93.4685 7.72923 0.199805
298.244 14.6302 0.200934
448.964 11.5969 -0.19568
871.294 3.62161 0.511781
421.66 1.94044 -0.525918
187.484 38.5365 0.287412
801.898 10.196 -0.416638
136.157 36.2439 0.188858
278.52 31.4138 -0.410726
424.392 21.5628 0.22124
613.167 13.7612 -0.334266
410.277 9.7562 -0.473535
484.599 27.4855 -0.408646
836.459 48.1864 -0.415543
50.4537 10.9026 0.124207
317.068 38.1612 0.256871
402.234 26.9173 -0.345592
434.101 20.8091 0.263059
554.985 43.8387 0.356406
820.752 35.4094 0.197364
714.903 34.3575 0.360153
239.266 33.9993 -0.394738
14.8052 31.1557 0.155174
707.539 36.3069 -0.131551
541.655 40.8166 -0.0163587
243.189 39.1136 0.107761
738.682 30.2217 0.145764
160.253 9.18951 0.20899
388.509 21.2003 0.296774
492.676 41.5812 0.100903
439.154 19.4741 0.192581
832.017 49.8874 0.290992
451.931 3.41597 0.430621
52.7395 25.0958 -0.309903
499.472 31.1881 0.347905
461.165 41.1855 0.422992
850.174 37.6409 -0.243005
791.064 27.3286 0.242211
577.163 18.2993 -0.20864
842.453 39.963 0.482042
310.65 2.18783 -0.441139
401.112 29.3263 0.453209
30.8313 38.6051 -0.294213
798.345 30.1112 -0.160605
653.331 19.7641 -0.502245
491.844 0.773087 -0.47531
133.793 4.46928 0.283383
452.609 39.7569 0.0987904
12.8649 0.903635 0.316982
870.928 6.11756 0.1336
392.423 39.0953 -0.39395
[...]
POINT_DATA 13483
TENSORS Strain_matrix float
-0.141258 -0.0842004 1.52365 
0.0692321 0.0866439 0.0705851 
1.65687e-18 -5.99628e-18 1 

-0.215869 -0.467752 -13.0454 
0.106369 0.374641 -2.83548 
-2.47169e-18 -6.74348e-18 1 

-0.084239 -0.00431918 0.025888 
-0.0185971 -0.0596048 0.126638 
5.57569e-18 -1.12086e-17 1 

-0.744319 0.33287 0.498196 
-0.209823 0.268684 0.0733692 
2.81616e-18 -2.0306e-17 1 

-0.103667 -0.0279978 0.0478577 
-0.00166188 -0.0627413 0.0395294 
-8.90095e-18 -4.26829e-18 1 

-0.0799871 -0.0172763 0.0411314 
0.0149961 -0.0451822 -0.107172 
-2.08608e-17 -1.28813e-17 1 

-0.0668771 -0.0210826 0.000114792 
-0.000176672 -0.0944862 0.0253838 
1.20299e-17 1.45189e-17 1 

-0.0803572 0.00227386 -0.105495 
0.0435386 -0.0601962 -0.0199067 
-4.83567e-19 -3.5001e-18 1 

-0.0829064 -0.00473802 -0.110145 
0.0621465 -0.00325415 -0.167687 
-3.04346e-18 -6.08692e-18 1 

-0.24875 0.153946 0.215206 
-0.119877 -0.0823385 0.345849 
-1.12663e-17 9.38857e-19 1 

-0.0632004 0.00842767 -0.204752 
0.0152574 -0.061927 0.105222 
-5.38097e-18 -4.04045e-18 1 

-0.0823383 -0.0457837 0.196486 
-0.0690408 -0.0969771 0.0600245 
-1.52243e-17 1.74269e-17 1 

-0.218163 0.328368 1.41761 
0.0187627 0.0931556 -0.15201 
-9.61056e-18 2.21709e-17 1 

-0.132938 -0.0132801 -0.289473 
0.00524664 -0.0424423 0.179431 
-7.99895e-19 -3.4165e-18 1 

-0.0914471 0.011557 0.0362382 
0.006437 -0.066904 0.270603 
1.81907e-18 3.57573e-18 1 

-0.0716199 -0.0192244 0.575595 
-0.0515716 -0.0234819 0.0876173 
-3.08093e-18 -6.624e-18 1 

-0.0508426 -0.0352997 0.0948217 
-0.0121774 -0.0945463 -0.0820719 
-9.13711e-18 2.30467e-18 1 

-0.131586 -0.00690905 -0.0514705 
0.0138112 -0.0720532 0.00198188 
-1.9227e-18 -1.41623e-17 1 

-0.117907 -0.0614576 -0.309053 
-0.00116931 -0.012895 0.0676302 
-3.6432e-18 -1.14584e-17 1 

-0.0971474 0.0375309 0.0989536 
-0.0618025 -0.077855 0.147224 
1.03612e-17 -4.96943e-18 1 

-0.053698 -0.0142941 -0.167798 
0.077868 -0.0356514 0.00117961 
-3.41758e-19 1.04969e-17 1 

-0.105287 -0.0987599 0.0323615 
0.0486449 -0.122107 0.401322 
1.7053e-18 6.6994e-19 1 

-0.95153 0.0597682 -8.85821 
-0.169026 0.337396 -1.4575 
5.76056e-19 -3.74136e-18 1 

-0.166918 -0.0471964 -0.681368 
0.0148457 0.0283208 -2.74658 
7.77735e-18 -1.75951e-17 1 

-0.0498238 -0.0369787 -0.193442 
0.0864658 -0.0415651 -0.054214 
-9.22884e-18 -8.04012e-18 1 

-0.125977 0.0674366 0.0552478 
-0.0495345 0.0369058 -0.0258337 
9.84017e-18 -2.21059e-17 1 

-0.0911227 -0.00730118 0.675207 
-0.000380347 -0.0358245 -1.81881 
2.50647e-19 -5.05851e-18 1 

-0.1047 0.0198138 -0.0302365 
-0.0331059 -0.017579 -0.091911 
7.63319e-18 4.11529e-18 1 

-0.0789473 0.00504378 0.313578 
0.0420577 -0.0677666 1.4559 
4.42955e-18 -5.86635e-18 1 

-0.171704 0.0347116 0.440046 
0.0317233 -0.00606123 0.146687 
-1.01607e-17 1.25054e-17 1 

-0.0668359 -0.0103852 -0.248 
0.0144337 -0.144459 0.390571 
-8.92852e-18 -9.30054e-19 1 

-0.112091 0.0232634 0.0685492 
0.0463274 -0.044267 0.0854261 
-9.83323e-18 2.55664e-18 1 

-0.456638 -0.11064 0.865393 
0.0796523 0.0730202 -0.413604 
-3.73444e-18 6.82931e-19 1 

-0.101817 0.0402016 0.364722 
-0.00749974 -0.0251555 0.285247 
-6.35854e-19 -4.97645e-18 1 

-0.0482764 0.0208783 -0.0336471 
-0.0419843 -0.105958 -0.152661 
1.2305e-18 -1.37527e-17 1 

-0.131889 -0.0394737 -0.346108 
-0.0108391 0.00914276 0.319975 
-2.77302e-18 1.01046e-18 1 

-0.0800754 0.00540106 -0.0761255 
0.0059072 -0.0499601 -0.390309 
6.73837e-19 -4.49135e-18 1 

0.00751289 -0.0402217 0.0817883 
0.00162069 -0.170994 -0.0311804 
-1.10857e-18 1.29334e-18 1 

-0.0712194 -0.0871249 -0.0731355 
0.0827187 -0.0234603 0.040374 
2.86681e-18 -1.49074e-17 1 

-0.0836176 -0.0418691 0.0342913 
0.0353548 -0.0138346 -0.146503 
-7.03144e-18 -8.89597e-19 1 

-0.109636 0.0133188 0.00470746 
-0.0540357 -0.0550673 -0.140889 
6.69974e-18 8.61817e-18 1 

-0.0474201 -0.0469917 -0.157714 
0.0216005 -0.0503437 0.494741 
5.20713e-18 9.84557e-18 1 

-0.201713 -0.0405837 0.0587839 
-0.0204572 -0.00628392 -0.0515684 
1.50452e-17 -6.09786e-18 1 

-0.0498095 -0.024008 0.607011 
0.00140483 -0.079346 -0.21293 
5.34391e-18 -4.24544e-18 1 

-0.0775473 0.00999432 -0.0091182 
0.0225923 -0.0674945 -0.0464707 
-1.05199e-17 1.18872e-17 1 

-0.0656462 -0.00618685 -0.000979361 
-0.000824882 -0.0689385 -0.0321274 
-3.92949e-20 5.09772e-20 1 

-0.130184 0.0144274 0.169296 
-0.0394771 -0.0426453 0.614171 
9.08775e-18 6.78656e-18 1 

-0.0462872 -0.0128208 0.0153164 
-0.00906501 -0.127694 0.0451758 
-1.40164e-17 6.37108e-19 1 

-0.168775 0.0609834 -0.16664 
-0.0754931 0.0199218 -0.231487 
2.69149e-18 7.28286e-18 1 

-0.104561 0.109744 -0.130249 
-0.0428886 -0.0139586 -0.309001 
5.65612e-18 3.16128e-18 1 

-0.0967378 -0.0629094 -0.0245079 
0.0164302 -0.00905909 0.271472 
-1.67741e-17 2.92881e-18 1 

-0.0930453 -0.18825 0.162471 
0.138671 -0.0518293 -0.424923 
9.80947e-19 2.90875e-18 1 

-0.0817408 -0.00984908 0.105491 
-0.0170398 -0.00968066 0.00273247 
6.80518e-18 1.34823e-18 1 

-0.103313 0.0401416 0.0756967 
-0.0216399 -0.0572178 0.004629 
1.12968e-18 -2.35934e-18 1 

-0.0852105 -0.00311529 -0.0256375 
-0.00564251 -0.0690253 -1.20668 
-4.49957e-18 1.12677e-18 1 

-0.133816 -0.0589818 -0.202166 
0.0286871 0.0186202 -0.0686959 
-9.55614e-18 3.35068e-19 1 

-0.0816669 -0.0704775 0.13938 
0.0611712 0.00282507 0.0480044 
6.54967e-18 -1.18432e-17 1 

-0.0831058 -0.238495 -0.144574 
-0.00241149 -0.0549958 0.108443 
-6.42812e-18 -2.29146e-17 1 

-0.039102 0.0122853 -0.0196109 
0.00274626 -0.136432 0.046647 
-1.28611e-19 9.01938e-18 1 

-0.0681717 -0.0075841 -0.141327 
-0.0699921 -0.0585363 0.104557 
9.27769e-18 -4.24213e-19 1 

-0.0674561 0.217561 -0.222739 
0.00651081 0.0458787 -0.111103 
2.3856e-18 2.8968e-17 1 

-0.0725622 -0.0302764 -0.195351 
0.0298027 -0.000459799 -0.166179 
4.64084e-18 1.81626e-18 1 

-0.0859865 -0.0908846 -0.297289 
-0.0100449 -0.0432531 -0.0892539 
-6.91227e-18 1.85833e-17 1 

-0.120917 -0.0372474 0.453354 
0.0496628 -0.0384725 0.274287 
4.58058e-18 -2.366e-18 1 

-0.0778501 0.023048 0.171769 
0.0241145 -0.00497553 0.0397144 
-8.99926e-19 -4.86194e-18 1 

-0.188023 0.0324669 -0.0612541 
-0.00340417 -0.00512087 0.0631751 
4.41765e-18 1.71893e-17 1 

-0.140058 0.0478522 0.0416835 
-0.0464367 -0.0879378 0.243782 
-1.26867e-17 -4.20304e-18 1 

-0.17044 -0.0118553 0.210801 
0.0808339 0.0357397 0.665582 
8.60562e-18 2.82756e-18 1 

-0.0921449 -0.00695716 -0.172338 
-0.0396272 -0.0828967 0.532406 
4.79394e-18 5.02763e-18 1 

-0.12236 -0.027372 0.0801182 
-0.0212347 -0.089181 0.0641072 
1.00892e-18 -4.48411e-18 1 

-0.233615 0.119773 -0.170949 
-0.0774786 0.0473872 -0.0112665 
-6.10019e-18 1.36827e-18 1 

-0.047703 -0.0148359 0.00262799 
-0.00294694 -0.0687992 0.0993021 
5.66242e-18 -8.04975e-18 1 

-0.0644747 -0.0508459 -0.143142 
-0.0579736 -0.0213197 0.118331 
-8.49975e-18 -7.30725e-18 1 

-0.0732172 -0.0240539 0.0883502 
-0.0350765 -0.0487612 -0.234872 
1.04768e-18 4.79134e-18 1 

-0.0878528 -0.0105175 -0.396698 
-0.0105887 -0.0511098 -0.283483 
-1.55629e-18 1.92879e-17 1 

-0.0415878 -0.0287721 0.086578 
-0.0439544 -0.0765726 -0.0205884 
1.97756e-18 5.4383e-18 1 

-0.295273 -0.310035 0.245692 
0.393718 0.166184 0.0278785 
6.83565e-18 -2.65331e-18 1 

-0.0838032 0.0253185 -0.462055 
-0.0293384 -0.043125 0.0615299 
9.02587e-19 6.47606e-18 1 

-0.221149 -0.0425916 0.187716 
-0.0172856 -0.0474254 0.114206 
-4.6105e-18 -1.27232e-17 1 

-0.0998578 0.0549238 -0.361942 
-0.032726 -0.0292736 -0.11635 
7.60046e-18 -1.38008e-17 1 

-0.264252 0.0922103 -0.2188 
-0.100225 -0.0539422 -0.0931366 
6.36755e-18 -5.36791e-18 1 

-0.0417823 -0.0101686 -0.00340391 
0.0193395 -0.0163625 0.0737619 
2.71058e-18 -5.2043e-19 1 

-0.0531951 0.0207442 0.036479 
-0.0057909 -0.024983 0.0521382 
5.62423e-18 -3.13499e-18 1 

-0.0487105 0.00128701 0.0855458 
-0.0510888 -0.0628001 -0.0843264 
-1.05266e-17 2.20223e-18 1 

-0.143174 -0.0452889 -0.165494 
-0.00473724 0.0244961 -0.226389 
8.85244e-18 -1.17483e-17 1 

-0.128123 0.495924 0.368883 
-0.384254 0.180068 0.523241 
-1.29169e-18 3.10812e-18 1 

-0.455317 6.49056 18.7607 
0.0124036 0.288672 0.0649247 
9.83525e-19 -1.56238e-16 1 

-0.0861016 0.0606094 0.285444 
0.0246205 -0.0923801 -0.15044 
-1.09771e-17 -1.30955e-17 1 

-0.152615 0.0181493 -0.153596 
0.0426089 -0.0261234 -0.108194 
-4.20425e-18 -6.03991e-18 1 

-0.091159 0.0223464 -0.890227 
0.010144 -0.0798763 -0.303116 
3.33553e-18 3.67939e-18 1 

-0.0877149 0.0148745 0.238768 
-0.0467875 -0.0370268 -0.0846417 
1.17494e-18 4.53444e-18 1 

-0.0959163 0.000408531 -0.0183496 
0.0250416 -0.0602599 0.207129 
4.25834e-18 2.17447e-18 1 

-0.20872 0.273409 3.11017 
-0.00602833 -0.045619 -0.955703 
5.86111e-18 -4.93914e-19 1 

-0.108729 -0.0117916 0.0862899 
-0.0275002 -0.0221639 0.298361 
-1.03654e-17 4.81367e-18 1 

-0.0811534 0.0168971 -0.118361 
0.00601497 -0.00430976 -0.145124 
-2.44816e-18 -1.13351e-17 1 

-0.0949631 0.0624628 -0.126786 
-0.00209737 0.135205 -0.305063 
-8.26406e-19 -5.70566e-17 1 

-0.0840666 0.0335053 0.0141659 
-0.0325349 -0.0415793 -0.165225 
-5.15991e-18 2.40271e-18 1 

-0.146315 0.139902 -0.569732 
0.00812479 0.00931985 -0.0977828 
7.89543e-18 1.99884e-19 1 

-0.70805 0.145062 -0.599014 
-0.0446324 0.320537 -0.66241 
-3.71264e-18 -5.56896e-18 1 

-0.0715753 0.0491601 0.154476 
-0.0722619 -0.0469176 0.0404931 
2.90158e-18 7.90196e-18 1 

-0.0761376 0.00217073 0.529207 
-0.00968844 -0.0370109 0.260383 
1.87057e-20 -6.04312e-18 1 

-0.122638 -0.0199667 0.069327 
-0.00337409 -0.00651415 -0.325657 
-2.79669e-18 8.43121e-18 1 

-0.0823713 0.00279074 -1.84758 
0.00705992 -0.0452362 0.912471 
1.10572e-17 9.2604e-18 1 

-0.0999671 0.0491391 0.202204 
-0.0466198 -0.027974 0.13943 
-1.87537e-18 5.04907e-19 1 

-0.0821312 -0.0222182 -0.173335 
0.0119781 -0.0882743 0.649222 
1.40209e-17 3.45957e-18 1 

-0.104594 -0.00635753 0.206089 
0.0358805 -0.0504358 0.0479001 
7.9e-18 2.67665e-18 1 

-0.369153 -0.0805205 0.288811 
-0.203754 -0.128636 0.0198829 
1.38551e-17 -2.04273e-18 1 

-0.0697576 0.0127092 -0.493362 
-0.0809505 -0.0348448 -0.367794 
1.573e-18 9.14735e-18 1 

-0.110242 0.0408286 0.0916496 
0.0208812 -0.097768 -0.0282472 
3.01184e-18 3.31302e-18 1 

-0.103763 0.0147091 -0.332982 
0.00894074 -0.0748388 -0.0244036 
8.94977e-18 2.88762e-18 1 

-0.0913321 0.0239811 -0.811564 
0.0514383 -0.0768406 -4.42892 
-1.62736e-18 1.07247e-17 1 

-0.0838016 0.0234291 -1.35147 
-0.00793609 -0.0582241 -4.02573 
-2.93298e-18 3.29656e-18 1 

-0.0638354 0.016108 0.00681616 
-0.00630449 -0.119011 0.0337719 
3.24932e-18 8.07021e-18 1 

-0.133997 -0.0290361 -0.14245 
0.061761 -0.0239829 -0.179488 
3.5177e-18 -1.53258e-18 1 

-0.147021 0.0341784 -0.0943068 
0.0276893 0.0590451 -0.209687 
-7.91018e-18 -6.54335e-19 1 

-0.079176 -0.0206907 0.198048 
0.0233364 -0.00863045 0.32321 
-1.11108e-17 -6.88811e-18 1 

-0.068005 0.0117825 -0.0455764 
0.00770402 -0.0506355 -0.150509 
2.95109e-18 1.05502e-18 1 

-0.0704243 0.0161546 -0.0406677 
0.0534753 -0.0522908 -0.0549879 
8.39547e-18 7.47672e-18 1 

-0.139468 0.0260716 -0.0112383 
0.0619912 -0.100615 -0.0428916 
5.23038e-18 -1.64383e-17 1 

-0.108468 0.0305429 0.0265088 
-0.00206004 0.00173464 0.126903 
-5.46513e-18 3.70218e-18 1 

-0.22327 0.022145 -0.348197 
0.0406334 -0.0889008 -0.478234 
3.94538e-18 8.8771e-18 1 

-0.242293 0.222474 -0.216089 
-0.101477 0.00585282 -0.0154477 
1.26282e-17 7.77672e-18 1 

-0.0693943 0.0353461 0.0388868 
-0.0593064 -0.0175511 -0.117948 
-4.17594e-18 4.25473e-18 1 

-0.135661 0.0984486 -0.0239748 
0.000428714 0.0033411 0.0401259 
-4.89041e-18 -1.02943e-17 1 

-0.0700945 -0.0115619 2.1371 
-0.00057949 -0.0677129 2.35832 
-3.74233e-18 5.42731e-18 1 

-0.0811641 0.0370564 -0.228803 
-0.0188628 -0.120305 -0.0713279 
3.31007e-18 2.91131e-18 1 

-0.0936352 0.00575523 0.112843 
-0.0388002 -0.0314933 -0.11569 
-5.43428e-18 -2.408e-18 1 

-0.177064 0.046305 -0.294773 
-0.00349609 0.0354141 -0.477653 
2.8137e-18 -1.43653e-18 1 

-0.0612772 -0.040289 0.0627438 
0.0145989 -0.0306923 -0.0578233 
-9.25135e-18 5.3136e-18 1 

-0.079502 0.0290342 0.0458587 
0.00300046 -0.0424303 -0.255047 
-1.45131e-18 -1.95121e-17 1 

-0.0724626 -0.0689283 -0.220147 
0.0642376 0.00491781 0.0389251 
6.02765e-18 7.7944e-19 1 

-0.224308 0.101826 0.203815 
-0.0558236 0.0759828 0.0130663 
1.42654e-17 -1.18995e-17 1 

-0.0840545 0.0049387 -0.615609 
-0.00077133 -0.0337119 -0.210182 
4.2204e-19 -3.71755e-18 1 

-0.451238 0.511612 0.275172 
0.0142197 -0.0308282 -0.148365 
-1.34178e-17 9.62984e-18 1 

-0.0961487 -0.00293051 -0.0652132 
-0.0274087 0.00735037 -0.17062 
-6.35738e-18 -4.4146e-18 1 

-0.0702571 0.0648563 -0.197204 
-0.0128863 0.0320776 -0.60655 
1.03946e-17 1.07289e-17 1 

-0.138955 -0.0114734 0.0433853 
0.0195315 -0.0064244 -0.194314 
-5.97673e-18 8.1624e-18 1 

-0.0761858 -0.0181199 -0.49971 
0.0269905 -0.0272594 -1.06254 
-8.39961e-18 1.00001e-17 1 

-0.10556 -0.0656417 -0.0344146 
0.0506808 -0.0550528 0.135258 
7.2753e-18 5.72395e-18 1 

-0.0673621 -0.0342988 -0.0829564 
-0.0804898 -0.0351286 -0.0812203 
-1.41225e-18 -5.58112e-18 1 

-0.112119 -0.0267098 0.164593 
0.0357303 -0.0335054 0.0682731 
7.24262e-18 -7.0992e-18 1 

-0.0693552 -0.0481384 0.0609467 
-0.0011588 -0.0545626 0.0288884 
3.11548e-18 -1.78027e-17 1 

-0.0720378 -0.0220489 0.0695242 
-0.00790912 -0.0410259 -0.135678 
-5.27537e-18 -5.11867e-18 1 

-0.0691335 -0.0232241 -0.0515123 
0.0329066 -0.0171716 0.00534454 
5.96673e-18 -6.60603e-18 1 

-0.0602657 -0.0198791 0.241464 
-0.0260937 -0.0402279 0.276791 
-6.64456e-19 -1.24643e-17 1 

-0.204039 -0.586103 -0.925595 
0.1473 0.179021 0.797097 
1.50547e-18 7.8363e-18 1 

-0.499341 -0.0849574 0.383412 
-0.0454506 0.0506071 0.0191882 
1.29715e-17 2.91578e-18 1 

-0.0701768 -0.0181605 -0.329442 
-0.00333834 -0.102103 -0.234158 
-1.07381e-18 4.02108e-19 1 

-0.0901886 0.0337655 -0.0129933 
-0.0305303 -0.0499483 -0.410949 
3.10218e-18 7.16721e-18 1 

-0.0547858 0.00819768 -0.0275233 
-0.0199992 -0.0314565 -0.00703712 
-6.18126e-20 1.51441e-18 1 

-0.0866505 -0.00419899 -0.307071 
-0.0046246 -0.00284356 -0.07118 
-5.67189e-18 -4.8634e-18 1 

-0.165951 0.00104852 -0.0777014 
-0.00937451 -0.00840473 0.335499 
4.66062e-18 5.32171e-18 1 

-0.0832414 -0.0388935 -0.600129 
0.021863 -0.0589573 -2.32056 
-3.16119e-18 8.84472e-18 1 

-0.074253 -0.00329227 -0.159958 
0.0136989 -0.0322127 -0.19334 
6.19872e-18 -4.0889e-18 1 

-0.0684985 0.00399187 0.0521864 
-0.0223792 -0.065955 0.122422 
-1.41139e-18 1.98267e-18 1 

-0.167705 0.000493025 -0.251017 
0.0139738 0.0512324 -0.542303 
2.40975e-18 -1.56459e-17 1 

-0.130904 0.0191247 0.929406 
0.0571656 -0.017383 -0.174423 
-4.67142e-18 2.5092e-18 1 

-0.0772424 -0.0197544 0.482217 
0.0038014 -0.041822 0.619458 
-5.14865e-18 -2.12003e-19 1 

-0.149586 -0.0645985 0.71764 
0.0928994 0.164459 -0.039853 
-1.30091e-18 1.24082e-17 1 

-0.231431 0.0110399 0.0439962 
0.0468875 -0.0710987 0.615751 
-5.57286e-18 -4.89698e-18 1 

-0.172034 0.00953996 3.86717 
-0.0721763 0.0115138 -0.430993 
3.44088e-18 8.35406e-19 1 

-0.102157 -0.0519003 0.209374 
0.0079517 -0.0693017 -0.233522 
-2.94367e-18 -2.23349e-18 1 

-0.108201 -0.0462987 0.320948 
-0.00917002 0.0527155 0.0849614 
3.81707e-17 -2.75234e-18 1 

-0.118975 -0.0454934 1.0383 
0.00975624 -0.250773 0.888658 
-1.09199e-18 -2.10376e-17 1 

-0.134994 -0.0617882 0.0653552 
0.044312 -0.0554964 0.39828 
9.55514e-18 1.26585e-18 1 

-1.06287 0.0606314 -0.290749 
-0.332287 0.203919 -0.0658394 
6.97126e-18 -2.03953e-17 1 

-0.0536602 0.0231381 -0.0312685 
-0.000870109 -0.0766944 0.00575346 
-7.54632e-18 -7.02117e-18 1 

-0.107389 0.0144891 0.0764412 
0.0276376 -0.00611001 -0.0777559 
6.9214e-18 1.6895e-17 1 

-0.065271 -0.0387989 0.539944 
0.0103991 -0.102078 0.311021 
8.36384e-18 -3.27352e-19 1 

-0.0851413 0.0134916 0.152946 
-0.00968526 -0.0791206 -0.157708 
6.72808e-18 6.33837e-18 1 

-0.0604851 -0.0159877 0.0318004 
0.035236 -0.0542496 0.08184 
-2.1979e-18 -6.06445e-18 1 

-0.0630732 -0.00967165 -0.081831 
0.00317365 -0.0206292 -0.0557643 
3.24911e-18 -4.88579e-18 1 

-0.111832 0.062794 -0.0813871 
0.0248072 -0.0316046 0.0262997 
-6.46585e-18 -7.14886e-18 1 

-0.128714 -0.0304272 -0.461163 
-0.0250729 -0.0463219 0.554215 
-1.12677e-17 6.52539e-18 1 

-0.0818392 0.0680705 0.161071 
-0.125336 -0.031398 0.122942 
1.85764e-19 -1.66259e-17 1 

-0.106025 -0.00850277 0.0754937 
-0.0346952 -0.0764082 0.0874439 
-1.96337e-18 5.10477e-18 1 

-0.053228 -0.325355 -0.332613 
0.271324 0.0289167 -0.0583695 
3.50515e-18 1.14242e-17 1 

-0.0917681 -0.0177073 0.0408392 
-0.0170737 -0.0486016 -0.164854 
-9.88078e-18 3.90352e-18 1 

-0.121687 -0.0355125 0.139424 
-0.013263 0.0198639 -0.237499 
-6.14526e-18 4.11796e-18 1 

-0.107753 0.0754982 -0.0440102 
-0.0316089 -0.0889677 -0.0463822 
6.01973e-18 -1.12596e-17 1 

-0.0823224 0.0190572 -6.39556e-05 
-0.095098 -0.0275409 -0.0244734 
-1.69482e-17 6.98572e-18 1 

-0.127926 0.0458775 0.125829 
-0.150607 -0.0598281 -0.106429 
-1.57045e-17 -2.0548e-18 1 

-0.0579672 -0.0106462 -0.0483476 
-0.0310326 -0.0594681 0.0712739 
-9.28635e-19 5.0751e-18 1 

-0.078245 -0.0103504 2.09226 
0.0166968 -0.0635206 0.634112 
5.64924e-19 -7.80622e-18 1 

-0.155664 -0.0336526 0.00280058 
0.106773 0.0238773 -0.222578 
-2.33443e-19 7.73696e-18 1 

-0.106878 -0.00592972 0.111572 
-0.0623585 -0.0540368 0.130492 
-1.53932e-17 -7.56615e-18 1 

-0.124233 -0.000406473 0.457748 
-0.0483131 -0.0178809 0.298284 
-9.7025e-18 8.74733e-18 1 

-0.247067 -0.112819 0.173888 
0.183051 0.103501 0.0910631 
-1.1634e-17 -1.22177e-18 1 

-0.117716 0.0200801 0.0333516 
-0.0638169 -0.0375295 -0.165609 
6.17185e-18 2.70547e-18 1 

-0.270006 -0.166806 0.566896 
0.0872592 -0.0104096 0.301148 
1.26063e-17 -9.40219e-18 1 

-0.0673482 0.0570819 0.0290925 
-0.041245 -0.0363567 0.133008 
3.13114e-18 -2.33165e-18 1 

-0.0992338 -0.0954023 -0.114234 
0.0656257 -0.0648289 -0.0916128 
1.70468e-18 -7.64371e-18 1 

-0.375428 -0.351742 -0.339882 
0.171429 0.108803 0.253724 
-1.27624e-17 -3.68687e-18 1 

-0.147409 -0.0566557 -0.854019 
-0.0210016 0.0667141 1.45519 
1.46191e-18 -8.52778e-20 1 

-0.211617 -0.0114572 -0.373034 
-0.0601751 -0.0730649 -0.340693 
8.60359e-18 7.03564e-18 1 

-0.108806 0.0218173 0.312297 
-0.00977535 -0.0176377 -0.601579 
-3.02931e-19 6.16878e-18 1 

-0.0717069 0.0384978 -0.247028 
-0.0247203 -0.0815162 -0.118917 
7.07893e-18 -6.88092e-18 1 

-0.0410176 -0.0104629 -0.139486 
-0.0865931 -0.0378676 -0.219987 
-2.03992e-18 -3.31487e-17 1 

-0.0854573 -0.0394726 -0.0666973 
-0.0485496 -0.0693846 0.293304 
-2.74636e-18 -3.21987e-18 1 

-0.132153 0.0897929 0.195713 
-0.0411605 0.0273952 0.569108 
-1.57828e-18 1.17972e-18 1 

-0.14502 0.0136993 0.438009 
-0.085293 0.0470679 0.212719 
-3.35952e-18 4.29009e-18 1 

-0.0931285 0.00695991 -0.275271 
-0.0248007 -0.00755519 0.122449 
5.88195e-18 2.47826e-18 1 

-0.431213 0.0913959 -0.290472 
-0.00639908 0.0692535 0.199947 
-1.53172e-17 5.86978e-18 1 

-0.208104 -0.157668 -0.411869 
-0.0113909 0.0804318 0.211722 
-1.25896e-17 -3.76511e-18 1 

-0.110521 0.0110377 -0.0416697 
0.0502782 -0.0487545 0.00421268 
-8.76984e-18 6.02701e-18 1 

-0.0682986 0.0108947 -0.230485 
-0.0465506 -0.0121395 0.0814798 
-5.8893e-18 -2.77312e-18 1 

-0.0804253 -0.0202101 -0.338897 
-0.00216268 -0.0234655 -0.489381 
9.35931e-18 2.67409e-18 1 

-0.0772117 0.00551379 0.377586 
0.017942 0.00581635 0.0467421 
-2.45188e-18 1.43636e-18 1 

-0.192468 -0.119022 0.108783 
0.177529 -0.00687622 -0.981859 
1.09234e-17 -2.70669e-18 1 

-0.10882 0.0594666 0.0089313 
-0.137918 0.033943 0.0814818 
-4.17646e-18 6.98563e-18 1 

-0.0488797 0.0198854 -0.06393 
-0.0518282 -0.0442759 0.24632 
2.83255e-19 -4.24882e-19 1 

-0.116511 -0.0173591 0.04873 
0.0254895 -0.0523655 -0.487442 
-5.72139e-18 -1.12395e-17 1 

-0.0528099 0.111669 0.0671192 
0.0361508 -0.1033 -0.402897 
-6.22931e-18 -2.02815e-18 1 

-0.0605745 0.00991232 1.66599 
-0.0422772 -0.041644 -0.314463 
-2.18274e-18 2.2012e-18 1 

-0.114242 0.0190942 0.148369 
0.0143735 -0.0101769 0.47047 
-5.36871e-18 1.13224e-19 1 

-0.0697089 -0.0229888 -0.211209 
-0.000261794 -0.0462866 0.0245318 