# vtk DataFile Version 3.0
Output file generated by Yade's KinematicLocalisationAnalyser
ASCII
DATASET UNSTRUCTURED_GRID

POINTS 13483 float
477.987 34.2335 0.492278
562.163 81.2021 0.573057
109.186 6.12907 0.500287
595.783 5.47829 0.519303
421.174 9.16908 0.474003
286.068 39.8771 -0.55976
141.55 7.50021 0.442803
451.196 12.4839 -0.177146
419.448 56.283 0.141416
543.124 15.2972 0.681249
191.757 9.16251 -0.0957191
234.855 6.44861 -0.239984
511.925 74.5366 -0.172173
498.429 19.9839 -0.112801
124.55 19.1991 0.551776
199.881 37.6549 0.437733
198.793 13.3513 -0.288464
263.769 11.3255 0.496284
309.605 37.0086 -0.498631
430.204 18.6957 -0.46645
363.957 38.1273 -0.111938
469.141 57.7358 0.289808
586.12 62.4821 -0.451888
524.822 73.2629 -0.463006
401.779 28.4888 0.416363
219.436 47.022 -0.129346
421.314 59.3163 -0.458073
465.434 24.6434 0.341392
40.6128 16.4563 0.493765
548.538 74.499 0.369964
409.544 7.06485 0.584652
14.8116 25.1426 0.352511
575.236 86.3993 -0.276499
417.923 2.47653 0.686823
71.5377 46.7468 0.115194
443.498 67.821 -0.363811
431.334 36.8525 0.437597
312.114 24.39 -0.201197
438.433 61.9193 0.330079
316.407 36.5094 -0.50677
220.19 15.3278 -0.332604
380.625 42.7321 -0.0655295
525.073 25.9058 0.130995
174.832 6.25856 0.429301
50.164 7.48977 0.0885035
62.429 9.39926 0.269745
519.509 8.23564 0.632783
21.1246 12.1803 0.273085
474.494 55.3142 -0.407224
520.3 51.5008 -0.335496
156.159 35.0735 0.370396
565.938 67.8577 -0.128688
30.5831 30.1536 0.115772
436.488 2.66017 0.353759
130.403 6.86333 -0.58068
466.339 41.774 0.651728
432.887 64.0905 0.114271
158.492 0.92719 -0.30577
29.7448 2.3565 0.364963
315.09 19.053 0.401514
480.667 60.0736 -0.174633
392.394 58.6383 0.200188
355.145 1.03816 0.212391
529.419 9.64969 -0.664117
24.1336 47.503 0.25223
233.882 32.3818 -0.330531
544.166 8.39681 0.51103
525.799 97.1861 -0.343427
372.51 9.34252 -0.630973
452.507 4.4928 -0.545282
552.915 46.02 -0.54541
119.488 7.9176 -0.327639
425.753 60.7961 -0.136443
409.883 41.6185 -0.177855
269.09 17.585 -0.488796
18.7495 14.3962 0.270725
585.146 81.353 -0.377461
302.652 44.7415 -0.330409
517.853 48.0098 0.396963
527.164 25.6994 -0.230842
582.616 30.2867 0.440982
394.961 61.3663 -0.205973
85.2752 40.7512 -0.295436
515.038 64.2352 0.222285
503.571 80.6679 0.113194
591.776 70.1752 0.132291
589.338 0.735456 -0.704668
266.236 31.3618 0.506232
495.785 6.23259 -0.139738
22.4181 5.93513 0.650468
122.399 43.252 -0.183334
425.387 28.4382 -0.268268
575.338 56.8774 0.516918
178.932 28.8653 0.257556
39.8492 36.7508 -0.275633
417.049 1.01723 0.241564
216.376 8.94539 -0.447189
549.702 57.4427 -0.263254
561.875 49.9713 0.27012
325.595 25.6777 -0.261116
149.233 28.4971 -0.445173
471.457 75.3163 -0.444191
340.851 20.3513 -0.167996
365.662 30.2478 0.137145
338.071 6.62265 0.499422
439.702 26.096 0.174208
593.809 23.7733 -0.313298
73.3729 41.5171 0.390533
304.16 6.03478 0.197008
447.442 11.5532 -0.470483
323.017 54.4721 0.515932
23.252 25.4857 -0.577989
27.9392 6.09405 0.321418
445.537 51.794 0.469153
421.851 46.6574 -0.15872
23.0975 40.9041 -0.422474
86.2952 33.1437 -0.214348
296.811 17.8977 -0.350121
479.023 18.9473 -0.114511
403.987 67.1986 0.346747
558.384 8.92907 -0.509961
552.12 7.64236 0.257948
347.195 46.6819 0.1166
495.437 48.5602 0.122437
218.71 18.8486 0.649255
301.514 5.21152 0.596432
96.1879 33.2986 0.406185
106.928 24.3339 -0.272249
468.019 76.2239 -0.0915044
280.217 19.8266 0.543073
545.094 74.9765 0.127231
531.169 95.9646 0.105614
410.837 48.6973 -0.347009
573.789 38.7162 0.2901
382.122 25.8983 -0.25171
254.063 27.7618 0.342063
511.037 71.1977 0.301297
256.542 31.4417 0.483032
458.731 17.0552 -0.206798
304.071 41.1814 -0.204643
422.632 19.9229 0.53835
329.489 40.4473 -0.0939298
383.968 17.4487 -0.165869
291.057 48.2015 -0.433514
175.186 29.9641 -0.142671
566.82 82.0646 0.126806
591.829 24.266 -0.325275
5.78505 13.2402 0.458351
386.381 24.1727 -0.587423
35.2521 25.0167 -0.0699461
336.786 39.057 0.506139
353.416 28.6202 0.252194
68.9074 13.1265 -0.517168
46.7843 35.5281 -0.50279
208.522 13.9463 0.440695
485.466 56.1156 -0.538381
463.742 24.922 -0.432471
68.4657 22.1886 -0.515298
526.228 77.7069 0.327299
582.348 2.16401 -0.627836
518.777 91.1153 -0.490498
526.017 2.57858 -0.634262
439.335 49.0979 0.448493
469.821 56.4149 -0.557843
425.144 35.1457 -0.39223
595.731 10.8138 -0.180698
206.918 26.1102 -0.110128
118.191 39.6969 -0.204771
228.083 6.81509 0.418334
86.0053 4.89057 -0.26698
58.6862 10.5251 -0.223621
254.285 39.5042 0.326499
15.8101 26.543 -0.360497
452.453 31.2434 -0.530822
477.989 48.0627 -0.201844
398.367 40.6543 -0.366715
590.36 94.808 -0.355542
365.867 8.57396 -0.116025
380.222 47.3188 -0.540216
442.056 8.76695 -0.29153
20.9718 24.121 -0.480668
461.617 5.46479 0.423001
443.473 16.4561 0.501904
190.199 11.6249 0.531336
381.643 16.4911 -0.378247
287.084 7.09735 0.419706
350.606 20.0936 -0.497414
540.979 51.0853 -0.10686
177.325 26.026 0.450496
580.45 25.1186 0.426687
542.652 45.9305 -0.427894
344.703 12.2332 0.219357
542.795 2.37723 0.5036
476.866 33.5627 -0.582295
564.1 17.5307 -0.410213
370.658 54.2141 0.273649
417.949 21.7319 0.549928
396.096 72.5446 0.218973
398.96 11.1628 0.234242
522.54 91.7159 0.277502
521.853 87.2556 0.292039
176.344 40.1957 0.415361
581.209 33.5427 0.144149
482.114 71.5715 0.271497
10.6944 18.2118 0.28635
364.949 27.1713 0.463634
172.416 23.3827 -0.450091
86.9332 41.5752 0.215907
573.097 54.3138 0.423632
513.905 93.6969 0.225299
293.459 27.7229 0.340455
437.103 27.656 0.536386
76.4755 46.7553 0.18407
228.164 27.736 -0.482758
454.487 37.0264 0.4938
420.267 50.8542 0.458363
243.832 0.891849 -0.376791
481.018 77.373 0.379001
461.539 78.9274 -0.448902
416.552 65.5255 0.375774
426.378 2.39558 -0.622632
531.784 22.8468 -0.494788
164.748 12.9278 0.302807
432.245 75.2387 -0.451782
450.087 59.2161 0.126351
67.5964 0.910634 -0.324773
233.305 4.89811 0.197987
590.001 29.2867 0.212239
583.167 31.6525 -0.68085
594.685 29.1409 -0.593629
279.72 9.28615 -0.243069
560.578 29.23 -0.506868
365.307 43.4248 0.341156
398.83 0.756067 0.545543
510.396 81.3724 0.419319
24.2502 34.1557 -0.296195
303.622 47.8576 0.527442
234.265 3.05911 0.454875
578.987 84.319 -0.238402
543.854 88.7165 0.217973
265.983 12.5884 0.306274
507.52 65.3181 0.089986
448.535 2.46577 -0.307418
441.606 20.7837 0.569311
89.2638 19.0881 0.515323
280.383 0.998579 -0.277236
313.872 2.32607 -0.359262
13.0141 7.88932 0.579627
4.34098 33.3483 -0.315236
148.933 20.399 -0.422039
62.6539 44.4268 -0.275469
60.9271 31.1718 0.297102
381.412 13.4377 -0.588385
332.083 44.5922 0.585878
562.46 68.2372 0.18957
18.2328 4.02531 -0.290385
65.4722 7.52726 -0.137949
489.15 66.2089 0.140835
272.229 0.927813 0.433511
332.278 21.6815 -0.0996737
218.325 4.73116 0.348258
501.972 46.5248 -0.185209
404.257 15.1414 0.597995
565.755 27.8829 -0.479674
499.588 64.3414 -0.357611
517.446 46.1748 -0.237722
378.158 28.6137 0.486901
95.5562 47.8737 -0.31101
471.928 79.7294 -0.0929946
562.562 12.3631 0.314557
218.981 32.9844 -0.294164
29.7549 18.729 -0.326215
308.544 15.0983 0.503032
100.41 43.056 0.522043
247.4 44.9465 -0.256753
384.95 2.14607 -0.299393
584.335 75.7559 0.381231
521.975 2.36391 0.638729
304.569 4.18628 0.504835
277.326 29.0541 0.158412
395.486 69.2652 -0.216957
75.3509 9.32673 -0.590988
181.357 47.0881 0.429993
569.728 59.8902 0.405682
427.029 75.3224 -0.0948676
183.499 43.1062 -0.289066
148.73 47.4739 0.488057
593.385 65.4256 -0.373522
592.653 25.9077 -0.55816
488.227 3.06684 -0.652623
175.972 24.9021 -0.107481
432.312 55.6756 0.0970991
435.123 52.9984 -0.262892
370.613 6.01703 -0.122085
413.647 0.872013 0.41824
560.87 67.5306 -0.507047
79.0319 32.9215 -0.244551
506.966 46.1497 0.487299
253.787 16.4833 -0.47879
8.26045 2.65318 0.415082
117.59 41.7624 0.248723
60.6719 23.4866 -0.484473
537.418 73.1161 0.323781
579.342 92.6846 -0.165444
171.358 28.8251 0.197106
588.453 27.9446 0.492807
41.1638 39.3424 0.296758
85.1155 31.5712 0.179208
501.527 22.5186 0.408583
372.944 18.9442 -0.536788
428.165 36.6073 0.136129
219.41 30.9623 -0.202363
502.464 4.19988 -0.706394
596.187 24.8418 0.482189
26.9375 35.1444 0.336135
251.146 7.84405 0.216911
206.447 15.8059 0.331514
1.04374 37.9113 -0.158485
209.467 14.9328 -0.399463
196.477 11.329 0.103933
197.763 27.8815 -0.284955
124.052 30.9224 -0.13466
446.098 29.7929 -0.377653
153.785 14.4956 -0.361202
573.543 82.8337 -0.235774
160.407 3.74155 0.541173
43.3896 40.6937 0.462311
540.766 60.8381 0.540049
260.96 34.979 0.0600994
527.327 47.2415 -0.501195
583.078 72.8555 -0.521646
277.865 10.0293 0.146427
548.866 36.1292 -0.407624
302.343 2.62141 -0.379108
374.846 24.5965 -0.456849
522.687 39.797 -0.645344
97.3855 12.7136 -0.446562
415.312 4.19028 0.654323
568.539 25.1365 0.186987
81.1539 7.96157 0.297501
261.181 16.3317 0.194506
382.328 11.6371 -0.320623
595.111 9.22568 0.557723
359.794 1.94313 -0.585155
163.759 40.1854 0.316665
565.174 10.0671 -0.432142
120.402 40.3745 0.205235
244.154 32.8611 -0.453237
361.573 22.0387 0.260188
461.648 18.365 0.425174
349.468 10.1533 -0.579419
399.743 51.412 -0.439028
563.316 81.097 -0.426101
43.9293 12.203 0.157586
275.856 42.6887 0.254572
341.256 34.3853 -0.441491
369.443 20.8452 -0.323129
453.021 83.2509 -0.357232
557.049 60.3935 -0.243832
526.057 86.1719 0.34924
207.931 37.1839 -0.392065
13.3104 33.488 -0.161155
519.805 87.4014 0.121383
441.202 83.7849 -0.00376923
212.071 42.0966 0.140281
520.828 59.0604 0.180277
139.523 10.5112 -0.204617
333.978 27.2283 0.39728
397.067 70.5867 0.105057
373.526 20.3563 0.304663
558.161 80.3451 -0.315158
385.585 4.29059 0.648074
45.5043 26.5204 -0.319113
406.12 60.9495 -0.361562
375.981 51.4176 -0.348664
579.532 78.307 -0.221844
552.114 32.6218 0.362247
443.849 37.9536 -0.200224
571.857 76.3882 0.474905
271.959 2.16422 -0.498576
340.849 37.6891 0.514069
26.1999 42.7924 -0.311497
549.543 39.2757 -0.176556
491.986 20.8778 -0.679403
405.928 5.64314 0.703731
116.782 4.72342 -0.362436
376.819 42.6713 -0.196951
10.5744 0.947138 -0.428451
590.012 12.3457 0.338043
337.137 50.7404 -0.447153
[...]
POINT_DATA 13483
TENSORS Strain_matrix float
-1.31989 1.27566 4.00898 
0.305386 0.123943 1.18952 
1.91317e-18 -7.81709e-18 1 

-3.0306 1.81009 23.4857 
0.0812768 0.765628 7.88694 
-2.12745e-18 3.25855e-18 1 

-0.21799 -0.0782311 -0.0419381 
0.130683 -0.0298556 0.666436 
1.57964e-18 3.42026e-18 1 

-2.93203 -0.3258 0.916169 
-0.394164 0.71154 1.33439 
4.84336e-18 1.70449e-17 1 

-2.04375 -2.28533 -0.0650995 
0.756109 1.07024 -0.283836 
0 -1.23234e-18 1 

-0.262686 -0.16236 25.3935 
0.0265957 0.177319 -14.4543 
1.70852e-18 1.07331e-17 1 

-0.278421 -0.183341 -0.511979 
0.019162 0.019488 0.129264 
1.47757e-18 7.12401e-18 1 

-0.776592 -0.00124656 0.113511 
0.02982 0.210205 -0.779272 
-5.28648e-19 8.22915e-19 1 

-0.0875298 0.546146 -6.97913 
-0.084486 0.165184 -1.1286 
2.67496e-18 4.90652e-18 1 

-0.816243 -0.2084 -8.94553 
-0.126288 0.0777315 -5.95887 
-1.49817e-17 9.53017e-18 1 

-0.131616 -0.0741524 -0.118141 
0.0796416 -0.0635626 0.0162181 
8.03872e-19 2.94753e-18 1 

-0.163807 -0.129558 0.15587 
-0.0336841 -0.0849422 0.114706 
1.95874e-17 5.85232e-18 1 

-2.92129 5.76881 27.1306 
-0.186835 1.09113 3.82969 
7.96522e-18 2.01227e-18 1 

-3.23589 -1.92717 -0.585223 
0.971772 1.14566 -0.264425 
-1.57215e-17 1.11361e-17 1 

-0.393003 -0.0345834 4.75668 
0.0664842 0.0984071 1.40348 
7.42436e-18 -1.34942e-17 1 

-0.367538 -0.227861 -0.870478 
0.0945823 0.159794 1.60348 
1.45188e-17 6.53347e-18 1 

-0.144172 -0.0557957 0.0517342 
-0.0262269 -0.0369391 -0.0404114 
2.23214e-18 -2.55526e-18 1 

-0.362506 0.0413432 -0.195699 
0.0507823 -0.0992087 -1.26376 
-1.4366e-17 -9.66732e-18 1 

-0.448044 0.0120185 5.03233 
-0.215036 0.214946 3.7452 
-1.52222e-17 -3.73238e-18 1 

-1.95003 -0.716454 -2.35229 
0.125386 0.676461 0.381774 
-2.80571e-17 2.86662e-19 1 

-0.333134 0.0516834 -0.187597 
0.0346989 0.0932208 -0.136643 
-1.66456e-18 -6.06758e-18 1 

-4.86529 -0.778204 -7.97017 
0.818309 0.638467 4.30894 
-7.70753e-19 -2.69763e-18 1 

-2.11843 -2.62107 -11.6811 
-0.119265 0.20891 0.480686 
-1.07355e-17 -3.37505e-18 1 

-1.20498 1.5819 -11.0531 
-0.093009 0.919914 -6.12161 
-4.27159e-18 -3.46842e-18 1 

-1.46818 -0.0841167 0.520889 
1.70551 0.400566 0.845707 
2.16409e-18 -1.91994e-17 1 

-0.280103 0.0201669 -0.127656 
-0.0070857 0.0915714 0.076079 
5.49181e-18 -1.02005e-17 1 

-1.35197 1.04153 -19.3629 
-0.0212651 0.334189 -6.2419 
-1.39854e-18 -6.18366e-18 1 

-0.771455 0.492216 -0.431554 
0.471837 0.113575 0.157267 
-5.87596e-18 -1.39554e-17 1 

-0.2068 -0.0229682 2.4962 
0.128851 -0.0923005 1.17793 
-1.04402e-17 -8.2964e-18 1 

-5.29263 0.722054 -6.18221 
-0.573722 0.464249 -2.14886 
3.54907e-18 -8.32848e-18 1 

-1.96714 0.269032 3.22395 
-0.451221 0.247084 1.85708 
1.00991e-18 -3.50833e-18 1 

-0.114758 0.358073 0.611968 
-0.0732891 0.0743536 -0.164723 
7.28996e-18 -2.00069e-17 1 

-0.242674 -0.950452 1.09715 
0.457589 0.282602 -0.532724 
-1.01117e-17 2.84001e-18 1 

-0.813668 0.0211666 0.659698 
-0.0494544 0.367087 21.624 
5.61423e-18 -7.99015e-18 1 

-0.105091 0.0235602 -0.218676 
-0.0928229 -0.101668 -0.339234 
1.43639e-17 -5.20372e-18 1 

-0.597509 -0.229201 -0.550814 
0.237995 0.446931 0.366224 
8.39945e-18 -9.02005e-18 1 

-1.05339 -0.00181319 8.37493 
0.118256 0.221334 -5.41949 
-7.53184e-18 3.85142e-19 1 

-0.195925 0.314916 -0.13522 
0.00397828 -0.0605309 0.0400015 
9.65574e-19 1.4086e-17 1 

-0.250898 6.45667 -4.1833 
-0.186118 0.298049 1.08919 
-8.59633e-18 -8.15116e-18 1 

-0.395641 -0.40614 1.23455 
0.748547 0.256781 -2.45493 
9.20056e-18 3.52388e-18 1 

-0.20579 -0.0170064 -0.344086 
-0.0713844 -0.0336259 0.126498 
-2.05149e-17 3.5329e-18 1 

0.230099 -1.44234 0.526162 
0.931795 1.41983 0.314144 
1.52271e-17 2.55654e-18 1 

-3.46339 -1.99385 4.4453 
-1.36216 -0.696363 3.26314 
1.16761e-17 1.94273e-17 1 

-0.179327 0.0714468 0.479568 
-0.0880452 -0.0505984 1.09711 
6.16994e-18 -2.63949e-18 1 

-0.195874 0.164875 0.112616 
-0.121002 0.000343738 -0.00990507 
-8.89826e-19 -8.63131e-18 1 

-0.10326 -0.0189121 0.255814 
0.0296598 -0.0136311 0.270508 
-8.91774e-18 9.39506e-18 1 

-1.85389 1.79986 7.26164 
-1.0381 1.37686 5.36743 
1.19709e-17 -1.11728e-17 1 

-0.0731315 -0.021244 -0.020902 
0.0153892 -0.116299 0.011504 
-5.24782e-18 4.39103e-18 1 

-1.88604 0.0850441 -6.94989 
-0.00283857 0.40299 -1.31593 
-1.41319e-17 9.71399e-19 1 

-0.586524 -1.09752 7.62124 
-0.382804 -0.128655 1.90023 
-7.57104e-18 -1.36579e-17 1 

-0.188536 0.0378149 4.90997 
-0.151774 0.0248594 -0.609992 
-8.95935e-18 4.6853e-18 1 

0.337992 -1.11951 0.559442 
0.809119 0.468737 0.7861 
-7.07226e-18 3.36363e-18 1 

-0.354776 -0.0136626 0.136402 
-0.0737973 0.160418 0.0326572 
-5.80148e-18 -7.14028e-18 1 

-1.40709 0.485781 -0.718086 
-0.1696 0.697902 0.751008 
0 -2.36215e-17 1 

-0.471769 -0.133304 -0.611219 
0.417606 0.173927 1.30699 
1.07532e-17 1.81745e-18 1 

-1.02348 -0.615479 -27.373 
-0.218686 0.419475 27.4832 
1.05997e-18 -3.48542e-18 1 

-2.84475 4.32524 3.09653 
-0.08245 0.550066 0.977593 
4.78636e-18 -3.51431e-18 1 

-0.170357 -1.68068 -1.36587 
-0.0143075 -0.0183495 -0.740083 
-5.02037e-18 -6.1131e-17 1 

-0.109297 -0.0579256 0.421607 
-0.0657426 -0.0844479 0.157372 
1.95201e-18 -2.11868e-17 1 

-0.334923 -0.000527652 -0.254783 
-0.103418 0.00405846 0.0988931 
5.02748e-18 1.63404e-17 1 

-2.06932 -0.704425 1.70342 
1.00289 1.31371 -0.610159 
-4.86672e-18 1.56222e-17 1 

-0.0563079 -0.95218 0.866332 
0.468962 0.423718 0.0592247 
9.80661e-18 1.14252e-17 1 

-0.153624 -0.273425 -0.13839 
-0.041299 -0.0986709 -0.0735075 
-2.07646e-18 1.89053e-17 1 

-0.639657 0.172257 -0.350104 
0.0983768 0.0843037 -0.511296 
4.19654e-18 9.05909e-18 1 

-0.346532 0.0980557 0.185929 
-0.0949139 0.0539311 0.584045 
-3.59602e-18 -1.16001e-17 1 

-0.259697 -0.0203664 -0.119903 
0.030407 0.0111105 0.452662 
3.69254e-19 -8.72363e-18 1 

-0.79799 -0.195009 0.852959 
-0.0424297 0.117563 -0.0329065 
8.9243e-18 -5.49876e-18 1 

-0.0237547 -0.0490209 -0.763149 
0.0317407 -0.0586628 1.12736 
-6.4695e-18 2.86857e-19 1 

-0.242677 -0.147289 1.09876 
0.0397289 -0.09784 -0.266683 
8.92416e-18 -1.09767e-18 1 

-0.514885 -0.0449509 0.389549 
-0.131723 -0.0678413 -0.22686 
-1.1161e-17 1.82634e-17 1 

-0.716168 -0.455687 -1.14223 
0.715895 0.44965 -0.0275579 
1.97813e-18 -7.44154e-18 1 

-0.168786 0.0639649 0.585641 
-0.0481934 -0.0387951 -0.222457 
1.36141e-18 -8.77356e-18 1 

0.302794 4.30349 -1.38942 
0.0859027 0.564872 1.01275 
-2.0413e-17 -2.26444e-18 1 

-0.275403 -0.484446 1.02373 
0.399775 0.281904 -0.675192 
-7.17364e-18 -1.13366e-17 1 

-0.263275 -0.0598538 -0.181904 
-0.0487405 0.0229034 0.283158 
5.54963e-18 3.16102e-19 1 

-0.20918 0.00764232 -0.0486651 
-0.0621456 -0.0130491 -0.0627633 
2.89075e-19 3.10756e-18 1 

-0.551158 -0.549997 8.4397 
0.569415 0.344258 3.1986 
1.1494e-17 1.90558e-18 1 

-0.225005 -0.259839 2.4297 
0.225493 0.108548 -1.62734 
1.31182e-17 6.9474e-18 1 

-0.650165 0.00500098 0.916946 
-0.314824 0.195645 0.507887 
-1.27422e-17 -2.69255e-18 1 

-5.87808 2.52203 4.34486 
-2.52017 1.65547 1.82983 
-9.71812e-18 1.26104e-17 1 

-1.99616 -0.060108 4.4327 
-1.63465 0.480295 0.577098 
-1.90765e-18 -1.2972e-17 1 

0.0474371 -0.524606 1.67213 
0.3267 0.117867 -0.647493 
-2.01068e-17 -6.5883e-18 1 

-0.0795927 0.0403518 -0.173937 
-0.0162189 -0.0432204 0.413795 
-5.07787e-18 -1.91428e-18 1 

-1.61587 -0.0188957 -0.291091 
-0.921154 0.518092 -0.332814 
1.75163e-19 -8.89828e-18 1 

0.0780303 -0.823282 -0.206414 
0.632579 0.246467 -0.484718 
-3.49708e-18 -1.32889e-17 1 

-0.190817 0.487956 -0.325036 
-0.350588 0.203188 0.244562 
-5.82526e-18 6.02476e-18 1 

-2.12318 6.59946 80.1465 
0.0159112 0.525027 -7.52938 
-1.10444e-17 1.31848e-16 1 

-0.173391 -0.163606 0.059066 
0.184778 -0.120455 -0.0701082 
2.02933e-17 2.55873e-18 1 

-0.384392 -0.0166334 -0.352015 
0.0754468 0.019613 0.192203 
5.5183e-18 3.25486e-18 1 

-0.229253 0.012992 -0.232073 
0.0338077 -0.0959397 4.49816 
-3.35486e-18 -2.61037e-18 1 

-0.257393 -0.10321 -0.0478992 
0.0270382 -0.0180989 0.0944194 
2.3149e-18 -1.94004e-18 1 

-1.23954 0.41311 -1.0938 
0.156441 0.414312 -0.559061 
-6.24939e-18 8.33252e-18 1 

-0.294857 -0.509015 -23.0403 
0.0777891 0.0426046 -3.04653 
2.16757e-18 9.85957e-18 1 

-0.136263 -0.038817 0.0375963 
0.0300788 -0.0522704 0.391847 
3.5788e-18 2.42631e-18 1 

-0.140052 0.0373901 -0.0659299 
-0.00507128 0.0521042 -0.740444 
6.39635e-18 -2.33829e-18 1 

-0.467399 0.906456 -1.04875 
0.0409237 0.459934 -0.83032 
-6.01094e-18 7.59873e-18 1 

-0.227761 -0.0378822 0.594777 
-0.0530777 -0.0141441 -1.18198 
4.74841e-18 -1.23773e-17 1 

-0.22765 -0.63919 -0.597241 
0.698094 0.298725 -0.0198294 
3.01155e-18 -1.10165e-18 1 

-1.09233 1.39957 3.43088 
0.369204 0.539824 0.264587 
-2.94151e-18 -1.51401e-17 1 

-0.258224 -0.321377 0.552368 
0.408783 0.17818 0.146414 
5.11593e-18 1.53955e-17 1 

-0.388781 -0.309991 0.373972 
-0.11207 0.269301 -2.28886 
-3.06068e-18 -3.97676e-19 1 

-1.79273 1.06235 52.4407 
-0.228128 0.20757 13.2971 
-2.24229e-18 -1.38392e-18 1 

-0.563955 -0.223382 -0.280228 
0.145824 0.201762 0.40145 
-2.80638e-18 -2.73622e-18 1 

-0.125092 0.522198 -0.0322929 
-0.38237 0.0226547 0.109135 
9.77503e-18 5.12245e-18 1 

-0.750513 0.166806 0.551366 
-0.60346 0.0495993 -0.603044 
-3.92987e-18 -1.23942e-17 1 

-0.808277 0.0594739 -0.310632 
0.121735 0.232665 -0.112588 
-1.01555e-17 9.89631e-18 1 

-0.926694 -0.831051 0.0434937 
0.280949 0.387813 -0.434567 
9.01167e-18 2.97886e-18 1 

-0.133903 0.077163 -0.365936 
-0.121181 0.00169504 -0.145598 
1.92502e-18 9.04757e-18 1 

-0.257552 0.175766 -0.808424 
-0.235814 -0.00985762 0.0891995 
-6.74613e-18 3.68374e-18 1 

-1.15889 0.40572 0.633248 
-0.870099 0.27837 -1.8229 
-9.73681e-18 2.09612e-17 1 

-0.469811 -0.679563 -20.9637 
0.0790419 0.397655 8.29698 
1.35338e-18 -6.37271e-19 1 

-0.305436 0.00229996 -3.26017 
0.0622233 0.0659017 0.609387 
8.06564e-18 -5.18108e-18 1 

-0.157992 0.148243 0.0365601 
-0.185648 -0.0627458 0.0804055 
1.01885e-17 1.35624e-17 1 

-0.64717 -0.621623 0.635537 
-0.586764 0.13405 -1.76327 
3.41663e-18 -1.00033e-17 1 

-6.82463 1.20834 -9.59633 
-0.661616 1.29207 0.164071 
4.37147e-19 3.69146e-18 1 

-0.191996 0.0208166 -5.38664 
0.0141333 0.0943267 1.46481 
-7.73997e-18 -1.52864e-18 1 

-0.173722 -0.00748288 -0.403897 
0.015417 -0.0150424 -0.044136 
9.19537e-18 -1.50567e-17 1 

-0.468412 -0.0391087 -0.0530081 
0.108769 0.132607 0.240962 
6.0025e-18 -3.60813e-18 1 

-0.23376 0.119022 0.0927059 
0.00263632 -0.177064 -0.0374629 
6.02587e-18 -6.68495e-18 1 

-0.132613 -0.198035 -0.0273923 
0.168539 0.0349674 0.169405 
-8.61405e-18 1.12707e-18 1 

-0.890901 0.207976 -1.08681 
-0.109523 0.0808467 0.460925 
2.34022e-18 -3.05528e-18 1 

-0.262037 0.357045 0.0267725 
-0.0572538 -0.0145795 0.298632 
-6.74213e-18 -1.77637e-18 1 

-0.0852173 0.608603 -0.479126 
-0.321849 0.252849 -0.0244867 
2.02473e-17 -1.96373e-18 1 

-5.31287 4.43171 -13.6091 
0.483416 0.825886 -0.749982 
-1.50541e-17 6.3648e-18 1 

-0.204683 -0.0505891 -8.87441 
-0.0424169 0.0422952 7.09736 
-2.01256e-18 4.8249e-18 1 

-0.564116 -0.277295 -1.4436 
0.395407 -0.0274236 -0.659929 
6.98307e-18 1.38414e-17 1 

-0.157931 0.0794989 0.202498 
-0.125361 -0.00698263 0.0192291 
5.56234e-18 4.11144e-18 1 

-0.302005 0.735138 1.38761 
0.0664435 0.158776 0.000289089 
-4.8003e-18 -2.32015e-18 1 

-0.147631 0.097165 0.382238 
-0.0814968 0.000665588 0.0456549 
5.4467e-18 9.54863e-18 1 

-0.40741 0.160366 -0.212921 
0.13063 0.0386305 -0.548509 
-1.07896e-17 -2.08518e-17 1 

-0.139341 -0.323468 -1.17715 
0.42234 0.137546 0.251817 
7.50085e-19 3.24646e-18 1 

0.0128043 0.0618167 0.0348222 
-0.0665368 -0.0595134 -0.0515261 
-7.89352e-18 9.44831e-18 1 

0.0536844 -0.683255 -0.316367 
0.317359 0.134411 0.993197 
-4.67055e-18 -1.19479e-18 1 

-0.48248 -0.253419 -0.310042 
0.164193 0.0669926 -0.325854 
-1.70477e-17 -8.03523e-18 1 

-0.43683 -0.220307 0.570452 
0.209128 0.195074 0.239435 
5.89023e-18 -1.86767e-17 1 

-0.26875 0.17154 -0.411497 
-0.0734234 0.129172 -1.94741 
-2.69819e-18 3.86332e-19 1 

-6.87885 7.09408 22.6191 
-1.45759 1.63572 3.02914 
-2.07629e-18 -4.65592e-18 1 

-0.201846 0.0628547 -2.36559 
-0.0691182 0.0935776 -2.5029 
-6.25927e-18 -5.8729e-18 1 

-0.705416 -0.109895 0.231477 
0.310842 0.355158 -0.376755 
2.55026e-17 -1.82089e-17 1 

-0.116827 -0.227534 0.675514 
0.269433 0.0331113 0.816294 
1.53467e-17 -9.62034e-18 1 

-0.388457 0.0763539 1.05044 
-0.0201056 0.0518604 -0.688022 
1.90914e-18 -9.49677e-18 1 

-0.478505 -0.0666049 -0.345158 
-0.0837206 0.20795 -0.331329 
-3.33459e-18 -1.08948e-17 1 

-0.588513 -0.0854995 -0.00880406 
0.288503 0.250944 0.312601 
-1.18159e-17 3.89536e-19 1 

-0.338907 -0.083182 1.90453 
0.0608402 0.111441 0.843088 
-4.59695e-19 1.68363e-17 1 

-0.0932555 0.03745 0.24233 
-0.0824795 -0.0403553 0.212685 
-1.37154e-17 -4.55394e-18 1 

0.216903 -1.05418 -1.51783 
0.531325 0.38933 0.701945 
5.90843e-18 4.97785e-18 1 

-1.23374 -0.342041 1.04901 
-0.332698 0.450146 -1.37528 
-1.08952e-17 -4.29543e-18 1 

-0.165521 0.0030322 -2.28473 
-0.0265711 -0.0770189 -0.0401162 
2.44696e-18 -1.02933e-17 1 

-0.773767 -0.256203 2.04095 
-0.126136 0.31099 -0.656611 
-1.30551e-17 7.32362e-18 1 

-0.384275 0.138768 -0.864532 
-0.160884 0.0415765 0.356284 
-2.9997e-18 -1.89425e-17 1 

-0.615107 -0.108265 2.62508 
0.095887 0.212856 3.60465 
2.05958e-18 1.28608e-17 1 

-0.993502 -1.32964 -5.8746 
-0.248921 0.236625 -0.627964 
-9.48092e-18 -3.81622e-19 1 

-0.244258 -0.109985 0.133206 
0.155076 0.0232931 0.50278 
-1.14324e-17 -1.97111e-18 1 

-0.231228 0.0108885 -3.29273 
0.0472797 0.0972631 -1.82837 
8.04471e-18 -4.10004e-19 1 

-0.133948 0.0615949 -0.245549 
-0.0316668 -0.0775229 0.0331657 
-7.34559e-18 0 1 

-0.367654 -0.880334 66.3187 
0.873538 0.704546 -3.61544 
-5.74892e-18 1.87683e-18 1 

-0.348774 0.586313 -1.11589 
-0.0605231 0.251871 0.703493 
1.04732e-17 7.37884e-18 1 

-0.122992 -0.0472889 -1.48135 
0.0616384 0.0204667 -1.80492 
-5.28791e-18 3.0463e-18 1 

-1.82319 4.71727 14.8687 
0.0224024 2.07621 3.11333 
2.79751e-18 -5.59503e-19 1 

-1.88161 0.5545 25.2173 
0.245277 0.346385 -1.63348 
-2.29507e-17 -1.23407e-17 1 

-2.05951 5.07274 -261.413 
0.37 0.0548458 4.88775 
6.96252e-18 -1.15292e-17 1 

-0.520524 -0.455586 -0.131661 
0.00383625 -0.0854366 -0.779823 
-9.87873e-18 1.86391e-18 1 

-1.45864 -3.90327 -21.822 
-0.542964 -0.0168943 -2.93202 
4.16038e-18 5.42658e-19 1 

-2.19999 1.66392 61.0111 
-0.19074 0.991166 10.248 
-1.12896e-18 1.43868e-17 1 

-2.14283 -1.25098 -2.45019 
0.924855 0.779647 1.92205 
-4.85304e-18 1.39467e-17 1 

-4.33106 -2.22068 0.068571 
0.525353 1.14773 0.216473 
1.86428e-17 -3.25619e-18 1 

-0.422536 -0.441097 -0.0966511 
0.130321 0.320316 0.167091 
-2.34663e-18 -1.07178e-18 1 

-0.348172 0.222869 -0.0953658 
0.00620281 0.123807 0.243086 
7.77269e-18 5.65287e-18 1 

-0.166732 -0.079543 -0.0976263 
0.0568118 -0.0804097 -0.326763 
6.85638e-18 6.77934e-18 1 

-0.277728 -0.121323 0.023561 
0.0401637 0.00289794 0.717471 
-1.63212e-18 -5.19981e-18 1 

-0.237327 -0.00362455 -0.210902 
-0.121293 0.0421477 -0.0447438 
-5.45903e-18 -1.1172e-17 1 

-0.125254 -0.112619 0.0631302 
0.0686344 -0.0136928 -0.107942 
3.42987e-18 -3.46214e-18 1 

-0.133334 0.502069 -0.162385 
-0.140853 0.0362692 0.136496 
-1.47194e-17 3.02453e-19 1 

-0.738934 0.228189 1.87195 
-0.537887 0.159103 -0.425904 
-5.96084e-19 5.50864e-18 1 

-0.515894 -1.21809 -0.0098619 
0.461289 0.385573 0.430902 
2.98961e-19 -6.64224e-18 1 

0.203932 -0.928337 1.19845 
0.913741 0.537413 1.12615 
1.3341e-18 1.44989e-18 1 

0.21891 -0.81987 0.237529 
0.745421 0.362199 -0.289799 
1.09603e-17 1.28501e-18 1 

-0.164517 -0.113329 -0.0138375 
0.0270245 -0.0889249 -0.184385 
-5.59321e-18 9.26376e-18 1 

0.0779724 -1.19651 1.38042 
0.734318 0.607336 4.83906 
8.39879e-18 4.41375e-18 1 

-2.58548 -0.764943 1.7385 
0.381463 0.577008 -1.77217 
2.1786e-18 -1.77011e-17 1 

-0.294264 0.178335 0.11728 
0.0363268 -0.0088743 -0.199577 
1.00518e-17 7.35305e-18 1 

-0.708206 0.0259796 0.144314 
-0.0682395 0.175005 0.211422 
-5.71373e-18 1.36633e-18 1 

-1.35546 -0.198259 -0.177492 
-0.139292 0.524676 -2.00929 
1.61168e-17 5.36111e-19 1 

-0.166869 -0.0079774 1.04089 
0.0365945 -0.0387491 -0.660616 
7.13419e-18 -5.46765e-18 1 

-0.717319 0.0389981 -0.334961 
0.0583963 0.220733 0.0147227 
2.02844e-17 -2.78237e-18 1 

-0.318312 0.0883221 -1.35718 
-0.124255 -0.103322 0.311222 
1.19118e-17 -3.25792e-18 1 

-0.55845 0.171098 1.31011 
-0.368034 0.214791 0.771346 
4.51564e-19 2.56263e-17 1 

-0.506682 -0.915068 0.18101 
0.554249 0.580439 0.0599904 
-2.55743e-18 3.16977e-18 1 

-0.0992534 0.0193398 -0.832139 
-0.051484 -0.0761932 0.836974 
3.67057e-18 6.41491e-18 1 

-2.47772 -0.115222 -2.39078 
-0.340786 0.762613 -1.40135 
-3.143e-17 -4.95177e-18 1 

-2.66346 -3.81219 -4.35972 
0.0516267 0.106756 -2.07998 
1.78962e-17 -1.60681e-17 1 

-0.310451 0.243643 -0.0673738 
0.037328 0.112768 0.328686 
1.95591e-17 3.81022e-19 1 

-1.08768 -0.577278 -0.94516 
0.11333 0.466633 -0.876522 
-7.14472e-18 -1.32224e-18 1 

-2.04625 0.366796 -5.13234 
-0.051593 0.430404 -0.804732 
-9.76301e-18 4.61916e-18 1 

-0.677964 -0.196372 0.418271 
-0.352146 0.0457346 0.463302 
1.60403e-17 1.12282e-17 1 

-1.61441 -1.99922 1.79022 
-0.259757 0.858318 2.61466 
9.91332e-18 -1.96303e-19 1 

-0.56275 0.0739 0.566668 
0.022534 -0.110331 -0.00548775 
1.11614e-17 -2.07792e-18 1 

-0.886735 1.83093 10.7671 
0.0787004 0.690007 0.669997 
-2.23874e-18 3.10935e-18 1 

-0.219916 -0.297005 0.0476609 
0.68922 0.0290276 0.597662 
6.40508e-18 9.14889e-18 1 

-0.157574 -0.284094 -0.378299 
0.358377 0.0894483 -0.0742519 
2.45196e-18 -1.30235e-17 1 

-0.451373 -0.295347 0.369099 
0.0422011 0.252611 0.51625 
-4.40205e-18 1.15298e-18 1 

-0.609102 -0.268329 -0.292213 
-0.142692 0.223646 0.148458 
-2.28717e-18 -1.303e-17 1 

-1.35264 0.140165 3.20041 
-1.20549 1.52165 -0.631956 
1.81091e-17 7.33345e-18 1 

-8.5278 11.4265 21.1077 
-1.63082 2.17387 0.615121 
-1.88229e-17 4.74366e-18 1 

-0.381213 0.0828519 -0.346305 
-0.148789 -0.0176232 0.168285 
-6.42767e-18 4.98744e-18 1 

-0.160577 -0.998029 -1.51316 
-0.179003 -0.0882223 0.908909 
2.88096e-18 -4.40617e-18 1 

-0.164956 -0.0297033 -0.679231 
-0.0233309 -0.000222676 -0.736018 
-1.19953e-17 -5.48501e-18 1 

-0.145532 0.0143221 0.469322 
0.00158437 0.0189631 0.0424911 
3.63651e-18 2.39388e-18 1 

-0.147056 -0.149533 -0.132727 
0.21252 -0.0216248 -0.515347 
-4.74535e-18 1.48323e-17 1 

0.0953718 -0.576111 -0.744285 
0.39807 0.0537557 -1.62487 
9.00736e-18 1.13357e-18 1 

-0.324286 0.249317 1.83046 
0.166785 0.237216 -0.301195 
-3.00895e-18 -1.02191e-17 1 

-1.72308 0.2807 -1.07686 
0.186348 0.643482 0.483037 
-5.92569e-18 -8.85447e-18 1 

-0.109724 0.129626 -0.104891 
0.0316846 -0.0904667 -0.417937 
-4.76557e-18 -3.31625e-17 1 

-0.134134 -0.0836195 -1.28812 
-0.0408255 0.042255 1.95649 
7.67394e-18 -1.71316e-19 1 

-2.64156 -1.08409 4.05298 
-0.102059 0.559182 -2.32594 
5.26171e-18 -6.81945e-18 1 

-3.86616 0.424878 -5.49112 
-0.712776 0.667929 -3.34917 
6.15475e-18 -3.33042e-18 1 

-0.20817 -0.0176094 -0.162393 
-0.00775713 -0.0532246 -0.43051 
-8.6336e-18 -4.0846e-17 1 

-0.548577 0.117155 -1.03746 
0.291109 0.0445362 0.795251 
-1.33956e-17 2.74506e-18 1 

-0.365153 0.137335 -0.322056 
-0.168325 0.127398 -0.417297 
-6.86272e-18 2.35586e-18 1 

-0.184317 -0.274876 -0.492059 
0.0904327 0.0777662 -0.0485438 
-1.3927e-17 1.80535e-18 1 

-0.988606 -0.0116411 4.4683 
0.250469 0.229724 -1.26733 
1.96699e-17 -2.15131e-17 1 

-0.472258 -0.512988 0.689169 
0.408395 0.243937 -0.228356 
8.82947e-18 9.77549e-18 1 

-0.253668 0.0981561 0.554224 
0.229281 -0.0100369 0.244953 
-6.36048e-18 -4.14395e-18 1 

-0.0760719 -0.467392 -1.84213 
0.512373 0.174122 0.134152 
5.86604e-18 9.52472e-18 1 

-0.173786 3.36893 3.30638 
-0.418187 1.17421 1.0351 
-6.10379e-18 1.02384e-17 1 

-0.259442 0.419125 1.25867 
0.00128974 0.254462 -0.683934 
7.34399e-19 -2.69154e-17 1 

-0.146912 -0.136448 -0.00553232 
0.0227142 -0.0642091 0.0439728 
-8.18455e-18 5.45637e-18 1 

-1.63411 -0.14669 -0.246372 