# vtk DataFile Version 3.0
Output file generated by Yade's KinematicLocalisationAnalyser
ASCII
DATASET UNSTRUCTURED_GRID

POINTS 13483 float
437.892 64.4347 -0.471911
532.135 94.1886 0.444905
105.867 6.15957 -0.447155
555.052 9.9277 0.419073
392.395 8.75027 -0.391023
268.103 58.2833 0.461133
139.399 7.15323 0.469261
418.217 33.5926 0.150966
386.062 26.3201 0.168184
508.578 16.8018 0.622289
183.498 9.59403 -0.124455
225.14 6.62687 0.325896
460.96 56.0071 -0.168543
459.664 16.0784 -0.128215
122.062 19.2808 0.509071
196.247 39.0265 0.463933
190.684 13.0543 -0.314526
249.309 11.6807 0.461371
283.336 45.108 0.442867
412.69 8.30844 0.576271
343.852 73.7514 -0.0948566
431.878 83.1391 -0.260132
545.825 62.8495 -0.499624
490.88 81.1356 0.499938
360.87 18.7559 0.356402
210.512 54.1023 0.140639
367.244 35.234 -0.480813
430.314 46.0727 -0.252191
41.1198 17.969 -0.618153
499.068 44.987 -0.452427
379.62 4.83026 0.306221
14.5433 24.9755 -0.288499
539.395 80.8776 0.260692
390.873 2.46426 0.509677
70.6764 47.3246 -0.122997
381.938 42.5755 0.403798
416.879 18.7831 -0.505226
289.023 29.9039 -0.178956
389.789 45.6356 0.311916
292.282 50.2657 0.502505
211.656 15.3236 -0.409252
341.097 52.0926 0.075209
486.155 29.8606 -0.156755
168.572 6.71319 0.411847
49.0499 8.23871 -0.083684
60.4797 9.62253 0.272459
486.056 12.0011 -0.645927
21.6189 12.3282 0.310305
453.456 93.433 0.351514
479.63 49.9435 0.341322
152.59 40.3522 -0.301945
522.168 84.1832 -0.120569
31.7254 30.9174 -0.128629
421.065 2.57355 0.367326
126.268 7.37393 -0.516166
439.884 75.2721 0.375917
369.966 43.7053 -0.128647
156.679 1.46123 -0.299063
29.8312 2.58903 0.302427
294.003 24.212 0.253236
465.304 97.714 -0.134364
361.844 41.3321 0.17198
317.055 0.982694 0.474571
494.666 7.76143 0.360439
22.5057 45.3881 0.265152
225.414 38.283 -0.313227
510.187 9.32558 0.558424
469.833 89.8971 0.354808
328.733 11.1997 -0.662792
428.244 14.741 -0.426996
515.896 69.0238 0.407717
116.434 7.72136 -0.286643
382.199 27.8749 -0.173111
375.113 13.8927 -0.447813
255.698 18.4146 -0.433626
18.931 14.2585 -0.302027
534.963 69.1063 0.314607
274.413 52.1448 0.289951
481.198 46.1108 0.330546
487.975 21.2282 0.27329
542.007 32.6457 -0.352743
362.735 45.3548 0.17239
84.2531 42.5217 0.288706
486.05 90.9285 0.220214
455.295 70.1484 -0.122945
550.042 67.0231 0.146216
555.614 0.717728 -0.663652
253.697 34.6442 0.445568
451.929 6.66493 -0.202197
23.034 6.37692 0.647736
117.838 41.3151 -0.166887
404.833 15.8376 0.324005
531.144 54.9306 -0.518428
172.362 31.8606 0.260858
39.744 41.2922 -0.303043
389.761 1.12277 0.142669
207.535 9.10621 -0.482811
506.769 91.6991 -0.262725
527.817 64.3128 0.266631
296.026 34.7026 0.293471
147.258 33.2303 -0.446193
395.975 68.4248 -0.4413
310.371 35.1589 -0.546356
338.794 60.9051 0.0947989
310.519 17.7766 0.390396
400.409 30.7087 0.100095
553.147 25.8362 0.325207
72.7315 42.0141 -0.428731
287.816 7.29846 -0.411794
413.211 33.0135 -0.462883
296.774 65.1103 0.451552
22.6722 26.6388 -0.448182
28.4484 6.15124 0.402375
416.444 63.8696 0.407774
390.965 25.6214 -0.167232
22.3666 38.8896 0.435981
85.5234 33.6415 -0.21986
278.499 19.3729 -0.379378
441.26 34.5048 -0.127983
364.329 61.1612 0.305642
523.681 7.51643 -0.601769
516.511 8.15307 -0.332516
324.254 65.1948 0.100082
457.841 41.4317 -0.130311
209.884 17.816 0.573849
285.08 5.53812 0.646151
94.9353 36.381 -0.327777
103.677 25.3192 0.289067
391.181 67.2723 0.0869627
265.332 18.8087 0.670801
486.485 57.9623 -0.105517
473.932 93.31 0.106165
377.812 20.7926 -0.459374
521.233 36.9759 0.385993
336.688 37.4642 0.275531
241.773 27.0199 0.339101
476.251 76.0549 -0.277391
245.319 34.0843 0.412432
427.42 37.9435 -0.228599
276.224 46.675 -0.218521
399.751 13.2679 0.624899
308.794 53.617 0.0938201
340.48 20.2828 0.185395
271.557 66.3011 -0.441849
168.577 33.4 0.12836
533.23 89.0543 -0.145224
550.782 27.9301 -0.265437
5.84345 12.3685 0.443247
341.745 27.255 -0.466988
35.5627 25.3419 0.0736764
315.531 56.6693 -0.483855
324.386 43.9494 -0.304554
66.1828 13.5616 -0.524198
45.4899 42.0691 0.605353
200.096 14.9925 0.587699
441.654 47.6609 0.461148
423.539 50.6871 -0.535736
66.1576 24.19 -0.491363
493.542 77.9355 0.425968
546.062 3.94448 -0.592319
468.09 81.0736 0.443976
490.196 1.85267 0.653421
403.994 56.3842 0.415726
433.157 84.1809 0.448186
407.813 19.7295 -0.471549
553.162 9.27041 0.401663
199.467 29.4022 0.121723
112.984 38.8822 -0.190704
218.766 7.92161 0.623267
83.4035 4.89417 -0.266851
57.078 11.5229 0.231043
243.69 42.8392 -0.403244
15.3784 26.9966 -0.39097
409.419 43.9154 -0.408349
454.626 88.5453 -0.194288
367.662 24.7691 -0.408245
553.649 90.5902 0.346092
323.023 9.45175 0.16453
338.84 43.7672 -0.481023
427.706 4.10902 -0.412891
20.8707 25.5304 0.431229
426.249 22.0806 0.420564
434.677 7.00546 0.560579
182.48 12.4856 0.543517
337.583 19.1335 -0.291941
271.905 6.06673 0.434107
319.572 37.6024 -0.396894
505.542 77.8115 0.109483
170.408 29.0032 -0.420475
536.838 23.024 -0.458418
509.105 77.0272 0.310239
315.228 27.4905 -0.180165
509.294 2.4678 -0.498792
438.984 41.9768 -0.500707
528.994 18.0465 -0.594192
349.676 57.0549 -0.308173
395.261 13.8605 0.542269
355.072 61.6246 0.149595
355.328 11.5612 -0.233129
471.414 83.0879 -0.265344
472.176 78.9928 -0.318096
172.469 43.8333 -0.352506
539.854 32.6412 -0.19792
434.921 85.6552 0.241369
9.98051 17.9471 0.280845
329.45 45.5072 0.354614
166.333 26.2019 -0.420625
84.9643 44.2764 -0.213628
528.801 53.4316 -0.43483
462.161 84.3217 -0.282341
275.043 30.65 0.429584
424.796 9.91969 0.407016
75.2601 47.2227 -0.201736
219.405 30.9746 -0.465886
409.486 49.7296 0.369993
387.329 19.5107 -0.633479
232.783 0.840325 -0.486236
405.006 71.6946 -0.376905
384.015 65.935 -0.439083
373.897 67.583 0.408359
399.427 2.48471 -0.645817
496.35 20.6656 0.448008
160.272 15.3887 -0.216909
389.63 76.8515 0.413142
415.53 71.6696 0.114724
65.4582 0.92358 0.360397
223.535 5.09248 0.181969
550.318 31.3947 0.23891
542.059 34.6739 -0.469977
555.182 31.1806 -0.663524
264.896 8.45813 -0.251545
507.801 43.7551 -0.527795
347.86 78.6483 -0.101228
355.758 0.839682 0.6468
461.457 70.937 -0.471588
23.6104 32.5692 0.31933
275.959 52.7296 0.459485
224.322 3.29089 0.479648
541.12 76.8189 0.170093
496.64 71.6863 0.251072
251.679 13.0739 0.262314
468.675 67.8543 -0.102663
436.953 5.41009 -0.565938
431.628 11.2573 0.522573
86.6375 19.0762 0.496043
264.461 1.00843 -0.26466
295.001 3.08193 0.579363
13.2121 7.79107 0.532271
4.84399 33.9536 0.232852
145.405 20.3769 0.35674
62.3956 45.8499 0.243802
58.6751 33.363 0.329516
336.982 16.1874 -0.604613
309.736 60.3828 -0.531756
519.146 88.7691 -0.114005
18.9516 4.24055 -0.273653
62.5757 7.00748 0.139001
446.929 54.7499 -0.166149
256.269 0.923865 0.465771
300.528 29.8784 -0.108565
209.946 5.10505 0.447166
465.457 38.6389 0.205535
358.71 10.8755 0.477765
529.614 28.1735 -0.523808
457.986 44.5132 -0.341856
480.665 44.1629 0.0858981
336.339 49.5848 0.510672
90.7924 53.298 -0.306688
393.948 71.9134 0.0672066
527.543 12.8759 0.396602
211.841 35.6273 0.222443
29.4758 19.4428 0.219179
290.261 17.4142 0.652455
96.806 49.3007 0.46918
239.075 48.8247 0.191831
340.232 2.55988 -0.230773
531.812 58.9682 0.47655
484.073 4.78127 0.611046
287.932 5.88288 0.683973
261.738 32.1891 -0.155131
357.027 58.9236 -0.265567
72.7205 9.6919 -0.552148
179.271 49.4562 -0.414902
526.73 69.3114 0.392328
384.101 78.1381 -0.0649058
179.488 44.4162 -0.254007
142.464 48.4868 0.442819
556.496 58.8867 0.446489
552.414 27.2303 -0.584278
445.121 6.24221 -0.629359
169.008 27.9428 0.127808
405.67 55.5395 -0.114977
406.724 58.5904 0.268633
327.734 5.72466 -0.249191
385.009 1.03522 0.540282
520.11 93.9196 -0.502347
78.2593 33.5819 -0.234449
469.262 38.2753 -0.537569
240.909 18.7497 -0.524196
9.00918 2.40514 -0.316055
112.223 40.8532 0.214212
58.3407 26.7297 0.482752
483.066 68.0226 0.317616
548.031 84.5857 -0.168207
166.715 34.7401 0.164189
550.267 34.2152 -0.452346
40.4528 43.736 0.251931
84.4538 32.009 0.156755
467.085 17.3854 0.475467
331.004 19.4401 -0.592173
414.96 18.48 -0.226478
211.281 33.7224 -0.183896
458.64 4.59074 -0.614481
555.169 26.0939 0.449766
26.9825 34.0217 -0.255891
236.831 10.1688 0.190046
197.973 15.865 0.33671
1.0723 39.3103 -0.164032
201.029 15.6315 -0.472286
188.305 11.3274 -0.180688
192.837 27.8742 -0.280301
119.082 31.3592 -0.124087
405.353 38.2408 -0.295309
150.432 15.8646 0.356734
536.948 81.5035 0.259548
158.041 5.09198 0.661904
41.7646 46.6202 -0.36026
499.045 85.4574 -0.485851
250.082 38.5192 -0.413217
485.078 50.7114 0.474515
536.855 61.2298 -0.54041
263.113 9.21068 0.168141
506.33 56.1343 -0.338476
286.089 2.3981 0.629621
336.629 33.2817 0.414285
486.664 44.8046 0.482706
95.0711 12.512 -0.559848
387.079 3.8226 -0.549803
516.904 34.4123 0.197405
78.5469 8.0086 0.29791
247.856 17.1957 0.231252
338.074 14.4629 -0.306096
553.377 13.2446 0.572639
320.821 0.877399 -0.637677
159.35 47.6724 0.356826
530.057 10.2632 -0.524864
115.074 39.6678 0.218847
233.182 36.9206 -0.386213
328.338 42.4834 0.249312
427.864 40.9962 0.497508
319.031 24.0577 -0.617227
359.756 34.1051 -0.415822
531.737 92.6961 0.367017
43.1959 12.3445 -0.199246
264.838 48.1076 0.258285
315.917 47.8619 -0.394784
329.371 23.0413 -0.37354
374.429 57.6217 -0.387886
513.428 93.889 0.225906
477.081 82.6494 -0.356559
202.756 42.2512 -0.43743
10.3931 35.4365 0.170322
470.737 77.6432 0.144843
400.316 81.3939 0.428792
206.312 47.0787 0.104329
477.458 74.2929 -0.123487
136.708 9.42371 0.223109
302.677 37.5114 0.322557
357.055 60.9401 -0.146277
330.879 21.7543 -0.205484
530.423 98.107 0.290741
341.018 5.47291 0.605891
44.2758 31.0388 -0.350181
367.37 54.2265 0.368024
340.339 48.9839 0.354038
536.604 74.0465 0.242142
503.663 48.5662 0.27502
399.391 41.3254 -0.150567
529.547 82.7319 -0.519201
256.094 2.17251 -0.514887
316.91 55.2641 0.46984
25.1512 41.0233 0.34626
512.641 61.0714 0.166653
451.63 25.5786 -0.573863
368.633 0.736158 -0.608605
113.471 4.73756 0.387119
348.208 58.5736 0.0957897
11.3566 0.862217 0.327595
551.227 14.7838 0.135568
312.76 68.1667 -0.415178
[...]
POINT_DATA 13483
TENSORS Strain_matrix float
-0.0634606 -0.000606626 -2.55905 
-0.0537549 0.0194687 -0.912764 
-0.00326425 -0.00549321 -0.216185 

0.0151005 -0.0268046 0.146931 
0.00847711 -0.00582302 -0.591082 
-0.00148755 0.00234672 0.000102741 

-0.032366 0.0296708 -0.125464 
0.00652777 0.00719264 -0.0174716 
0.00200941 -0.0046479 0.10695 

0.058718 0.002861 -0.0192381 
0.0249178 -0.198626 -0.00572066 
-0.00881449 -0.0230628 0.111662 

0.0175259 0.00566187 0.0196027 
-0.0242422 -0.00523653 0.00791664 
-0.00542527 0.00223058 -0.0173422 

-0.140042 -0.504726 -11.8633 
0.308722 0.125311 -8.4865 
0.0013026 -0.015038 0.0399645 

-0.0206223 -0.0109848 0.0681728 
-0.0084081 -0.0147663 -0.0418733 
-0.000203869 0.00133939 0.0857907 

-0.0075 0.0428911 -0.0475937 
-0.0215244 -0.00455323 0.0118119 
-0.00139196 0.000994778 0.0208118 

0.0160057 -0.176921 0.322958 
-0.0349694 -0.0148487 -0.11327 
0.00697573 0.000598869 0.0546383 

0.00454122 -0.012385 0.104682 
-0.0176702 0.0177621 0.317744 
0.00180818 0.00722251 0.121182 

-0.0251393 0.0440879 -0.0152344 
-0.0545062 0.0046551 0.00889552 
0.00150969 -0.000648653 0.0487107 

-0.0307455 -0.0679489 0.0318894 
0.065321 -0.00386862 -0.0253514 
-0.00237926 0.00171326 0.088267 

-0.14754 -0.0672538 -0.361474 
-0.269698 0.0632221 -0.261285 
-0.0418019 0.00032116 0.276664 

0.000784512 -0.0034475 0.0119864 
0.0154582 -0.0155046 0.00131726 
0.00175139 -8.54084e-05 0.0212834 

0.00938173 0.0476893 0.722863 
-0.0162999 -0.024953 -0.883328 
-0.00990786 -0.0154585 -0.138748 

-0.215859 -0.297445 0.584841 
0.257917 0.197182 -0.677855 
-0.0257319 -0.00584978 0.170258 

-0.0169643 0.0483632 -0.00544642 
-0.0353647 -0.00303231 0.014077 
0.00116997 -0.00096315 0.033842 

-0.0989768 0.0284218 0.158428 
0.0150112 0.0557362 -0.0536629 
-0.00482098 -0.000220386 0.183154 

-0.00907315 -0.111527 2.16919 
0.337598 0.0480284 -0.414739 
-0.175993 -0.0404121 0.312565 

-0.0529308 -0.0488809 0.267434 
0.0473139 -0.0374901 -0.0374467 
-0.0071671 -0.0285181 0.20754 

0.0771727 0.340944 0.012431 
-0.355873 0.0412942 0.00598297 
0.00885262 -0.0237436 0.0761156 

0.0016692 -0.0434988 0.0271655 
0.0270439 -0.00312265 0.0335338 
0.000161262 -4.86167e-05 -0.0015267 

-0.00873453 -0.0348454 0.151915 
-0.0174183 0.00201432 0.116851 
-5.29264e-05 0.000687481 0.0534354 

-0.0374495 0.0508437 2.84537 
-0.0356273 0.0338757 3.33252 
-0.000214702 -0.0014972 0.0268009 

-0.0200785 -0.0550378 -0.00423406 
0.0605641 0.0104238 -0.0204548 
0.00334657 0.00105658 0.0196781 

-0.0618746 -0.211022 0.0638104 
0.24246 0.181778 -0.170393 
0.0803016 0.0373672 0.274984 

0.0461141 -0.0581395 -1.1826 
-0.083825 -0.0361606 -0.648982 
0.00290609 0.00145844 0.0455404 

0.0302595 -0.086825 -0.240817 
-0.0174016 -0.0658146 -0.39276 
-5.96465e-05 -0.00159224 -0.00101394 

-0.0959801 0.0229926 -2.63194 
0.0119943 0.0774316 1.03668 
0.00265661 0.00456479 0.919236 

0.0399202 -0.0625844 -0.444607 
0.0368972 -0.0974677 -0.51491 
-0.00699059 0.00858688 0.0757623 

0.010805 -0.148172 -0.0599193 
0.160102 0.126055 -0.194386 
0.0551787 -0.0115148 -0.0602216 

-0.00877689 -0.00254132 0.104355 
0.0646597 0.00553543 -0.171092 
0.0014596 0.00111529 0.00967512 

0.00651515 -0.00668598 0.0117039 
-0.00375561 -0.0022574 0.00775313 
-0.000429387 0.000142626 -0.00932325 

-0.161204 -0.124014 -0.0851362 
0.123992 0.0943902 -0.327121 
-0.041147 0.0482498 -0.0169735 

-0.032464 0.031665 0.0370513 
-0.0257141 0.0106301 -0.00309998 
0.000731315 -0.00145991 0.0381242 

-0.016268 0.0744374 -0.0993617 
0.150394 -0.0192257 0.0586031 
0.00143776 -0.00741745 -0.00433817 

-0.0691903 -0.122333 0.415713 
-0.0287773 0.0321174 0.575036 
0.0029268 -0.0213252 0.0610186 

-0.314534 -0.805808 -0.117896 
0.451854 0.504485 0.398987 
-0.0126944 -0.0109325 0.0415245 

-0.174513 0.144012 0.0628502 
-0.101756 0.154061 -0.275647 
0.0335221 -0.0105016 0.0662499 

-0.0293323 -0.161697 2.95291 
0.216503 0.0234932 -2.6627 
-0.00381465 0.00150033 -0.0236382 

-0.0910487 -0.094681 0.405011 
0.154219 0.0524857 -0.299184 
-0.0384915 -0.026696 1.26564 

-0.129876 0.290508 -0.33906 
-0.588299 0.0773224 -0.457603 
-0.0366099 -0.0881209 0.475388 

-0.0608256 -0.100655 0.0876398 
0.0682478 0.0361277 0.0803931 
-0.00313906 -0.00145696 -0.0105847 

-0.0154009 0.16202 -0.32621 
-0.177122 0.114238 -0.265854 
0.00670085 0.00766549 -0.0418095 

-0.0222665 -0.1324 -0.113625 
0.286204 0.119119 0.0675142 
0.0156394 -0.011841 0.0266453 

-0.18182 0.120924 -0.799156 
-0.113087 0.13609 -0.830497 
0.002572 0.0151012 0.12889 

-0.00990941 0.0782131 0.177215 
-0.210447 0.0223212 -0.405459 
0.00638315 0.0123803 0.0271225 

0.000712169 -0.0163869 0.00520278 
0.00976274 0.0090406 -2.91648e-05 
-0.000888735 0.00118693 -0.0115016 

0.0145465 -0.0266718 -0.224041 
0.0202395 -0.00851035 -0.1662 
0.00677626 -0.04714 0.20358 

-0.0204396 -0.0272686 0.0869228 
0.00398482 0.0492641 0.071447 
0.00417797 -8.67639e-05 -0.0408716 

-0.0706334 -0.0384954 0.388184 
0.0888835 0.0564398 -0.327264 
-0.0242634 0.0459788 0.0585974 

0.0223915 -0.0207216 -0.020607 
0.029388 -0.0227138 0.0506804 
-0.000519196 0.00102561 0.00820479 

-0.00695447 0.0184694 -0.0761813 
-0.0243414 0.0436639 -0.0227472 
0.00262646 -0.000667122 -0.0339794 

-0.0271325 -0.0111844 -0.0395689 
0.0311906 0.0168202 0.0180129 
0.00673655 -0.00450758 0.00126673 

-0.0477012 -0.00619484 -0.170139 
0.00786149 0.0153565 0.10802 
0.00349256 0.000772192 0.0344686 

0.00253352 0.0382861 -0.952754 
0.0983064 0.0222426 -0.688399 
0.00907365 -0.0147623 0.0401215 

-0.0238413 0.0386071 0.0251388 
-0.0109051 0.0124921 0.00656466 
0.000399563 0.0027215 0.0105225 

-0.0763614 -0.0590116 1.35738 
0.013673 0.0731294 -0.321123 
-0.0110838 0.116428 0.0857623 

-0.026597 0.103984 -0.106979 
-0.0376302 -0.00443365 0.0859813 
-0.00502255 -0.0485092 0.248722 

-0.119176 -0.296836 -0.71617 
0.171253 0.158646 -1.42775 
0.0247972 -0.00844235 -0.119208 

0.00362999 0.077784 -0.103257 
0.0181983 -0.152777 0.116432 
0.0622144 -0.167185 0.389329 

0.0136906 0.0648625 -0.0518422 
-0.0965662 -0.0214018 -0.0126366 
0.000127212 0.000431437 0.026041 

-0.270928 -0.650245 0.267008 
0.00443793 0.0900189 -0.0626646 
-0.0723909 -0.244834 0.542412 

-0.0390869 -0.0402554 -0.0686459 
0.0188583 0.0206997 0.120943 
-0.00429514 -0.001311 0.0910968 

-0.0540104 -0.0933469 -0.0117004 
0.0758875 0.0116454 0.004565 
-0.0240086 0.0333426 0.184374 

-0.439873 0.023898 -0.3206 
0.0749304 0.271751 -0.130408 
-0.0100924 0.0376333 0.0618997 

-0.0221372 0.0422786 0.0761325 
-0.0518208 0.0453096 0.497774 
-0.00279179 -0.0108385 0.0985579 

-0.068142 0.0456508 -0.528534 
-0.0113588 0.077698 0.340195 
0.00450741 0.000556085 -0.00595586 

-0.164986 -0.0999678 -4.73161 
0.0466267 0.0799221 2.66268 
0.033634 -0.0202889 0.201829 

-0.0156715 -0.141718 0.320889 
0.12122 0.170868 0.0494148 
-0.000516205 0.0148571 -0.0151472 

0.0220155 -0.100338 0.161195 
0.0839172 0.0922519 0.161953 
-0.00439286 -0.00102016 0.0817038 

-0.0677554 0.0706875 0.0227726 
-0.0228051 -0.0231306 -0.115597 
0.00374441 0.00404123 0.117078 

0.0101711 -0.137473 0.0168098 
0.122062 0.0111194 0.0131541 
-0.00303918 -0.00139146 -0.00318096 

-0.010163 0.0236021 0.0351686 
-0.0616915 -0.0345722 -0.111311 
0.00730878 0.0278797 0.106763 

-0.188307 0.00783735 -0.142891 
-0.160474 0.133198 -0.514105 
-0.000501854 -0.0140755 0.117617 

-0.00987232 -0.0130472 -0.00110152 
-0.00417686 0.00259366 0.0113519 
0.000705359 0.000779938 0.0107527 

0.0239477 -0.0122368 0.141857 
0.0369646 -0.000754142 0.0633858 
-0.00178515 -0.00133473 0.000486314 

-2.83581 1.64689 0.378651 
-1.53994 1.09504 -0.730028 
-0.122889 -0.0828573 1.1737 

-0.0853251 -0.180278 -0.183556 
0.176028 0.139748 -0.0599255 
-0.00717995 -0.00916326 -0.000712353 

0.00870788 -0.0333783 -0.128675 
0.0811092 0.0167451 0.0052662 
0.00183385 0.0757912 0.148836 

-0.00769277 0.0277529 -0.0203387 
-0.0251107 0.0271916 0.0478701 
0.00276375 0.001458 0.00977176 

-0.0105441 0.0343062 0.0054264 
-0.0511284 -0.0152905 0.00662145 
-0.00136108 -0.000930153 0.0842012 

0.000950144 0.012342 -0.15249 
0.100995 0.00129005 0.222639 
0.00582267 0.0242392 -0.119919 

0.067149 0.0960684 0.549398 
-0.0446477 0.0274218 -0.405009 
0.0232405 -0.0174654 -0.195244 

0.00447717 -0.0386327 -0.0321547 
0.0267427 -0.00036188 -0.00149611 
0.00180067 0.00197357 0.000552323 

0.00396897 -0.0112989 0.0252622 
-0.0122817 0.00562031 -0.0232203 
-0.00143609 0.00318039 -0.0241663 

-0.0697142 0.0433509 -0.00583931 
0.0485664 0.0173309 0.0167155 
-0.00492713 0.0163498 0.0282018 

-0.560692 0.501971 0.44241 
0.18632 0.329188 -1.42729 
0.0685109 0.0189683 -0.0758956 

-0.0532039 0.0084316 -0.0947302 
0.0785965 0.00538478 0.0558929 
-0.0124216 -0.00752414 0.0489688 

-0.0133162 -0.0123364 -2.15433 
-0.00564567 0.0145624 3.32858 
0.0026069 -0.00582611 -1.01402 

0.0107729 0.0794672 0.000429726 
-0.0867708 -0.00445993 0.00194798 
-0.00356731 -0.00847715 0.00416158 

-0.0538264 -0.0119673 0.0350482 
-0.00606058 0.00976992 0.0171726 
-0.0037815 0.00124358 0.0487298 

0.0232376 0.0150252 0.0461936 
-0.0224433 -0.0130858 0.258056 
0.0002023 -0.000466011 -0.0224142 

0.0685277 0.184794 -0.559835 
-0.128921 -0.0650072 0.0309708 
0.0189129 -0.00629916 0.0582846 

-0.0284965 -0.0832419 -0.0660102 
0.12356 0.0181185 -0.0173094 
0.0317876 0.0302238 0.570068 

-0.017799 0.0870293 -0.298517 
0.0173852 0.0323953 0.113871 
-0.002518 -0.0288262 -0.0152941 

-0.0313393 -0.0233125 -0.0843034 
0.0510792 -0.00808086 -0.0101918 
0.000667406 -0.0039358 0.0514573 

-0.00316854 -0.0253243 0.0126027 
0.01217 0.00220299 0.0122384 
0.0264171 0.00719395 0.14127 

0.0448259 -0.125768 -0.0940369 
0.103647 -0.0138756 -0.0170463 
0.0024831 -0.00191834 0.0281734 

-0.169536 -0.339045 -1.37654 
0.581166 0.00599903 -1.28919 
0.0125082 -0.0138843 0.0127896 

-0.114982 0.294758 4.12624 
0.168578 0.0236192 -2.24347 
0.000761957 0.000861523 0.133049 

-0.0791764 0.138577 -2.3595 
-0.0814541 0.0469524 -1.10438 
-0.0090184 -0.0232941 0.136833 

0.0382667 -0.11694 1.23986 
0.077179 -0.0113656 0.66676 
-0.00101343 -0.00913467 0.173754 

-0.491654 0.416685 0.307836 
-0.77118 0.432251 -0.0890954 
-0.00300759 -0.0005437 -0.016187 

-0.753256 -0.387364 1.4714 
0.481912 0.23488 -2.23841 
-0.0327992 0.0624642 0.694726 

0.0192667 -0.130544 -0.0514404 
0.0758641 -0.0129568 0.17921 
-0.00469698 0.000848765 -0.00400416 

-0.00491122 -0.00314621 0.00746652 
-0.00721507 0.00323095 0.0151638 
0.00269386 -9.47029e-06 -2.53067e-05 

-0.00291381 0.0161989 -0.452341 
-0.0104339 -0.00352304 -0.478191 
-0.000229842 -0.00135402 0.0339633 

-0.00134849 -0.0407764 -0.0507214 
0.015539 0.0259854 -0.0862432 
0.0768287 0.0323328 0.220834 

-0.0598496 0.0722694 -0.136871 
0.00938273 0.0142842 0.0487263 
0.0163479 0.0203654 -0.217547 

-0.279529 0.461763 13.473 
-0.055648 0.473799 10.1837 
-0.0093757 -0.00638317 -0.354712 

-0.0235997 0.0399751 0.310995 
-0.00877017 0.0146614 -0.013896 
-0.000682906 0.000240476 0.0106616 

-0.0156274 -0.0124025 -0.248201 
0.0256147 0.0176763 0.0278004 
0.0132239 0.011885 0.026518 

-0.0234714 -0.0481928 -0.553347 
0.0288639 0.0836275 0.150419 
-0.016412 -0.0117683 -0.130113 

-0.162542 -0.229814 0.384879 
0.052955 0.0935724 -0.484479 
-0.00399317 -0.0420661 0.169231 

-0.00216074 -0.0759207 0.122131 
0.0852509 -0.0120223 0.857976 
0.0018646 -0.000125449 0.127367 

-0.000779741 0.0299785 -0.046704 
-0.060739 0.0459782 -0.320979 
0.00945035 0.00411673 -0.038895 

-0.0627021 -0.0945597 -0.19051 
0.0562662 0.00665024 0.179603 
-0.0281687 -0.0866913 0.42798 

-0.0203885 -0.0134021 0.0795392 
-0.0105889 0.0218354 -0.0443308 
-0.00692022 -0.00261788 -0.0227313 

-0.00582855 -0.00190826 -0.218314 
0.132217 0.0110181 -0.0755113 
0.0224946 0.0170757 -0.163554 

-0.0343767 -0.0159103 -0.00546154 
0.0487301 0.01186 -0.125942 
-0.000816902 0.0113696 0.0394171 

-0.000647611 -0.00763816 0.0059905 
0.0145324 0.0113211 -0.0128557 
0.00216452 -0.00363729 -0.01405 

0.0073225 0.0843282 0.0926447 
-0.0489733 0.0123639 0.00173233 
-0.0236897 -0.0216017 0.0970662 

0.0266198 -0.20083 0.139911 
0.0572049 -0.0171658 -0.180083 
-0.00117228 0.00198312 0.00782101 

-0.138855 -0.0547445 0.383816 
0.158023 0.158069 -0.39682 
-0.0119307 0.0619342 0.129891 

-0.0154759 0.0638297 -0.298114 
0.0609805 0.102777 0.477121 
-0.0250927 0.00385963 0.0763029 

-0.168534 0.0348386 1.09549 
0.0471331 0.109382 0.471901 
0.0083039 0.0416843 -0.100476 

-0.0423829 -0.0332709 -0.108682 
0.00742923 0.026536 0.270114 
0.0012704 0.000390359 0.0419429 

0.0538854 -0.0185273 -0.207214 
0.0211294 -0.0438719 0.0444114 
0.0344032 0.0053563 0.258453 

-0.0551607 0.00974807 -2.3498 
-0.282082 0.0670505 2.17353 
0.0282644 0.0114007 1.01671 

0.00673146 0.00656671 -0.0199976 
-0.0201899 -0.0118131 0.00872089 
0.00121247 -0.000100677 0.00764051 

0.00342159 0.122167 0.0914641 
-0.0788953 0.00046659 -0.0553887 
-0.0978636 -0.0284764 0.338947 

-0.0209247 -0.033772 0.170766 
0.0335651 -0.00702557 0.158632 
0.000590746 0.00293257 0.0500139 

-0.0117797 -0.0261562 -0.0145259 
0.0453115 -0.00554758 6.86089e-05 
0.00498786 0.00628218 -0.00627774 

-0.620473 -1.16549 0.0557852 
-0.492675 0.0920695 0.00434707 
0.00330231 -0.0166614 0.486179 

-0.207763 0.35213 -0.372491 
-0.088001 0.176437 0.635388 
-0.0248578 0.0171869 0.00655156 

-0.285152 0.275947 -0.367973 
-0.430605 0.386011 -1.06796 
0.00146337 0.0113832 0.117588 

-0.0448109 0.243688 -0.572402 
-0.0018709 0.0848466 -0.0334662 
0.0165427 -0.000332251 -0.100644 

0.011971 -2.4104e-05 0.100182 
0.0107369 -0.00676455 -0.0864775 
0.000975228 -0.00109424 -0.0260153 

-0.134743 -0.408244 0.183585 
-0.0211803 0.0229482 -0.856423 
-0.00809854 -0.0992937 0.871967 

-0.033165 -0.0345503 -0.141689 
0.040905 -0.0266235 -0.206653 
0.00892398 -0.00680026 0.0386166 

-0.0776728 -0.126071 0.51702 
0.0570305 -0.065056 0.137354 
0.0641531 -0.0171504 0.054662 

0.00237252 0.133235 -0.0617696 
-0.127167 0.00794334 0.0879271 
0.00864009 -0.0109187 -0.000559928 

-0.0110615 -0.147517 23.19 
0.24605 0.123533 20.4783 
0.00249714 -0.017592 0.545833 

0.124424 0.275509 1.11922 
-0.329025 -0.00897932 0.78027 
0.00644355 -0.000292679 0.00446949 

0.00357935 -0.0100918 0.00789585 
0.0071414 0.00158122 0.00117845 
-0.000146952 -0.00122275 -0.0127317 

0.0037907 -0.00423958 0.00167298 
-0.0129392 0.00564931 0.0177357 
-0.00247157 -0.00108484 -0.00819268 

-0.00385586 -0.0136404 -0.016577 
0.0100731 0.000683451 0.0254565 
0.00111007 0.00154564 -0.00248909 

-0.0763537 0.0131783 1.22943 
-0.083075 0.0781895 -1.68736 
-0.0183714 0.0196634 0.0200643 

-0.0482117 0.202723 0.299672 
0.0140292 0.00320563 0.158689 
-0.000750167 -0.00033639 0.0137093 

-0.350253 -0.00148474 -1.91467 
0.142686 0.201045 1.64302 
0.00618656 -0.000279365 -0.191198 

-0.0825094 -0.426892 -1.50789 
0.0376897 0.106388 0.0984436 
-0.0102033 0.00558715 0.0614493 

-0.101731 0.0582751 -0.571885 
-0.0845545 0.0591837 -0.502258 
-0.00433184 0.00255071 0.207319 

-0.0745197 0.0162549 1.70412 
-0.0099371 0.038384 1.14307 
-0.00089486 0.0032909 0.0913922 

-0.0375019 0.041104 -0.243643 
-0.0128672 -0.0133325 -0.152227 
0.00162429 0.00166143 0.208154 

0.0350942 -0.010277 -0.0555449 
0.0418107 0.0366312 -0.179802 
-0.00938487 0.00231338 -0.0208023 

-0.0433185 -0.0628259 1.74161 
0.0148908 0.0279742 0.221426 
-0.00219376 0.000215552 0.268639 

-0.0426653 0.0428545 0.311045 
-0.0681139 0.0305414 1.24223 
0.00203408 0.00344135 -0.0455136 

0.00905349 0.00694859 -0.0519231 
-0.0138701 -0.0062154 0.178616 
0.000156342 -0.000860936 0.00501042 

-0.129141 0.0371902 -0.0353359 
-0.0378301 0.0235338 -0.0455851 
-0.00891 -0.00557565 0.0427703 

-0.00584892 -0.00794659 -0.1732 
0.0383698 0.0308099 -0.0218733 
0.00136522 0.000431747 0.106796 

0.00709141 -0.0179337 0.00306839 
-0.0108377 0.00637969 -0.00189846 
0.00597979 -0.0186569 0.0237146 

-0.0958191 -0.418581 0.294731 
-0.106367 0.0921051 0.344415 
-0.014849 0.0113811 0.171319 

-0.103142 0.17718 3.79379 
-0.0722416 0.247807 5.63382 
-0.00180431 -0.000516033 0.0600676 

-0.0942192 -0.0900791 -0.0212323 
0.0685847 0.0466744 0.281479 
-0.00931078 -0.0135547 0.186156 

-0.0866074 -0.180243 -0.145472 
0.0940152 0.0481637 0.319606 
0.0309811 0.0223778 0.0900353 

-0.142991 -0.0995045 1.02098 
0.167063 0.0656653 -0.335711 
-0.00312581 0.000187 0.00749917 

0.00659295 0.0946799 0.00663259 
-0.0801616 0.00543155 0.0278092 
0.000101638 0.000565546 -0.011169 

-0.0890662 -0.00495176 0.133098 
-0.0297933 0.0749645 0.853503 
-0.00323512 -0.00336776 0.0442123 

-0.00411192 -0.00980263 0.00343819 
0.000468379 0.000457631 -0.0497565 
0.000364684 -0.000838346 0.00689998 

-0.0551407 -0.0395591 0.0971697 
-0.14901 0.0312726 0.0104141 
-0.00142876 0.00748408 0.0583702 

0.0219925 0.00121368 -0.0857923 
0.0348037 -0.00583697 -0.163883 
-0.00112682 -0.00165517 -0.00333211 

0.00636671 0.0612386 0.1592 
0.0458183 -0.0202307 -0.0383378 
0.001108 -0.000178156 -0.0152311 

-0.0106966 -0.0260353 0.0471298 
0.0176407 0.00666361 -0.00930097 
0.00274019 -0.000303421 0.00799569 

0.00661886 -0.0311585 0.00409709 
0.0206879 -0.000983992 -0.0105079 
0.016508 -0.00943455 -0.0636851 

0.12576 -0.00983124 0.32738 
-0.361013 -0.15655 0.025311 
-0.00495432 0.00565152 0.0714678 

0.00387478 0.000861765 -0.000369289 
0.00245869 -0.00380427 -0.0246566 
0.000610642 0.00127258 0.00220969 

-0.148036 -0.202602 0.40857 
-0.0308307 0.06055 -0.00214897 
0.0163467 -0.0328889 0.599116 

0.0064165 0.157093 -3.69813 
-0.265782 0.0482145 -2.1636 
0.0082711 -0.00267076 0.573607 

-0.0293171 -0.0235162 0.124789 
0.0438607 0.0325258 -0.176676 
0.00673423 -0.00304729 0.0503414 

-0.00499556 0.0339973 -0.028004 
0.0210475 0.0159819 -0.0273022 
-0.000116299 0.000888951 0.0226596 

-0.0428864 -0.019412 0.239619 
0.0168994 0.0251042 0.116294 
0.00899829 -0.00217176 -0.0293682 

-0.0190363 0.00891784 -0.12827 
0.0527571 0.080056 0.145471 
0.000480866 -0.00644939 0.025396 

-0.0222143 0.0608254 0.0393385 
-0.0656162 0.00246922 0.0785557 
0.00691368 -0.00301994 0.0609538 

0.028697 0.0556284 -0.0263943 
-0.0989459 0.0169991 0.041798 
-0.00238721 0.00150543 -0.0307089 

-0.00811894 0.0113859 -0.0352372 
0.0540835 0.00973593 -0.0730139 
0.00698587 -0.0110586 0.0159726 

-0.104564 -0.195411 0.296818 
-0.154926 0.0880948 -0.329199 
-0.032786 0.00176104 0.114361 

0.00146063 -0.0258796 -0.00315465 
0.00711673 4.48379e-05 -0.00405399 
-0.000231866 0.000192782 0.00211899 

0.152556 0.110164 -0.80131 
-0.213726 -0.0520987 0.246574 
-0.0122434 0.0365212 -0.157599 

-0.120105 0.00446871 0.352285 
-0.000540607 0.0131915 -0.402954 
-0.025832 -0.00831967 0.169002 

-0.00122964 -0.0293817 -0.0131006 
0.0129774 0.00185309 0.0301483 
-0.000443262 0.000413235 -0.00166406 

0.0260389 -0.00150051 0.202121 
-0.0262362 -0.00320343 0.377449 
0.00418133 -0.00101885 -0.120565 

-0.0145564 -0.00713817 -0.00103531 
-0.035257 0.0194965 0.000519833 
-0.00432888 0.00508155 -0.0059542 

-0.0109589 -0.011049 0.658651 
-0.0677729 0.0555931 0.763335 
-0.0093366 0.000181623 0.2825 

0.019166 -0.0653315 1.74721 
-0.0596756 0.0472005 -1.30174 
-0.0241521 -0.0580751 -0.118135 

0.0571196 0.160186 -0.356087 
-0.25908 0.077736 -0.288835 
-0.0125266 -0.00409386 0.196458 

-0.0338725 -0.0105959 -0.0192492 
-0.00656338 -0.00677784 0.00386277 
0.0033439 0.0010891 0.061849 

-0.0416023 0.0303021 -0.0237275 
-0.416416 -0.0210622 -0.0307633 
-0.0233205 -0.0013023 0.20576 

0.00785804 -0.00739307 -0.0207677 
0.0414839 -0.0245291 0.0234956 
-0.00295246 -0.00293768 0.0438514 

-0.0048395 -0.014237 -0.312609 
0.0154113 -0.00375988 -0.132898 
-0.0143869 0.00181084 0.108514 

0.0117776 -0.0447568 -0.788273 
0.055249 0.0194207 -1.04724 
-0.000553257 -0.0272053 0.273561 

-0.367062 0.331581 1.20577 
-0.37105 0.440705 1.14924 
-0.0160865 -0.00549491 0.360694 

-0.0304348 0.0246014 0.00237425 
-0.0416244 0.0452876 0.0295208 
-0.00223048 0.00809962 -0.0157283 

0.0102685 -0.0758357 0.106782 
0.0320102 0.00283677 0.0951453 
-0.000322276 -0.000250705 -0.00182247 

-0.00864175 0.0236111 -0.029477 