# vtk DataFile Version 3.0
Output file generated by Yade's KinematicLocalisationAnalyser
ASCII
DATASET UNSTRUCTURED_GRID

POINTS 13483 float
419.969 54.0798 -0.442049
525.262 88.6605 -0.454337
98.9254 6.01262 0.562043
547.702 26.4947 -0.250257
369.085 11.1071 0.307756
249.64 48.4981 -0.453818
126.746 6.99279 -0.471104
418.595 10.8242 0.142323
366.882 36.4292 -0.154853
499.948 25.92 0.528559
174.178 9.15273 0.19235
210.62 6.73306 0.325481
452.646 61.991 0.141339
444.607 38.0695 0.0958321
111.49 22.3401 -0.440673
180.266 44.5761 0.415261
180.448 14.4766 -0.264092
233.724 16.2463 0.488595
264.195 50.0091 0.433596
384.158 11.6486 0.495504
309.915 54.5298 -0.1011
403.585 73.0444 0.282673
551.813 65.1337 -0.482183
476.89 78.6377 0.466879
344.47 31.1991 0.335132
192.721 54.7797 -0.14814
361.43 43.2604 -0.495293
421.117 28.4645 0.285591
38.7938 19.3971 -0.535114
492.823 62.5049 0.326717
357.31 6.37984 0.634299
14.8989 25.4326 0.329122
531.549 86.6982 -0.236118
368.299 2.43685 0.471324
67.503 54.5974 0.105821
377.539 44.0289 0.400364
389.344 21.8021 -0.5505
268.404 33.9283 -0.187361
389.831 35.1227 0.374639
268.223 54.6445 -0.437737
200.259 16.6119 -0.34785
324.411 51.4067 -0.0685944
472.3 9.62322 0.159917
157.571 6.19684 0.384007
48.8467 7.50288 0.0838847
57.0905 12.6575 0.32952
483.493 10.1799 -0.594409
21.4455 12.831 -0.312294
417.624 78.1257 0.362573
470.054 43.4748 0.356867
145.53 39.725 0.296667
519.834 61.1388 0.12097
28.0375 33.1079 -0.113306
389.365 5.43229 0.321697
117.095 10.8893 0.565717
409.479 60.124 0.362137
368.98 41.1067 -0.146525
143.868 1.00369 -0.33245
28.7678 2.37931 -0.342859
273.255 26.0787 0.260217
424.413 74.4497 -0.15309
340.373 54.6541 0.183453
303.99 0.993648 0.195227
490.226 9.84152 -0.335411
19.2425 51.3231 0.247581
207.587 42.1282 0.296504
502.652 20.0593 -0.265375
462.526 85.2408 0.353909
320.023 10.3828 -0.642936
419.784 4.04548 -0.672035
513.27 50.971 -0.446683
109.057 8.28814 -0.459435
366.856 41.4732 0.167781
354.856 21.3585 -0.0906119
238.879 23.7441 -0.467204
18.6051 14.3736 -0.253716
534.431 65.9299 0.322313
258.444 58.4527 -0.28602
473.831 36.4001 -0.426843
482.747 22.2787 0.26892
547.723 17.7302 0.208053
342.487 54.8315 0.167647
81.805 46.7797 -0.256277
474.085 66.76 -0.215442
448.288 73.233 0.0950926
552.826 75.8067 -0.106828
548.376 0.627028 0.677684
234.48 34.8609 -0.496627
449.433 19.1358 0.128937
22.2514 7.45154 0.696596
113.348 49.2976 0.137569
377.939 20.6518 0.280765
533.358 49.9154 0.482034
163.177 32.0955 -0.231233
35.2747 43.8654 -0.272427
367.58 0.868876 0.441668
195.399 10.6799 -0.435996
509.002 78.0478 0.261722
527.363 44.9493 -0.247514
280.62 37.3252 0.270795
137.084 33.148 -0.461862
385.396 66.7377 0.394034
293.931 26.7842 -0.511456
314.047 40.7944 -0.0925445
293.555 15.3991 0.596439
402.876 12.1385 0.129635
552.942 33.0187 -0.196118
69.3864 49.1789 0.385451
268.636 5.7744 -0.261978
413.414 9.08729 -0.455758
279.906 68.1112 -0.448235
21.3948 28.3405 0.561519
27.7006 6.38952 0.285866
403.196 44.0458 0.496696
369.339 33.3449 0.204282
19.7183 45.6754 -0.41246
79.5977 39.159 0.23668
261.413 20.3763 -0.299653
427.527 32.2321 0.142793
350.798 64.0578 0.294631
507.526 7.84905 0.522527
502.925 11.5074 0.183479
300.662 57.0624 0.0923675
444.944 54.4653 -0.0967575
197.082 22.302 -0.505337
265.819 4.10176 0.607111
87.2227 38.0774 -0.322809
96.1562 28.0595 0.319633
385.034 61.1591 -0.0742693
247.064 22.8911 0.526944
491.293 69.3511 -0.109901
467.262 82.9284 -0.108808
357.824 31.0535 -0.397678
537.261 16.9351 -0.434358
324.317 35.1658 0.224098
224.123 35.8872 -0.298452
465.964 59.3786 0.316802
227.592 40.6222 0.448194
426.272 14.1509 0.239235
259.112 56.5641 0.187175
372.87 18.7226 0.487394
284.54 54.4542 -0.0908458
324.839 27.0781 -0.111635
244.128 64.9005 -0.478132
159.28 33.5193 0.12102
528.025 94.2818 -0.152108
549.566 37.2842 0.293138
6.0934 13.0237 -0.405113
328.843 35.0674 -0.454154
32.4594 27.6816 0.0299245
292.156 50.0725 -0.518694
304.662 34.7224 -0.285312
62.4401 17.4318 -0.531084
42.6822 41.1505 -0.44118
189.155 16.8587 0.530619
429.737 71.8267 0.405759
419.151 31.4704 -0.562254
62.2929 26.6234 -0.488207
481.207 77.4104 0.408455
527.884 2.25681 0.639984
454.109 83.861 0.477461
488.424 1.80888 0.634894
398.355 39.8639 -0.541076
403.103 74.723 0.474341
378.608 25.5398 -0.445814
555.586 15.8402 -0.245211
183.55 31.0439 0.11885
108.261 46.2251 0.193569
205.104 7.28298 0.496537
77.2215 5.35231 0.27269
53.4716 13.5173 0.235355
225.963 48.0021 -0.305632
15.7397 26.9039 -0.381119
407.347 25.7368 0.415587
412.621 75.8003 -0.188377
349.141 39.1664 -0.38804
542.765 78.4225 -0.346819
313.098 10.3598 -0.105728
328.27 57.3424 -0.379893
396.406 3.26555 -0.266317
21.0118 24.096 -0.429371
430.196 5.48063 0.569381
403.907 4.16458 0.431191
172.35 11.4123 -0.581115
328.008 18.4351 -0.227211
252.562 7.30205 0.411849
301.558 32.1832 -0.454221
504.364 83.0143 0.0997279
163.579 28.6267 -0.396779
541.652 9.32218 -0.475936
504.232 73.9665 0.313787
299.609 17.5431 0.187388
500.381 10.455 0.65066
425.035 49.7728 -0.444603
515.164 29.2338 0.430799
321.88 65.3315 -0.269302
368.337 21.2159 0.506708
343.237 67.9823 -0.231546
340.752 20.737 0.16927
459.559 79.9629 0.257842
459.66 74.3375 0.312235
160.046 48.6546 -0.341496
546.332 19.4473 0.116257
401.89 75.7794 -0.271785
9.67578 19.427 0.172267
313.472 31.4363 0.409789
157.08 26.6073 -0.476503
83.1243 48.2378 0.200155
533.004 45.6826 -0.436816
451.059 86.4433 -0.108277
256.713 36.4879 0.38225
393.016 10.9623 0.36635
72.7904 55.9815 -0.0730373
202.7 34.2947 0.468261
405.685 30.1922 0.443323
362.412 34.2562 0.41289
218.833 0.886073 -0.424222
388.569 65.6331 -0.383311
379.886 72.0173 -0.446316
351.539 68.6728 0.384505
373.982 6.02079 -0.576275
490.127 34.8453 0.493155
148.439 16.0128 -0.194033
370.134 53.559 -0.45542
393.025 68.6234 -0.109383
62.5567 0.904586 -0.317997
209.086 4.67058 -0.229034
549.704 39.2816 -0.138654
546.489 23.4357 -0.38767
554.936 42.0381 0.664595
245.325 10.0379 -0.276518
515.986 37.0177 0.581582
315.81 72.9603 0.376246
342.465 2.54057 0.541983
453.644 70.4288 0.432355
22.1071 37.2519 0.300889
257.493 67.8901 -0.475656
210.178 3.17844 0.497461
533.262 77.79 0.17067
486.817 89.8656 -0.219665
235.405 17.1154 0.15538
464.272 63.0695 0.0808659
415.185 2.49967 0.302945
402.164 7.3365 0.561975
81.4213 19.9727 -0.540079
246.603 1.02706 -0.222484
276.956 2.99277 0.46771
12.8907 7.33015 0.669083
4.68305 34.7311 0.244696
134.898 22.4258 -0.383914
58.3826 52.0111 -0.211564
56.1015 36.1008 -0.304267
328.992 16.9599 -0.5362
287.777 58.0107 -0.469271
517.646 61.7604 -0.128961
18.6579 4.45826 -0.267651
58.8848 11.9488 -0.141859
433.47 73.5028 0.129766
238.234 0.876947 0.483167
285.088 27.5406 -0.0912617
196.912 6.34825 -0.657117
462.024 45.7379 0.200656
345.83 15.1643 0.515908
517.484 32.1504 0.426578
441.814 57.1843 -0.341063
474.667 32.4573 -0.126757
320.868 37.7095 0.514006
91.1784 54.5812 -0.306419
378.034 77.0152 0.0665506
513.991 23.6128 -0.210241
195.606 39.6693 0.241119
29.2932 19.1086 0.196391
271.556 16.103 0.458439
95.563 49.6135 -0.473606
219.087 55.3544 -0.196474
331.854 1.06754 0.211871
532.715 62.6525 -0.40511
481.763 2.01546 0.725374
269.552 4.15799 0.498122
245.367 35.8672 0.158906
344.006 66.0633 -0.21684
66.2428 8.68821 0.541319
166.718 56.205 0.377769
529.853 53.9051 0.360888
365.659 64.7876 0.0701679
166.321 52.3825 0.281814
138.02 48.1966 0.413882
556.518 64.6123 0.415213
551.583 31.8986 0.506016
451.473 10.1399 -0.666863
161.029 28.3538 -0.0963166
399.905 41.7223 -0.110957
401.025 39.9755 0.32989
317.482 7.36943 -0.163756
363.774 0.956201 -0.343923
516.875 65.2251 0.498496
72.4803 40.075 -0.220737
468.371 38.3851 0.443486
222.472 20.6093 -0.334248
8.94929 2.30689 -0.410914
109.89 47.5693 -0.188599
56.9217 30.6902 -0.474826
486.728 62.1179 0.296406
536.944 93.6226 -0.161018
155.901 31.3744 0.211894
546.202 33.1792 -0.315069
37.2359 46.2956 -0.260423
78.6055 37.4611 0.151907
451.108 37.5356 0.397956
322.338 18.2395 -0.632666
385.475 22.601 0.139442
196.051 37.7672 -0.200587
448.626 23.3722 0.481206
554.613 31.8375 -0.36076
25.187 39.5382 -0.270513
221.942 11.3769 0.201879
186.578 18.4269 -0.232581
1.07717 39.4095 -0.151417
190.058 17.5598 -0.472068
178.209 12.3715 -0.189214
179.451 30.6222 0.297655
112.344 36.1079 0.13696
407.08 16.167 0.475253
138.699 15.5714 0.379398
530.132 85.2039 -0.215144
144.85 4.19547 0.51106
39.06 46.9279 -0.346011
510.889 92.2974 -0.460215
231.582 42.8422 0.421071
474.949 43.7676 0.487903
539.618 62.6555 -0.507548
243.379 10.4495 0.127706
505.338 56.4941 0.361876
267.536 2.40406 -0.487659
318.716 31.6511 0.511265
473.67 21.1087 0.597841
88.5857 12.301 0.496828
365.33 3.98254 -0.535438
520.477 29.5325 -0.19524
72.755 7.41507 -0.325444
230.397 20.6575 0.223992
328.257 13.9179 -0.301485
556.644 14.4597 -0.647954
308.666 1.91615 -0.604257
148.664 48.6452 -0.274755
513.728 10.5044 0.33511
111.798 46.6812 0.188183
214.61 43.9454 -0.383096
311.923 25.0435 0.256307
426.681 15.9474 -0.422527
300.722 12.1138 0.65931
345.58 47.2697 -0.486991
525.126 89.9684 0.360548
41.7896 13.3895 0.0893778
242.163 47.9129 -0.293731
294.183 41.6532 -0.406008
318.743 22.9574 0.303541
375.187 70.4982 -0.37307
513.335 66.971 -0.186862
462.266 73.4304 -0.349512
186.496 41.5916 0.40587
11.2156 35.3069 0.155836
457.8 77.0882 0.120831
366.595 76.7326 -0.434728
187.978 48.4528 0.0977304
476.118 58.1417 0.108937
125.37 10.4837 0.230848
284.085 36.3763 -0.301084
345.377 67.9987 0.100618
321.988 21.8373 0.218279
522.759 85.9613 0.294727
332.395 3.65026 0.4936
40.146 33.6008 0.286999
354.876 54.95 0.337166
324.469 68.2749 0.385309
528.869 72.5498 -0.224656
501.662 61.5726 -0.227383
402.234 19.9872 -0.215243
524.961 72.6371 -0.414207
238.278 2.05142 -0.482369
295.619 44.3235 -0.498493
21.8425 46.8515 -0.294929
506.37 54.8041 0.136613
431.098 40.8825 -0.502043
348.287 0.738795 -0.646815
106.573 5.54579 -0.359732
324.688 59.7303 -0.0957427
11.2656 0.889548 0.328602
555.417 12.9367 -0.240213
293.374 63.8787 0.39705
[...]
POINT_DATA 13483
TENSORS Strain_matrix float
-0.529055 -0.547878 -2.00641 
-0.186814 0.407278 1.9315 
-6.46605e-18 6.95999e-18 1 

-1.4158 0.198335 -0.745919 
0.572371 0.94257 5.42194 
2.43994e-18 6.82254e-18 1 

-0.296093 -0.0546925 -10.282 
0.0836738 0.0575828 2.02244 
-1.17258e-17 1.19204e-17 1 

-3.30313 -2.47538 -3.47944 
1.52326 1.90586 1.87477 
6.11271e-18 2.60652e-19 1 

-1.87028 -1.22423 2.06599 
0.991015 1.01845 -1.20913 
-1.83176e-18 1.14485e-18 1 

-0.750789 -0.720949 17.9522 
0.507886 0.474105 -1.8442 
7.63511e-19 -9.31484e-18 1 

-0.248659 0.215987 -0.463142 
-0.158595 -0.0976793 0.863339 
-3.24753e-18 -4.57606e-18 1 

-0.331364 -0.212839 -0.906784 
0.233841 -0.0114531 -0.421701 
8.40352e-18 1.85866e-17 1 

-1.27197 1.06312 2.04152 
-0.579317 0.809244 -0.0566508 
3.48873e-18 -8.91565e-18 1 

-0.811085 -0.655259 -0.17281 
-0.200736 -0.00107468 0.717287 
-1.05182e-17 8.63409e-18 1 

-0.238896 -0.0889159 -0.0366527 
0.226921 0.0434215 -0.0878081 
2.00113e-18 3.85761e-18 1 

-0.391623 -0.0960615 0.23037 
0.0919084 -0.000671403 0.324106 
1.02839e-17 -1.26322e-18 1 

-0.174636 -0.251965 -0.371394 
-0.623946 -0.129171 -0.502366 
1.62591e-19 -8.12955e-18 1 

-1.61342 -0.629703 1.95552 
0.366286 0.709215 0.0775718 
-3.48704e-18 6.97409e-18 1 

-0.297688 0.213019 -2.62071 
-0.0899954 0.0790666 3.39544 
1.6003e-18 -2.31743e-17 1 

-0.391561 0.317775 -2.15068 
0.0721408 0.137726 0.0206033 
-7.93236e-18 4.57937e-18 1 

-0.0158089 -0.27714 0.801545 
0.270096 -0.101362 0.559712 
-2.18798e-18 2.54635e-18 1 

-0.709677 0.0660247 -3.73755 
-0.260893 0.263403 -4.40504 
-6.90207e-18 2.92208e-18 1 

-0.763126 0.0438448 1.27933 
-0.446082 0.332719 -0.540096 
1.20238e-18 -3.84761e-18 1 

-1.22574 -0.574622 -0.550142 
0.316988 0.418295 0.219738 
8.55752e-18 -3.51898e-18 1 

-1.74426 -0.287289 -4.82957 
-0.0178992 0.267954 -0.800445 
1.00006e-17 6.14166e-18 1 

-0.579364 -0.747001 2.67043 
0.974998 1.01122 0.168913 
-7.30054e-19 -3.65027e-19 1 

-1.12202 -0.0200687 4.45839 
-0.492096 0.599753 -0.371313 
-1.59659e-18 1.7629e-18 1 

-1.55669 0.312948 22.6691 
-0.285858 0.842234 16.7725 
1.17141e-18 6.55031e-18 1 

-0.339937 -0.135588 -2.08839 
0.438468 0.235287 0.395181 
-1.66831e-17 -2.22441e-19 1 

-0.000875649 -0.635804 -0.132039 
0.535024 0.234378 -0.0309541 
-1.16686e-17 7.69064e-18 1 

-0.769589 -0.140775 -2.83448 
-0.193784 0.427948 -0.134954 
4.67553e-18 -1.08669e-18 1 

-1.41262 -0.420202 3.53054 
0.0480578 0.564623 2.25415 
3.9765e-18 -3.7355e-18 1 

-0.758793 0.130626 -3.99123 
0.116923 0.263526 -2.33928 
-5.9551e-18 -4.69814e-18 1 

-1.86445 -0.561439 0.0733539 
0.120577 0.872514 -1.04389 
-5.64259e-18 1.33282e-17 1 

-0.591194 0.133687 -0.162047 
-0.222005 0.0123755 -1.09178 
1.05334e-17 -2.53275e-17 1 

-0.0727874 0.399849 0.626168 
-0.180336 -0.15414 -0.65463 
5.33652e-18 -3.09801e-18 1 

-0.345938 0.534365 0.138661 
-0.433661 0.261741 -0.501153 
4.78852e-18 7.54712e-19 1 

-0.69854 -0.430879 -0.357172 
-0.0647961 0.359436 -0.13188 
-1.40829e-17 -4.69429e-19 1 

-0.106716 -0.271373 -0.429753 
0.318539 0.0974671 0.358655 
1.64907e-17 6.87955e-18 1 

-0.83699 -1.03404 1.17641 
0.245051 0.363702 0.785151 
-2.43615e-18 1.03156e-17 1 

-0.644606 -0.045591 -1.08431 
0.0189521 0.311091 1.28981 
4.6648e-18 -2.18352e-18 1 

-1.05034 -0.648738 -1.33997 
0.939876 0.676143 1.10764 
4.88012e-18 4.71184e-18 1 

-0.977646 -0.292074 -2.30699 
0.428533 0.46023 1.5733 
-9.78555e-18 7.39972e-18 1 

-0.929428 -0.436008 0.998234 
0.40422 0.630413 -2.11696 
1.75961e-18 -1.55833e-19 1 

-0.295873 -0.201754 0.223625 
-0.213454 0.259148 0.0920407 
-1.02417e-18 -8.89638e-18 1 

-0.717525 -0.834397 -0.551102 
0.475766 0.261109 -2.63976 
1.06357e-17 1.06894e-17 1 

-0.422146 -0.531276 -0.307342 
0.33103 0.204064 -0.0756967 
-1.5344e-18 3.24932e-18 1 

-0.364664 0.00335764 -0.353098 
-0.157387 -0.103271 -0.169413 
1.88771e-17 -9.23484e-18 1 

-0.570201 -0.41776 -0.196914 
0.091023 0.175553 0.351485 
3.24311e-18 9.41006e-19 1 

-0.436568 0.0521513 0.394357 
0.427133 -0.0573723 0.289504 
-3.86608e-18 1.01948e-17 1 

-1.25173 -0.529167 -2.97952 
0.172031 0.366811 1.36999 
-2.33996e-17 1.05806e-17 1 

-0.0193242 0.0486665 -0.0541056 
0.144418 -0.201974 0.0693724 
-1.09714e-17 -3.36932e-18 1 

0.379002 0.818311 1.08703 
-0.943624 0.241806 1.40824 
-1.68296e-17 4.92186e-18 1 

-2.50983 -0.978827 -1.07442 
-0.0799353 0.564266 -1.65961 
-5.86457e-18 -3.61771e-18 1 

-0.336327 -0.213283 0.938732 
-0.123075 0.251594 -0.982033 
2.7044e-18 -2.48631e-18 1 

-1.08146 -0.180398 3.84475 
0.0108614 0.297193 1.07625 
4.39953e-18 5.15287e-18 1 

-0.400547 0.090649 0.325019 
-0.0798453 0.246602 0.0375903 
-1.11957e-18 -1.24552e-17 1 

-1.05594 0.300828 0.718548 
-0.35685 0.307011 -0.496806 
-1.46967e-17 -4.32255e-18 1 

-0.273801 0.140837 1.58562 
0.00485854 -0.0182524 -4.22847 
1.4946e-18 -1.19568e-17 1 

-2.25339 -0.195656 0.523034 
-0.245545 0.568295 -2.12121 
2.46134e-19 -2.76241e-18 1 

-1.12343 -0.638835 0.0998134 
-0.296886 0.39909 -0.151043 
-2.47149e-18 7.87215e-18 1 

-0.401717 0.121278 1.70272 
0.208243 0.312725 0.412109 
-5.67067e-19 5.0631e-17 1 

-0.110309 0.0707614 -0.496448 
-0.0817745 -0.0934435 -0.600572 
7.2014e-18 -5.67358e-18 1 

-1.25181 -1.08685 -0.422964 
0.931005 0.878372 0.4141 
-1.02608e-17 1.25077e-17 1 

-0.0291051 -1.45682 1.86125 
0.585132 1.14661 -1.27081 
-3.3238e-18 2.56069e-18 1 

-1.18904 -0.213115 0.314988 
-0.446331 0.495483 -0.791599 
-9.44984e-18 -5.94171e-18 1 

-0.271469 -6.74988 2.9671 
-0.0641736 -0.375403 -0.603693 
7.39253e-18 -1.39614e-16 1 

-0.814447 -0.33138 3.97307 
0.465659 0.435589 0.256475 
-5.80454e-18 6.3478e-18 1 

-0.426945 -0.128623 1.34869 
-0.0251581 0.023724 0.892065 
-1.00312e-17 -9.69374e-18 1 

-0.779979 -0.186952 -0.48701 
-0.0376724 0.445758 0.398984 
-1.82465e-17 3.1563e-18 1 

-0.228465 0.251305 -0.322088 
-0.345259 -0.102999 0.339929 
-6.19406e-18 1.65175e-17 1 

0.00329902 0.314761 -0.394877 
-0.386872 -0.0798517 -0.173335 
1.08759e-17 -5.83475e-18 1 

-0.345419 0.0838342 6.13763 
-0.0892134 -0.0498427 7.47474 
-1.42251e-18 1.78053e-18 1 

-0.496195 -0.0782848 12.0335 
0.00398667 0.0121445 -1.90415 
6.3376e-18 2.18391e-18 1 

-2.60799 0.144028 -0.762228 
-0.168965 0.68857 -0.847552 
1.44995e-17 -5.06176e-18 1 

-0.610926 -0.420247 0.0586881 
0.00741707 0.0908662 0.0351856 
-2.20177e-17 -1.29075e-17 1 

-1.1824 -0.699286 1.88599 
-0.0849132 0.331214 -0.610639 
-3.8265e-18 2.48896e-17 1 

-1.13157 -1.03863 -1.18742 
-0.0444438 0.334762 -0.599362 
-9.88465e-18 -6.01573e-18 1 

-0.508853 0.156259 1.57495 
-0.298862 0.155454 2.14697 
-1.25708e-17 3.8915e-18 1 

-0.0676163 0.0277754 0.0328336 
-0.0612585 -0.0982062 0.0164763 
2.91853e-18 -1.68858e-17 1 

-0.439602 -0.144922 -1.43363 
0.0817812 0.40891 1.01967 
2.82117e-19 3.2242e-18 1 

-0.340801 -1.01221 -0.712648 
0.0511857 0.158188 -2.04807 
-7.94719e-18 -2.19233e-18 1 

-4.13461 -0.712581 7.57409 
-0.166147 0.942161 -0.259254 
-1.00189e-17 1.34052e-17 1 

-1.15277 -0.233261 -2.45396 
-0.00412086 0.415101 -1.0872 
1.75529e-18 -2.98526e-18 1 

-2.25258 -1.9244 -2.25008 
0.76881 1.0624 -0.312235 
-2.13024e-17 8.04273e-18 1 

-0.197416 -0.483001 1.7822 
0.350057 0.311922 0.473427 
-1.90339e-18 3.31024e-18 1 

0.0200265 0.287941 -0.0117501 
-0.20259 -0.00354271 0.204677 
8.96661e-18 4.70525e-18 1 

-1.2527 -1.16792 -4.1216 
0.29677 0.646751 0.976875 
-1.24218e-17 0 1 

-0.224117 -0.401305 -0.94517 
-0.131888 0.0433931 0.620675 
-1.94449e-18 5.43222e-18 1 

-0.743707 0.919851 -1.56378 
-0.113613 0.59363 -0.766878 
3.67214e-18 -1.17115e-17 1 

-0.937147 2.94195 -6.52563 
0.00710555 0.245728 2.94527 
2.85009e-18 -6.87422e-18 1 

-0.251157 -0.124247 7.45613 
0.189429 0.13611 -5.98423 
-5.77134e-18 1.91854e-18 1 

-1.3862 -0.862656 2.16725 
0.719103 0.854666 -1.0114 
-1.01514e-17 7.30372e-18 1 

-0.341259 0.249167 58.7717 
0.00413362 0.146348 9.24448 
-4.80158e-18 -2.30669e-17 1 

-0.340428 0.64285 1.02832 
-0.241047 0.398753 1.47023 
7.12936e-18 -1.09306e-17 1 

-0.478941 0.323609 -0.525391 
-0.219968 0.289854 -0.437909 
-1.26085e-17 -9.8316e-18 1 

-1.42323 -1.10534 -5.94383 
0.314045 0.666741 0.779005 
6.01131e-19 5.92743e-18 1 

-0.393967 -0.326858 -0.524552 
0.106591 0.284342 -1.37449 
3.16634e-18 4.15877e-18 1 

-0.10056 0.218725 -1.45372 
0.0266462 0.0390864 5.2224 
-2.04844e-18 -5.76133e-18 1 

-0.583602 3.16585 -4.212 
-0.0440752 0.519179 -0.298237 
-3.31293e-18 -6.31034e-17 1 

-0.460453 -0.0032096 -1.97962 
-0.127578 0.171232 0.840651 
-9.88956e-18 5.23465e-18 1 

-2.45053 0.274299 -2.08855 
0.0052715 0.533431 0.604472 
1.96714e-18 -2.54571e-18 1 

-1.78222 -1.28336 3.00044 
-0.22178 0.412549 0.930917 
3.23753e-19 0 1 

-1.41764 -0.570348 -1.82489 
0.100337 0.634281 -1.50763 
-1.89361e-17 4.47275e-18 1 

-0.16114 0.2083 1.15511 
-0.185009 -0.0224349 0.645314 
-1.66641e-17 -2.33795e-18 1 

-1.88683 -2.08034 -6.34909 
0.374872 0.707113 -4.80969 
1.92289e-18 2.08521e-18 1 

-0.860377 -0.0812415 -0.696747 
-0.177304 0.239717 7.1152 
1.10642e-18 9.1854e-19 1 

-1.48743 1.33536 1.03128 
-0.199515 0.872135 0.575021 
-2.45655e-19 3.64261e-18 1 

-0.340899 0.709433 -2.25124 
-0.703226 0.376158 -2.03404 
1.16157e-17 -8.21111e-18 1 

-0.43846 -0.503535 -1.47744 
-0.148028 0.144347 -0.0942641 
-7.81368e-18 1.81017e-17 1 

-0.677451 -0.44843 0.24297 
0.202351 0.288359 0.434368 
-1.76775e-17 3.10003e-18 1 

-0.261711 0.231086 1.61537 
-0.0184147 0.17176 0.547054 
-1.99672e-18 2.29253e-18 1 

-0.449231 -0.25002 0.623009 
0.264328 0.0931378 -0.0395969 
-1.01513e-17 -1.18024e-17 1 

-0.298556 -0.0942321 0.188225 
-0.119075 0.117893 -1.25538 
-4.78194e-19 -7.22073e-18 1 

-0.230502 -0.265528 23.8772 
0.0823024 0.176734 3.40325 
-1.70019e-18 5.50411e-18 1 

-0.354245 -0.168124 -1.8218 
0.111828 0.301498 16.2605 
-3.26853e-18 -2.49601e-18 1 

-0.276865 0.406233 -0.0357413 
-0.284672 0.122351 0.000285275 
-5.64807e-19 1.67902e-17 1 

-2.84809 -3.62559 -9.2586 
0.367262 1.09134 4.42328 
-1.21614e-18 -2.63498e-18 1 

-1.06925 0.348079 1.05346 
0.093022 0.534093 -0.811272 
1.63981e-17 9.02289e-18 1 

-0.186848 -0.28486 -2.09903 
-0.0208434 0.156494 1.88716 
4.74569e-18 -2.16946e-19 1 

-0.245641 -0.315935 0.786582 
-0.396199 -0.0151231 1.00997 
8.24063e-18 1.08626e-17 1 

-0.596208 -0.203384 1.0012 
0.190462 0.289299 0.96232 
-2.94029e-18 -5.76528e-20 1 

-1.77894 -1.69611 -4.25077 
-0.273427 0.681595 -1.158 
2.72981e-18 -8.5569e-18 1 

-1.34685 -1.19472 -4.256 
0.67285 0.839224 4.1845 
-4.03591e-18 -9.30311e-18 1 

-0.795891 0.511448 -0.203151 
-0.61569 -0.0963662 0.0513543 
-1.47733e-17 -1.55568e-17 1 

-3.41017 2.03141 -1.86693 
-2.01892 2.04966 0.347612 
-8.40408e-18 1.34142e-17 1 

-1.36919 -0.289987 -2.266 
-0.259604 0.575829 0.779585 
-2.24082e-19 -2.35453e-18 1 

-0.0351178 -0.903379 -0.966346 
0.474468 0.37195 -0.978549 
2.7413e-18 2.15503e-18 1 

-0.695241 -0.532087 14.9129 
0.00221251 0.328803 -6.17613 
1.05154e-17 -3.05286e-18 1 

-0.386584 -0.0818372 -1.37258 
0.0211993 -0.171062 3.78463 
-2.0111e-17 -7.87435e-18 1 

-0.43217 -0.178757 -0.998159 
0.0844945 0.305218 -0.856533 
-8.9096e-18 9.09522e-18 1 

-0.421936 0.0382466 1.98565 
0.0153459 0.169759 -0.55395 
1.14101e-17 -1.15383e-18 1 

-0.971072 0.212108 0.503272 
0.0954395 0.430056 1.11438 
4.54634e-18 -2.06889e-18 1 

-0.441127 0.294381 -1.30734 
-0.1523 0.190812 10.1807 
-1.34812e-17 5.57874e-18 1 

-2.02217 -1.05838 4.75549 
0.589218 0.945443 0.931532 
2.85945e-18 -1.25461e-17 1 

-0.391859 0.201104 0.760042 
-0.0597691 0.12533 -1.00163 
-4.42778e-18 5.41696e-18 1 

-1.30649 -0.846767 -0.520077 
0.484418 0.692774 1.80016 
-1.68686e-17 7.20527e-19 1 

-1.36331 0.488628 0.599468 
-0.26376 0.432145 -0.505629 
2.72445e-18 2.37351e-18 1 

-0.611299 0.163764 0.713785 
0.101514 0.277437 -1.09533 
4.1848e-18 1.26235e-17 1 

-0.350171 -0.324144 -2.40998 
-0.298199 0.399814 0.176254 
-1.29907e-17 3.01233e-18 1 

-0.948632 0.0809508 1.26246 
-0.722308 0.573736 -0.38928 
-1.05661e-17 3.42283e-18 1 

-0.336463 0.393568 -1.64142 
-0.295651 0.322463 -2.18136 
-1.64595e-18 -2.0692e-18 1 

0.0785055 -0.708477 0.79328 
0.398729 -0.180161 -0.26535 
2.76264e-17 -2.76718e-18 1 

-0.309017 -0.848279 -3.24732 
0.053393 0.157481 -1.37354 
-6.44023e-18 -5.45557e-19 1 

-0.796498 0.0944043 -0.23444 
0.0577474 0.336905 -0.960447 
7.16908e-19 7.26467e-18 1 

-0.0329365 -0.0179255 -0.163761 
-0.108379 -0.0271937 0.142212 
-4.36004e-18 9.03084e-18 1 

-1.13096 0.069312 -1.62198 
0.594292 0.535678 1.80711 
-1.39717e-17 4.30268e-18 1 

-0.561635 -0.6434 98.1257 
0.0706505 0.66471 -64.9262 
-2.6746e-18 -1.46746e-17 1 

-0.324748 0.232899 -1.0098 
-0.0332812 0.240712 -0.428463 
3.25718e-18 -7.76386e-18 1 

-0.0108211 -1.00884 6.44909 
-0.0484494 0.387741 1.5587 
-2.59699e-18 6.98338e-18 1 

-0.883383 0.69393 -1.57553 
-0.222868 0.361768 -0.522696 
8.75135e-18 -9.47311e-18 1 

-0.230923 -0.0297708 0.746422 
0.0165701 0.00621193 -0.109995 
2.26515e-18 7.0214e-18 1 

-0.543408 0.0713075 0.513815 
0.0167884 0.10719 -1.64326 
2.63686e-18 -1.93658e-18 1 

-0.10413 -0.28052 0.422658 
0.0598598 -0.0211933 0.270662 
1.43455e-17 -8.21e-19 1 

-0.639845 0.00241155 18.2232 
-0.26729 0.295562 18.1253 
-2.18697e-19 -1.09904e-18 1 

-0.727098 0.00331017 -0.821214 
-0.595066 0.124052 0.511314 
-1.06177e-18 -1.86238e-18 1 

-0.282329 -0.111025 -2.9011 
0.0311453 0.0689432 0.0679468 
6.8498e-18 -1.5053e-18 1 

-0.247403 0.0581429 -3.60302 
0.0430379 0.0854132 1.70504 
-5.40784e-18 -2.57958e-18 1 

-0.257198 0.105832 -0.649085 
0.0843704 0.0975617 1.01994 
-4.16102e-18 2.16373e-18 1 

-0.92699 -0.36209 -13.9432 
0.561634 0.56105 -5.83501 
-3.3234e-19 -5.61144e-18 1 

-1.51896 -1.58282 8.83376 
0.388476 0.509505 -3.24949 
8.13015e-19 1.67684e-18 1 

-0.255264 0.223203 -1.14644 
-0.180685 0.115684 2.13536 
-1.63006e-17 1.12234e-17 1 

-1.22539 -0.168264 -5.55089 
-1.26505 0.490189 2.18416 
-5.65998e-18 3.60181e-18 1 

-1.88688 1.46607 -1.08653 
0.0814316 0.513709 -0.978875 
-4.48443e-18 1.40139e-17 1 

-0.362521 -0.409364 12.965 
0.0934784 0.402068 -5.80691 
2.65021e-18 7.39621e-18 1 

-0.85372 0.204407 -2.27033 
0.367786 0.457229 0.785658 
-2.38544e-17 1.21135e-18 1 

-1.37532 -0.597324 14.9943 
-0.120878 0.668213 10.8362 
8.84403e-18 8.06937e-18 1 

-1.96741 -0.936103 26.1043 
0.554127 1.02999 1.93345 
5.56211e-18 6.87741e-18 1 

-0.780775 -0.428441 -0.501453 
0.132835 0.305297 2.90198 
-1.21577e-17 -2.96304e-19 1 

-0.989637 -1.63209 0.933223 
1.44769 0.990229 -0.132143 
-1.01455e-17 2.69828e-19 1 

-0.610847 -0.823834 0.178985 
0.484927 0.680339 0.568382 
9.2334e-18 -1.08738e-17 1 

-0.628887 0.162588 1.16383 
0.531526 0.112694 0.358772 
2.84869e-19 -8.64101e-18 1 

-0.396296 0.0843718 -0.373984 
-0.0519447 0.0522814 0.411363 
-4.53567e-18 -1.24013e-17 1 

-0.390805 -0.423092 -0.0417722 
0.270385 0.126049 -0.750935 
3.29615e-18 -7.68072e-18 1 

-0.234051 -0.380481 0.0451301 
0.143081 0.057432 -0.278209 
8.87169e-18 -7.53257e-19 1 

-0.142589 -0.0193411 0.57477 
-0.0542804 0.0495192 0.349837 
1.19453e-18 6.96807e-18 1 

-0.352513 0.199499 1.32767 
-0.00728954 0.131792 -0.611803 
-5.11916e-18 -9.10073e-18 1 

-0.940537 -1.24154 4.53257 
-0.0862994 0.33375 1.67326 
5.59642e-18 3.04367e-18 1 

-2.13717 -0.054252 -3.452 
0.0792509 0.760527 -0.939382 
-1.34699e-17 -5.44553e-18 1 

-1.40908 -0.259387 0.639599 
-0.532012 0.464991 1.14284 
1.03528e-18 5.43521e-18 1 

-0.940923 0.0483194 2.22411 
-0.135405 0.428225 1.09897 
1.19776e-17 2.04964e-18 1 

-0.121097 0.0900238 0.0398926 
-0.115968 -0.0525665 -0.127102 
7.26912e-18 4.43699e-18 1 

-0.978122 -0.40838 4.20485 
0.514606 0.610662 0.968319 
-5.8407e-18 6.75432e-18 1 

-0.263526 -0.107142 -0.499146 
0.0881903 -0.0802717 -0.139396 
5.85795e-18 1.28875e-17 1 

-0.509608 -0.130709 1.08456 
0.161953 0.448416 -1.11315 
-1.32331e-17 -3.25462e-18 1 

-1.15371 -0.324888 -0.0535288 
0.0335064 0.343155 0.346035 
-1.99381e-17 -4.79991e-18 1 

-0.653254 -0.020618 -0.928701 
-0.214343 0.168817 -0.513722 
3.56332e-18 -4.41328e-18 1 

-0.211601 -0.188556 -0.0684149 
0.238668 -0.0484927 0.830217 
1.24864e-17 -2.86955e-18 1 

-0.635707 -1.7473 0.44368 
0.89656 1.3535 0.0110094 
-1.68379e-18 -1.36183e-17 1 

-0.421683 0.173519 -0.832126 
-0.169135 0.0435104 0.120397 
4.8412e-18 8.43487e-18 1 

-0.44595 -0.341515 5.97775 
-0.475235 -0.0304743 -0.0544852 
-2.55947e-19 -5.65749e-19 1 

-0.870493 0.0942752 -3.75339 
0.281014 0.309403 0.892496 
1.75253e-19 -1.0099e-17 1 

-0.574588 0.0993223 1.25247 
-0.181168 0.291467 0.423013 
4.66446e-18 2.0068e-18 1 

-0.546313 0.178117 0.254839 
-0.315703 0.230745 -0.733073 
5.04367e-18 9.74345e-18 1 

-1.62465 -1.2355 3.2996 
-0.0479962 0.431569 -0.85333 
2.69182e-18 -9.19704e-18 1 

-2.05885 0.218623 -1.9902 
-1.13103 0.725129 0.367355 
-8.41731e-18 -9.35257e-18 1 

-3.24136 1.1797 -8.33853 
-0.753502 1.35942 -2.37411 
6.93388e-18 6.04548e-18 1 

-1.16172 -0.284882 -5.62497 
-0.424635 0.478076 1.83507 
2.16584e-18 -6.61064e-18 1 

-2.12829 -0.485717 -1.39918 
-0.905392 0.649464 -1.62875 
-2.68318e-19 -6.8249e-18 1 

-1.34937 0.117085 -17.9154 
0.68805 0.783698 -1.5749 
-4.54164e-18 9.39412e-18 1 

-0.279477 -0.733746 0.635019 
0.151894 -0.112966 -0.121257 
-1.76012e-17 -1.49771e-17 1 

-0.437681 -0.359518 -3.06331 
0.60929 0.618946 -1.88037 
6.83398e-19 -7.68822e-20 1 

-0.0502984 -0.153676 -0.728647 
0.262744 -0.222288 -1.57018 
4e-18 1.30024e-17 1 

-0.397049 -0.314822 -0.00681799 
-0.289535 0.00801908 1.14709 
8.19287e-20 8.90634e-18 1 

-1.32963 0.179381 2.66827 
-0.420986 0.735043 0.642451 
3.53922e-18 -2.31178e-18 1 

-0.843308 -0.213037 3.63188 
0.059734 0.393382 2.36868 
-1.7038e-18 4.244e-18 1 

-2.23725 -1.2728 -3.96353 
0.847143 1.0447 -0.144646 
-8.7011e-18 -1.11087e-17 1 

-5.05804 -0.0495199 4.13699 
0.00449031 1.29454 -1.113 
9.84073e-18 7.37604e-18 1 

-0.261168 -0.0944922 -0.488292 
0.0839466 0.0326912 0.506423 
-1.18789e-17 2.63218e-18 1 

-1.26561 -0.318388 5.06795 
0.115846 0.481901 0.467837 
-2.76441e-18 1.23749e-17 1 

-0.15139 0.0842899 0.684423 
0.0626178 0.0318986 1.52204 
-1.1723e-18 -5.04457e-18 1 

-0.263991 0.139332 -1.16861 
0.195351 0.0988057 0.606962 
1.26993e-17 7.9174e-18 1 

-0.820795 -1.05868 18.5374 
0.345116 0.783332 -1.71525 
7.63315e-18 -4.70711e-19 1 

-0.372485 -0.124361 -0.526029 
-0.237442 0.159321 -0.299939 
1.08846e-17 1.41701e-17 1 

-0.393578 -0.347756 2.67233 
0.191825 0.339911 0.798362 
3.96577e-18 9.99068e-18 1 

-0.918025 0.28835 0.856165 
-0.683481 0.377993 0.103251 
2.76506e-18 6.59007e-18 1 

-0.0555052 -0.861091 0.26788 
-0.157779 -0.247296 1.33989 
-2.14816e-18 2.99732e-17 1 

-0.440761 0.0804172 3.19698 
0.0983454 0.22701 0.49705 
9.07877e-18 8.36424e-18 1 

-0.742531 -1.04607 4.66743 
-0.104018 0.172685 -0.234961 
8.6842e-19 -2.09619e-19 1 

-0.844367 0.592698 0.925148 
-0.414688 0.663975 -0.00270397 
-1.13529e-17 2.24459e-18 1 

-0.47717 2.49009 5.87711 
0.0176341 0.0101606 0.158108 
3.65146e-18 5.2011e-17 1 

-2.2586 -0.67671 9.82782 
-0.243557 0.785997 5.89648 
-4.4877e-18 2.81617e-18 1 

-1.11292 -1.36634 -12.0687 
0.247024 0.820452 -5.48525 
4.73132e-18 5.16144e-18 1 

-1.02432 -0.96883 -2.93647 
0.137917 0.603036 0.675316 
5.87917e-18 8.70835e-18 1 

-1.87478 -1.59816 -1.20022 
0.55669 1.05281 2.77729 
2.31191e-18 7.70638e-18 1 

-1.12825 0.0719009 2.22835 
0.985098 0.461549 1.74845 
-7.77281e-18 3.45739e-18 1 

-0.201442 -0.128916 1.29948 
0.0647597 0.419662 -0.331702 
-2.4502e-18 -1.40121e-17 1 

-1.13271 0.166247 -1.85544 
-0.183388 0.544295 -0.157065 
-2.12525e-18 -1.2827e-18 1 

-2.83096 -2.33783 -9.9548 
0.0681786 0.444757 -0.0785683 
3.10061e-18 -5.46767e-18 1 

-1.52309 -0.932502 -2.865 
-0.0180416 0.298579 -0.0390858 
6.87555e-18 -1.80187e-17 1 

-0.215408 -0.167898 0.543774 
0.140032 -0.0806379 0.260082 
-1.37741e-17 -6.01132e-18 1 

-0.347859 0.133558 -0.0593285 
-0.123112 -0.0625468 0.0978605 
1.19888e-17 3.07405e-19 1 

-1.52305 -2.18046 -4.1815 
0.833822 1.19753 0.217285 
-1.17928e-17 6.63344e-18 1 

-0.534817 0.338272 117.873 
-0.18085 0.408994 -15.2936 
2.37539e-17 2.72777e-18 1 
