# vtk DataFile Version 3.0
Output file generated by Yade's KinematicLocalisationAnalyser
ASCII
DATASET UNSTRUCTURED_GRID

POINTS 13483 float
382.985 54.5792 -0.450145
484.204 90.7374 -0.459303
84.9844 6.85726 0.620816
506.759 28.6715 -0.251694
334.155 12.2272 -0.359499
223.293 53.1995 -0.469791
111.562 7.08529 -0.496529
381.789 10.6604 0.140928
332.529 39.8929 -0.174389
462.062 26.058 0.538023
156.14 10.2773 -0.101685
189.066 6.63619 0.33745
415.162 63.8145 0.0538637
407.935 38.3678 0.108168
100.068 23.9688 -0.501165
158.941 48.3613 0.39934
162.551 15.2173 -0.271155
208.536 18.3673 0.440274
236.4 54.1835 -0.440329
348.217 12.4218 0.414123
277.255 56.403 0.096079
366.927 75.3684 0.272617
510.861 67.6819 -0.48366
435.738 80.3689 0.462922
310.776 32.9781 0.326399
170.648 59.8509 -0.141736
327.062 46.5713 -0.501819
385.328 28.4128 0.281866
36.6868 20.3431 -0.515364
451.972 63.4419 0.335464
323.176 6.13076 0.640931
13.8645 26.0303 0.332244
490.496 88.8857 -0.238766
334.125 2.50383 0.454784
60.0516 60.3475 0.109042
341.817 45.9332 0.339789
353.099 23.2242 -0.442274
240.755 36.5775 -0.171794
354.556 36.855 0.411097
239.448 58.4777 -0.404217
179.394 17.5954 -0.379255
290.698 53.3897 0.0658425
434.897 9.56993 0.164607
140.332 6.69097 0.408779
46.2319 7.57375 0.126894
51.5479 16.5538 -0.302331
445.993 10.1407 -0.599771
20.7289 12.6327 -0.402612
380.631 79.3214 -0.0645068
432.111 43.7923 0.350918
132.14 43.1926 0.297005
478.852 63.5409 0.120602
25.2625 36.1956 0.128801
352.895 5.91316 0.359596
102.659 11.5165 0.562804
372.778 61.5788 0.371653
334.708 44.6675 -0.155963
128.01 0.997744 -0.315814
26.9491 2.36918 -0.367151
244.485 26.4588 0.264261
386.257 75.2512 -0.15672
305.588 56.7346 0.189682
273.507 0.968051 0.203144
452.638 9.85635 -0.337572
13.478 54.0702 0.242813
184.885 47.2082 0.305841
464.869 20.2431 -0.259295
421.506 87.849 0.344271
289.298 10.6911 -0.638504
382.993 4.00392 -0.670174
472.375 53.343 -0.431515
94.8328 8.70183 -0.457937
332.603 44.9532 0.165089
321.256 22.9262 -0.101502
213.556 25.4174 -0.412782
18.0212 14.6591 -0.319834
493.469 68.4336 0.325973
230.432 61.9439 -0.283722
436.197 36.5142 -0.407756
445.048 22.2142 0.282148
507.9 19.9643 0.19963
307.682 57.1366 0.165805
74.9237 52.7763 -0.25789
433.466 68.0726 -0.22307
408.183 74.9533 0.0948215
511.905 78.3496 -0.101977
507.912 0.631747 0.687874
209.852 38.6959 -0.43274
412.391 19.0897 0.166078
21.618 7.23572 0.632755
104.081 55.8981 -0.137941
342.459 22.3793 0.263419
492.491 52.423 0.489705
145.816 34.0792 -0.24257
30.4896 47.4814 -0.263395
333.423 0.883858 0.434943
176.576 10.9569 -0.445881
467.655 80.5936 0.249436
486.582 47.3799 -0.26194
251.491 37.7607 0.317446
123.533 35.7018 -0.477461
349.207 69.8863 0.393051
264.543 28.1066 -0.497974
281.029 42.0503 0.112644
263.666 15.6045 0.610562
366.177 12.407 0.0979414
512.042 35.2228 -0.192747
63.1988 54.8374 0.384709
239.88 5.72642 -0.305298
376.627 9.02464 -0.458248
250.642 73.5964 -0.446236
20.126 29.5572 0.503669
26.1296 6.98029 0.321207
367.352 44.5214 0.485752
333.497 35.7857 0.175455
15.9468 47.9436 -0.433421
72.7787 44.9197 0.223994
234.232 21.1428 -0.347195
391.383 32.8018 0.139628
314.992 66.6824 0.308264
469.667 7.86883 0.522321
465.213 11.6227 0.192343
269.854 60.0458 -0.100091
408.031 55.0496 0.116107
176.651 24.5945 -0.506759
237.206 4.04988 0.612855
80.4789 44.7256 -0.322457
86.389 32.7074 0.26295
348.935 63.8523 -0.0732309
220.526 23.1778 0.567882
449.903 70.8429 -0.101481
426.35 85.7551 -0.105354
324.015 34.1941 -0.417285
498.078 18.8982 -0.304507
290.937 36.4707 0.223418
200.901 40.5271 -0.303008
426.794 59.9227 0.324943
204.531 45.9547 0.420539
389.532 13.8781 0.216138
231.209 60.103 0.194914
337.183 20.2617 0.493811
254.038 58.8881 0.0818341
291.958 28.1015 -0.0996941
219.547 72.0934 -0.439493
142.538 34.1769 -0.138307
486.876 96.4087 -0.15033
508.629 39.5149 0.286629
5.8691 12.859 -0.531866
295.45 36.2758 -0.439391
29.517 30.5 0.0963627
261.509 53.3558 -0.474201
272.053 36.2538 -0.296792
56.9818 21.4207 -0.503714
37.7079 45.4688 -0.462373
170.756 17.3908 0.504068
391.799 72.6715 0.395981
382.952 31.2099 -0.477506
56.6514 31.258 -0.518746
440.097 79.1945 0.183933
490.052 2.02004 0.617731
413.439 85.9519 0.459815
450.967 1.67058 0.636674
362.487 40.5072 -0.548659
366.27 77.0382 0.448142
342.766 27.3706 -0.429245
514.614 17.8257 -0.287415
163.083 33.9122 0.104803
100.391 53.2038 0.188532
184.47 7.36251 0.590042
67.2867 9.13713 0.205947
47.9348 15.2855 0.185881
202.226 53.0703 -0.293853
14.6835 27.4679 -0.41063
371.165 26.0769 0.440487
375.567 77.4651 -0.187262
315.326 41.7704 -0.409628
501.733 80.9642 -0.346681
282.444 10.4643 -0.123762
295.329 59.9859 -0.407976
359.583 3.26607 -0.261049
20.1973 25.2846 -0.421916
393.487 5.42376 0.566796
367.109 4.17334 0.472365
154.956 12.5343 -0.653826
295.854 19.8632 -0.226
224.307 7.23275 0.426315
268.731 33.9444 -0.392127
463.413 85.2935 0.0983321
145.847 29.3693 -0.452348
502.489 9.90884 -0.477127
462.887 76.3504 0.316721
269.663 17.8889 0.195047
462.663 10.6008 0.651578
388.11 50.2102 -0.454808
477.02 30.0916 0.436996
287.895 69.0295 -0.271741
331.677 21.6564 0.412166
307.651 70.6622 -0.232113
308.684 23.2676 0.1738
419.05 82.1886 0.259972
419.498 76.5857 0.309404
145.018 53.002 -0.347097
505.059 21.9776 0.150702
365.063 78.1904 -0.260767
8.59716 20.0735 0.186005
280.957 33.0472 0.380245
139.881 27.427 -0.493073
75.1472 54.6531 0.2055
492.147 48.2076 -0.446818
410.244 88.7777 -0.17173
230.729 37.8922 0.40588
356.72 11.0385 0.463236
65.1678 61.6941 -0.164086
179.69 38.1284 0.467429
369.609 30.7257 0.445413
328.419 37.4218 0.41965
195.331 0.922735 -0.350397
352.336 67.7477 -0.372167
344.763 75.0763 -0.43022
315.757 71.6232 0.38791
338.977 7.4876 -0.522398
451.918 34.9656 0.418672
131.117 16.604 -0.207732
335.698 57.3404 -0.407323
356.374 70.7097 -0.11305
57.1719 0.919657 0.348023
188.157 4.54002 0.24801
508.789 41.5008 -0.163926
505.325 25.8842 -0.424015
513.959 44.3682 0.620196
217.173 9.60672 -0.307915
475.218 38.9414 0.605384
286.599 76.6432 0.308931
308.483 2.54759 0.561763
413.721 72.5 0.442951
19.0518 38.9307 0.295154
232.185 73.845 -0.471511
189.874 3.73319 0.701445
492.216 80.2285 0.174475
445.647 91.5102 -0.220009
209.563 19.8106 -0.191732
424.172 65.1719 -0.079756
378.359 2.48259 0.313514
365.501 6.93177 0.632048
74.8016 22.77 -0.561089
218.415 1.01198 -0.229113
247.904 3.00736 0.47014
12.2939 7.95794 0.679303
4.78168 35.5964 0.274445
119.453 23.9062 -0.339263
51.59 58.0456 -0.210393
50.1603 40.9293 -0.309498
297.035 18.4698 -0.39034
257.643 62.9169 -0.484939
476.654 64.1465 -0.12667
17.8296 5.0901 -0.278413
53.4593 15.8187 0.138112
395.515 74.6936 0.128757
210.172 0.884057 0.486281
256.038 27.7954 -0.0897735
178.129 6.69283 -0.520573
423.943 45.8643 0.172491
312.63 16.7121 0.523944
479.044 33.3396 0.390336
404.733 57.5575 -0.331772
436.909 32.501 -0.122683
287.613 38.9248 0.524444
83.3256 60.656 -0.313548
341.618 80.7594 0.067619
475.976 24.5003 -0.235392
174.089 45.5411 0.254272
27.7779 19.7429 0.18539
242.421 15.9257 0.522538
88.2769 55.6359 -0.404052
195.288 60.4895 0.181259
300.863 1.00552 0.230281
491.735 65.1687 -0.40326
444.4 1.99428 0.718991
240.749 4.13047 0.502321
220.828 38.4378 0.144531
308.174 68.6358 -0.215123
60.03 11.5549 -0.533571
148.594 62.4479 0.377255
488.978 56.3981 0.363355
329.689 68.3182 -0.022072
145.907 59.0229 0.265626
126.818 50.9375 0.397639
515.528 67.1717 0.413501
510.713 34.0632 0.499875
414.607 10.4642 -0.674492
143.942 29.233 -0.12899
364.019 42.2623 -0.109345
365.142 40.531 0.345156
286.799 7.75115 -0.282721
329.631 0.956724 -0.325774
475.847 67.648 0.499988
65.2918 45.5271 0.218886
430.668 38.5545 0.44652
198.479 25.0294 -0.45395
8.84025 2.29071 -0.44424
100.576 55.3075 -0.18024
50.7429 34.5341 -0.487038
446.563 62.817 0.34153
495.769 95.9968 -0.161208
138.92 32.45 0.200108
505.37 35.4091 -0.321584
31.8123 50.2815 -0.248522
71.7476 43.2708 0.149894
413.915 37.5305 0.501108
290.503 18.1644 -0.610178
349.595 24.1702 0.110882
174.07 43.5982 -0.214682
411.267 23.6829 0.56977
513.659 33.9897 -0.359043
21.3197 42.1567 -0.275505
197.224 15.5389 0.22294
167.936 19.0562 -0.240407
1.08514 42.7143 -0.147346
171.378 18.344 -0.512036
159.927 13.4319 -0.147337
160.561 30.6597 0.335101
102.639 39.887 -0.140512
370.6 16.2922 0.451159
123.256 16.3195 0.445699
488.999 87.4615 -0.217811
129.055 4.14465 0.521173
33.69 51.2768 -0.347348
469.675 94.7038 -0.457616
208.291 48.1891 0.394934
437.219 43.7046 0.540778
498.663 65.176 -0.506835
215.277 10.1514 0.153926
464.092 58.6813 0.362744
238.789 2.37363 -0.510206
285.751 31.5547 0.454212
436.189 21.0201 0.613875
78.9396 14.5399 0.50149
331.175 4.01655 -0.55116
482.168 30.7651 -0.19894
65.5449 8.37958 -0.307574
206.239 24.4561 0.245683
296.199 15.1205 -0.267218
515.48 16.2349 -0.560392
278.189 1.85683 -0.6278
132.358 60.7015 -0.26178
475.698 10.2566 0.370475
103.167 51.9381 0.181979
191.842 48.7384 -0.383338
280.186 25.5754 0.260827
389.785 15.7429 -0.385746
270.53 12.3445 0.647088
311.422 49.8678 -0.499686
484.132 92.0351 0.36453
39.2573 13.2221 0.0921641
217.082 53.4559 -0.287171
262.149 44.0755 -0.414006
286.909 23.1639 0.316048
339.773 74.4066 -0.359687
472.33 69.393 -0.198428
422.195 75.6848 -0.354882
165.399 46.4488 0.438401
10.3899 36.5819 -0.156617
417.496 79.3047 0.124151
329.854 80.1743 -0.433553
166.381 53.2209 0.091782
436.79 59.9202 0.128107
110.682 10.8236 0.21049
254.826 37.6393 -0.27858
309.684 71.3802 -0.0979091
290.132 21.9784 0.203895
481.524 88.2431 0.293133
301.919 5.42725 0.63545
36.1368 37.6758 0.294992
319.936 57.9776 0.367677
290.594 72.3156 0.371922
487.84 75.0497 -0.22052
460.757 63.4826 -0.241617
365.825 20.4046 -0.198207
483.982 74.9869 -0.409553
210.192 2.09176 -0.484931
263.696 46.7264 -0.479027
16.6716 49.4363 0.293428
465.379 57.1811 0.130412
394.192 41.6333 -0.533109
314.298 0.759299 -0.701831
92.7992 5.60228 -0.388257
291.517 61.6421 -0.09435
11.0501 0.868896 0.347224
513.892 14.5737 -0.0929114
263.42 67.7153 0.40149
409.242 19.5955 0.46582
[...]
POINT_DATA 13483
TENSORS Strain_matrix float
-0.575156 -0.555882 -4.45366 
-0.199682 0.421006 1.13872 
-7.40841e-18 -2.90677e-18 1 

-1.0996 0.320314 -29.5273 
0.58391 0.94946 -10.9311 
6.8982e-18 7.60533e-18 1 

-0.519843 0.152665 -11.1994 
0.13045 0.179127 3.08452 
1.30902e-18 -3.34321e-18 1 

-3.26193 -2.53538 -4.64037 
1.50534 1.93455 2.21157 
4.26099e-18 -2.35242e-18 1 

-1.73079 -1.44664 2.57335 
1.11069 1.17365 -0.337988 
1.86046e-18 9.66007e-19 1 

-1.52129 -0.561529 -5.14006 
0.554712 0.540768 0.898549 
8.03678e-18 2.53158e-17 1 

-0.342593 0.303339 -0.399175 
-0.194022 -0.0139379 0.56206 
1.05278e-17 -6.37799e-18 1 

-0.354461 -0.18758 -1.04611 
0.217925 -0.00291287 -0.566926 
-2.22096e-18 2.87139e-17 1 

-1.59938 1.16787 -0.410355 
-0.68671 0.788677 0.0114392 
-9.34081e-19 -4.96029e-18 1 

-0.828859 -0.701731 -0.234678 
-0.163436 -0.00309722 0.741135 
-1.94857e-17 -3.82e-18 1 

-0.231775 0.099966 0.334367 
0.194335 0.0396028 -0.151446 
8.00098e-19 1.92023e-17 1 

-0.602539 -0.542356 0.214502 
0.106862 0.0241465 -0.0640708 
-1.59153e-17 -9.27103e-19 1 

-0.00854974 -0.588492 -0.30009 
-0.490356 -0.361936 0.727818 
-4.62e-18 -1.22252e-17 1 

-1.66 -0.221296 1.56569 
0.33875 0.646129 0.00220233 
-5.22494e-18 4.26972e-19 1 

-0.495066 0.620762 -4.13958 
-0.418426 0.21564 1.91218 
1.82619e-18 -1.38269e-18 1 

-0.536475 0.189056 2.8788 
0.102393 0.208447 -0.105128 
4.83572e-18 1.27961e-18 1 

-0.185387 -0.194122 1.63625 
0.141489 0.0588413 1.12033 
-7.24319e-18 -7.43472e-18 1 

-1.22436 0.175958 -6.26761 
-0.61168 0.574731 -2.11712 
6.68377e-18 7.5835e-18 1 

-0.980886 -0.17546 -11.3038 
0.0374192 0.68158 4.3993 
-3.57691e-18 8.22399e-19 1 

-1.29229 -0.355686 -0.275119 
0.00831462 0.467133 -0.124925 
1.11887e-17 9.3239e-18 1 

-1.49469 0.555718 -2.96259 
-0.108105 0.276343 -1.34052 
1.98927e-19 6.76352e-18 1 

-0.937244 -0.597766 3.03847 
0.980161 1.04412 0.427307 
1.34787e-17 3.6928e-19 1 

-1.13092 -0.019406 4.43298 
-0.494408 0.602245 -0.393944 
-5.64758e-18 2.27914e-18 1 

-1.63721 0.378612 13.4575 
-0.325155 0.773328 2.77554 
-3.07461e-18 -4.03622e-18 1 

-0.522407 -0.108247 0.219784 
0.541344 0.261436 -0.338548 
6.96784e-18 -2.30836e-18 1 

0.0665642 -0.732437 -0.140283 
0.588261 0.278862 0.0229003 
2.3304e-18 -3.60038e-18 1 

-0.794847 -0.0881221 -5.19293 
-0.194176 0.464884 -1.96026 
1.30579e-17 -7.95025e-19 1 

-1.384 -0.0970769 2.12621 
0.0802801 0.80152 2.41965 
-1.38743e-17 -8.03248e-18 1 

-1.06514 -0.23838 0.369998 
0.337066 0.402802 -0.240301 
-1.10213e-17 8.3495e-18 1 

-1.77434 -0.914994 0.13093 
0.169741 0.890544 -1.46271 
2.64205e-18 4.04831e-18 1 

-0.565242 0.220549 -0.304986 
-0.30423 -0.0266568 -1.26779 
2.08978e-17 -1.17321e-17 1 

-0.0659411 0.323519 0.566585 
-0.102568 -0.178796 -0.561339 
-1.43925e-18 1.50023e-18 1 

-0.364792 0.513709 0.256043 
-0.428116 0.260116 -1.08903 
-5.91022e-18 2.31166e-18 1 

-0.672823 -0.356351 -0.0215899 
-0.0881311 0.356823 -0.402357 
1.05468e-18 -2.47455e-17 1 

-0.228665 -0.238687 -0.601255 
0.357802 0.186308 0.769987 
4.58443e-18 1.63964e-18 1 

-1.28172 -1.12044 1.44243 
-0.094914 0.275487 0.116246 
7.27309e-18 1.02589e-17 1 

-0.797978 -0.204999 -1.62138 
-0.0463013 0.397345 1.52464 
-9.85999e-18 3.11795e-18 1 

-1.22447 -0.446521 -1.72386 
0.586337 0.576347 1.05807 
7.78579e-18 -2.48483e-18 1 

-0.996814 -0.415637 -3.44317 
0.405531 0.479996 1.23088 
-2.06063e-17 7.37902e-18 1 

-1.2733 -0.658195 0.341374 
0.509574 0.75642 -3.41457 
9.5619e-19 2.17316e-18 1 

-0.494295 -0.1587 0.42501 
-0.0404449 0.178718 -0.707136 
-5.01665e-19 -1.33777e-18 1 

-0.859712 -0.435607 -0.143022 
0.376276 0.176719 -2.32041 
-6.75387e-18 -5.1575e-18 1 

-0.653562 -0.487628 -0.297843 
0.24964 0.221937 0.0467567 
-7.77329e-18 8.44796e-18 1 

-0.380726 0.0845522 -0.338947 
-0.349601 -0.0702913 -0.198737 
2.31522e-17 -1.02397e-17 1 

-0.487887 -0.542061 -0.121984 
0.192115 0.1447 0.439753 
-2.20708e-18 1.05538e-17 1 

-0.344931 -0.00653788 -2.41582 
0.492515 0.23532 -0.262006 
9.16084e-18 -6.34941e-18 1 

-1.26574 -0.563938 -1.82228 
0.187373 0.367856 1.9844 
7.53048e-18 6.54866e-18 1 

-0.138133 -0.0996888 -0.152053 
0.13218 -0.166498 -0.21379 
3.87913e-18 7.13404e-19 1 

0.656617 0.926059 0.865056 
-0.882397 0.47272 0.0990331 
1.33897e-18 6.86422e-18 1 

-2.59914 -1.16217 0.774364 
-0.129599 0.58385 -1.74219 
1.11196e-17 -9.78675e-18 1 

-0.623748 -0.312994 1.50673 
-0.136781 0.410695 -1.9089 
7.77371e-18 1.60448e-18 1 

-1.07995 -0.196298 3.90425 
0.0145544 0.298117 1.09957 
-5.23209e-18 1.06467e-18 1 

-0.564169 -0.184485 -0.378615 
-0.0318541 0.259779 -0.441518 
-1.37537e-17 -3.85332e-18 1 

-1.17629 0.73402 0.418188 
-0.316101 0.367602 -0.558292 
-4.1474e-18 -6.94778e-18 1 

-0.339132 0.256587 1.35536 
-0.0425304 -0.0283533 -2.75598 
6.56269e-19 -1.78795e-17 1 

-2.25779 0.266465 -6.03052 
-0.269249 0.751534 -2.93687 
-2.25855e-18 1.55427e-18 1 

-1.18044 -0.431232 0.423479 
-0.332315 0.41791 -0.066449 
-3.54101e-19 9.20662e-18 1 

-0.477032 0.0573773 -0.111248 
0.245851 0.400729 -0.137127 
-7.29876e-18 -4.60442e-17 1 

-0.22011 0.0910198 -0.760065 
-0.0583488 0.00741807 -0.591507 
1.60381e-17 7.69643e-18 1 

-1.32932 -0.895424 -0.574035 
0.982094 0.733997 0.415121 
9.67181e-18 3.92479e-18 1 

-0.878594 -1.45799 4.18413 
0.726468 1.20703 -0.969088 
1.11026e-17 0 1 

-1.23142 -0.526762 -0.2878 
-0.370773 0.46578 0.975566 
2.65102e-18 -1.66916e-18 1 

-0.629288 -6.86469 0.999088 
-0.0599261 -0.00837056 -0.276496 
-7.90983e-18 -6.22613e-17 1 

-0.825774 -0.347721 3.4188 
0.482677 0.444836 0.102001 
-1.38115e-17 9.0985e-19 1 

-0.128206 0.400594 0.690277 
-0.594723 0.231569 1.49337 
-3.60307e-18 8.8616e-18 1 

-0.876282 -0.217307 -0.582185 
-0.0431022 0.443254 0.187505 
-1.15185e-18 -5.83602e-18 1 

-0.244608 0.205241 -0.371338 
-0.274801 -0.0959251 0.128692 
3.25607e-18 -2.01128e-18 1 

-0.0123701 0.279225 -0.410662 
-0.287225 -0.0905836 -0.107988 
8.53037e-18 4.13498e-18 1 

-0.336925 0.0739812 -0.509258 
-0.248434 0.0244322 4.87666 
-2.35613e-18 -2.30464e-18 1 

-0.43604 0.057191 -3.46932 
-0.0251177 -0.0401227 -2.57558 
-7.11972e-18 4.1953e-18 1 

-2.58886 0.0475661 -1.27499 
-0.167512 0.685419 -0.981187 
-1.2563e-17 1.98103e-18 1 

-0.696195 -0.551842 0.417031 
0.13892 0.178432 -0.315644 
5.58231e-18 5.67911e-18 1 

-1.08898 -0.655664 1.91196 
-0.0956131 0.408332 -0.0703171 
-1.70856e-17 -8.81857e-18 1 

-1.0502 -1.39536 -1.70082 
0.0317823 0.277596 -0.471318 
1.33466e-18 -5.87885e-18 1 

-0.854624 0.615573 0.3454 
-0.685945 0.394837 1.0285 
6.55635e-18 1.51784e-17 1 

-0.199604 -0.210729 -0.187332 
-0.0774304 0.0184022 0.00982984 
6.91507e-18 7.96399e-18 1 

-0.43647 -0.141729 -1.44544 
0.085652 0.405483 1.02243 
-5.27367e-18 -3.651e-19 1 

-0.405298 -0.95431 0.623153 
0.275874 0.208368 -2.02759 
-3.54777e-18 -2.75937e-19 1 

-4.06997 -1.29708 7.15557 
-0.213383 0.893795 -0.768732 
-1.269e-17 -9.93963e-18 1 

-1.23436 -0.227198 -2.33105 
-0.00685411 0.384355 -0.989124 
2.35691e-18 1.39495e-18 1 

-2.86356 -4.11002 -1.65522 
1.03278 1.99005 -1.71664 
1.14352e-17 -6.89243e-18 1 

-0.13683 -0.731488 -1.12095 
0.374504 0.365158 -0.525054 
-3.89324e-18 -3.14454e-18 1 

-0.171018 0.16507 0.15414 
0.0792383 0.0705499 -0.155188 
-8.66466e-18 -2.59869e-18 1 

-1.28551 -1.28321 -4.0886 
0.461805 0.769012 0.821384 
-4.30107e-18 1.45308e-17 1 

-0.296839 -0.294176 -0.807308 
-0.0746702 -0.0288787 1.32973 
-6.72789e-18 1.00542e-18 1 

-0.775983 0.909416 -2.18206 
-0.119742 0.574882 -1.0267 
5.07087e-19 -1.37128e-18 1 

-0.891839 1.47003 -3.08333 
-0.0725564 0.0466364 4.54986 
6.25592e-18 -3.88778e-17 1 

-0.376579 -0.253474 0.368909 
0.325738 0.183277 0.636265 
-1.68609e-17 -1.39039e-17 1 

-1.3533 -0.970841 1.43525 
0.740272 0.875333 -0.886213 
-4.84762e-18 -3.48002e-18 1 

-0.372949 0.0762518 3.19427 
0.0310994 -0.00481595 1.23236 
-7.40056e-18 -1.37047e-19 1 

-0.258843 1.27484 0.361163 
-0.223873 0.456492 1.45197 
-6.57835e-18 4.46388e-18 1 

-0.388372 0.157462 -0.566139 
-0.172453 0.23278 -0.734298 
5.80642e-18 8.54834e-18 1 

-1.3911 -1.05739 -5.63796 
0.386395 0.654866 1.52473 
-1.3039e-18 -3.34334e-20 1 

-0.696761 -0.160735 0.811694 
0.234701 0.368448 0.878141 
-1.21597e-18 -1.12216e-17 1 

-0.0990708 0.0449946 -3.1761 
0.166056 -0.00784664 7.1741 
-2.36021e-18 1.46619e-18 1 

-0.581373 2.62363 -3.68818 
-0.0443878 0.142917 0.203976 
-3.38615e-18 -3.77823e-17 1 

-0.36857 -0.347564 1.28558 
-0.0751276 0.184758 -0.467113 
-5.98375e-18 -2.17093e-18 1 

-2.42542 0.291233 -0.973202 
-0.0141627 0.489605 0.509083 
-1.72945e-19 3.59194e-19 1 

-1.73052 -1.31635 4.22697 
-0.174951 0.504728 4.75734 
-4.29224e-18 -6.85936e-18 1 

-1.54799 -0.712809 -1.64292 
0.239091 0.494826 -0.859191 
6.93833e-18 1.07449e-17 1 

-0.281975 0.337672 5.20289 
-0.0407297 0.0785251 2.30703 
-2.66902e-18 -2.12062e-18 1 

-2.81633 -1.19275 -1.63098 
0.389256 0.531693 -5.15388 
9.44743e-18 1.29308e-17 1 

-0.897065 -0.357637 4.78387 
-0.057752 0.281191 -0.27921 
-9.0029e-18 5.7152e-18 1 

-1.02172 1.11702 1.04809 
-0.165771 0.757005 1.87011 
1.26682e-17 3.8471e-18 1 

-0.373276 0.681626 -13.4232 
-0.670821 0.349954 -8.36466 
4.61256e-18 -1.72404e-17 1 

-0.596082 -0.483782 -1.89785 
-0.150461 0.290206 -0.504906 
-1.50367e-17 2.76134e-19 1 

-0.716605 -0.441231 0.22168 
0.210026 0.300908 0.440443 
2.5642e-18 -1.48649e-19 1 

-0.34649 0.196972 -0.83262 
-0.00128488 0.172975 0.705205 
-5.96337e-18 -1.6933e-18 1 

-0.525582 -0.256048 0.64177 
0.270776 0.0958608 -0.0400625 
4.10872e-18 -8.64993e-19 1 

-0.381997 -0.0423566 0.173545 
-0.0590605 0.104492 -1.73491 
1.30906e-18 6.31155e-19 1 

-0.155883 -0.113818 14.0649 
0.0896641 0.226058 -4.57007 
-4.11684e-18 -1.78323e-17 1 

-0.519481 -0.378755 -6.71414 
0.372884 0.436456 11.8715 
3.0504e-18 -6.07082e-18 1 

-0.51128 0.491352 0.100689 
-0.285616 0.218767 -0.168075 
4.77179e-19 -6.91909e-18 1 

-3.1172 -3.65258 0.193831 
0.512187 1.23713 -0.998739 
5.00808e-18 3.25525e-18 1 

-1.20682 0.131275 0.816551 
0.074243 0.6302 -0.78852 
2.05776e-18 -1.06382e-17 1 

-0.353082 -0.46746 -4.66412 
0.0898824 0.217893 0.864517 
-4.09036e-18 3.78347e-18 1 

-0.149856 -0.438888 0.943261 
-0.355735 -0.0492804 1.12648 
9.03478e-18 -2.31583e-17 1 

-0.850285 0.397829 1.87637 
0.0788456 0.406246 0.82285 
-6.93909e-19 2.26677e-17 1 

-1.61783 -0.578103 -1.88363 
-0.0634749 0.383176 -1.84504 
-1.48495e-18 -7.87848e-18 1 

-1.21262 -1.41904 -7.28474 
0.656838 0.973141 6.21249 
9.13035e-18 -5.64152e-19 1 

-0.854202 0.486574 -0.215868 
-0.621364 -0.0756844 0.0735297 
1.70873e-17 -3.65354e-18 1 

-3.42129 2.12463 -1.82366 
-2.02169 2.09197 0.367301 
2.5797e-17 1.21684e-19 1 

-1.95037 -0.735591 0.741744 
-0.144168 0.492538 0.0995624 
-4.50104e-18 3.21503e-18 1 

0.108963 -0.527177 -0.809284 
0.519802 0.192734 -0.0689092 
8.38142e-18 -3.8726e-18 1 

-0.988012 -0.871664 4.72242 
0.11684 0.424856 2.49816 
8.54721e-18 -8.07946e-18 1 

-0.445929 -0.05728 -1.45342 
0.0208367 -0.201828 4.05393 
1.53242e-17 -1.20251e-17 1 

-0.485789 -0.154982 -0.487674 
0.189258 0.346495 -0.669627 
-7.02429e-18 5.09669e-18 1 

-0.459461 0.651278 2.67498 
0.0731765 0.353106 -1.58541 
8.92539e-18 -1.83699e-18 1 

-1.90396 0.3602 1.43355 
0.117337 0.526712 1.45908 
-3.42372e-19 -5.75185e-18 1 

-0.512809 0.379835 -10.1049 
-0.0374254 0.102773 -3.00714 
7.67801e-18 -4.94584e-18 1 

-2.2856 -1.39656 3.25983 
0.789696 0.956474 -0.0666755 
8.80311e-18 1.91789e-19 1 

-0.321791 0.397972 0.213994 
-0.0735901 0.215742 0.623006 
-2.25036e-18 -1.22069e-17 1 

-1.2453 -0.749812 -0.522824 
0.536763 0.624535 1.91594 
0 -1.33522e-17 1 

-1.42551 -0.0394015 0.109994 
-0.0973061 0.450614 -0.946557 
4.906e-19 2.66326e-18 1 

-0.695885 0.296871 1.18695 
0.172147 0.265322 -0.987657 
-3.04122e-18 -1.84074e-18 1 

-0.89221 -0.205435 -1.51504 
-0.333301 0.38175 -0.188635 
2.89601e-18 -7.46587e-18 1 

-1.86041 -0.449361 2.47502 
-0.75156 0.653954 -1.88218 
-1.48809e-17 -5.51145e-19 1 

-0.405045 0.390349 -3.59069 
-0.307577 0.337649 -2.62744 
4.56813e-18 -1.0553e-17 1 

0.113127 -0.751197 0.764478 
0.448492 -0.185512 -0.190803 
-3.84114e-18 -8.8712e-18 1 

-0.419285 -0.777504 -3.63886 
0.232255 0.317653 -0.296262 
4.78487e-18 8.35875e-18 1 

-0.716392 -0.0972967 -0.14776 
0.00561115 0.268136 -0.228824 
3.82811e-18 -5.53306e-18 1 

-0.361601 -0.275336 -1.26374 
-0.0162575 0.272993 -0.262732 
-6.63438e-18 1.07006e-18 1 

-1.00648 -0.14141 -0.168272 
0.690145 0.539718 0.649955 
9.76506e-18 -1.62091e-17 1 

-0.919401 -1.22651 22.991 
0.313123 0.658653 8.54609 
-3.41773e-18 7.97149e-18 1 

-0.512747 0.250752 -0.247767 
-0.140953 0.218161 -0.928339 
3.75986e-18 1.05276e-17 1 

0.0301771 -1.02698 6.27462 
-0.0084938 0.378017 1.50994 
6.35845e-18 -2.67888e-18 1 

-0.90114 0.666273 -1.49027 
-0.243246 0.369133 -0.509725 
-4.22256e-18 -1.09962e-19 1 

-0.358116 -0.137656 1.04893 
0.0968129 0.010926 -0.383264 
3.63667e-19 -1.36216e-17 1 

-0.551287 0.0779185 0.266116 
0.0569727 0.0969894 -0.707802 
-1.42008e-17 6.01267e-18 1 

-0.169822 -0.342671 0.739157 
0.168787 0.0462065 0.284108 
-5.99345e-18 -4.43515e-18 1 

-0.848277 0.31154 9.83619 
-0.432287 0.563075 2.38689 
-5.96053e-18 -6.18809e-18 1 

-0.77129 0.154593 -2.01009 
-0.603048 0.162009 -0.490561 
-9.82682e-18 5.70198e-18 1 

-0.274922 -0.177994 -1.06624 
0.0921472 0.0515478 0.290648 
7.00072e-18 1.64517e-17 1 

-0.211457 -0.135511 6.51898 
0.0266403 -0.00216725 5.64879 
-6.37679e-18 6.04448e-18 1 

-0.510795 0.161454 0.373109 
0.213762 0.151564 -0.299886 
-3.22814e-18 -1.31802e-17 1 

-0.940207 -0.473097 -18.6653 
0.558393 0.639081 -4.58599 
1.75092e-18 1.23515e-17 1 

-1.83455 -1.42899 -0.626022 
0.429588 0.511426 -0.340564 
8.60866e-19 -1.63974e-18 1 

-0.300102 0.114437 1.95218 
-0.121664 0.0917684 7.07288 
4.43273e-18 2.96026e-18 1 

-1.84287 -0.105843 -5.13017 
-1.40752 0.654156 -1.21069 
5.88732e-18 4.76593e-18 1 

-1.81491 0.585961 -0.381969 
0.234461 0.574091 1.08524 
-4.8668e-19 -1.46004e-18 1 

-0.393331 -0.38479 12.7492 
0.0407558 0.293504 -9.58904 
-1.45305e-18 7.44704e-18 1 

-0.901478 0.241972 -1.81379 
0.373851 0.47141 -0.143695 
-1.36225e-18 -6.45448e-18 1 

-1.82574 -0.416977 12.1639 
-0.167448 0.646908 10.975 
3.79451e-18 -1.10458e-17 1 

-2.07964 -0.954954 23.2071 
0.697405 1.08213 5.97558 
1.20359e-18 7.62424e-18 1 

-0.767676 -0.50712 -2.1653 
0.168525 0.349514 2.44113 
1.9393e-18 -9.69649e-19 1 

-0.758082 -1.53274 0.0716744 
1.16841 0.599994 0.498745 
3.13169e-17 -1.18113e-17 1 

-0.272129 -1.22088 -0.167114 
0.770354 0.865932 0.345034 
-2.70289e-18 6.88008e-18 1 

-0.875304 0.347962 1.5889 
0.410341 0.905007 0.384471 
1.04158e-17 -2.94358e-18 1 

-0.710272 -0.208202 -0.554273 
-0.00520969 0.107646 -0.342614 
-1.38826e-18 3.23928e-18 1 

-1.71903 0.642797 0.424878 
1.00122 0.444435 -0.388116 
-7.80955e-18 -1.3626e-18 1 

-0.193208 -0.635341 1.9616 
0.574129 0.242431 -0.405378 
-1.5372e-18 8.17692e-18 1 

-0.0992453 -0.0974893 0.631271 
0.00752951 0.0189507 0.358573 
-4.82326e-18 -2.85125e-18 1 

-0.361204 0.168266 1.45474 
0.0164474 0.0875432 -0.501449 
1.56256e-18 -1.6448e-18 1 

-0.852143 -1.10964 0.84478 
-0.00277729 0.360661 -0.0341022 
5.99037e-19 -2.64281e-19 1 

-2.5909 -0.650066 -4.48033 
-0.03657 0.677342 0.308917 
-2.92492e-18 8.32477e-18 1 

-1.44343 -0.272646 1.98226 
-0.480743 0.470583 3.28322 
2.08643e-18 -1.85171e-17 1 

-0.937289 0.0252225 2.21724 
-0.126008 0.42581 1.0991 
3.08516e-18 -1.47255e-18 1 

-0.17209 -0.0774527 0.277018 
-0.0532028 -0.014741 -0.219989 
-6.47132e-18 4.54868e-18 1 

-1.22051 -0.405975 4.67311 
0.482555 0.631288 -0.884722 
-2.93705e-18 4.52868e-18 1 

-0.25199 -0.050143 -0.538975 
0.0797512 -0.0792693 -0.166914 
-2.482e-18 -9.92799e-18 1 

-0.538938 -0.235889 0.447966 
0.193248 0.500628 -0.599832 
1.34227e-17 2.53209e-18 1 

-1.08385 -0.487045 0.111239 
0.0569944 0.309248 0.203787 
-9.02288e-18 7.43061e-18 1 

-0.643588 -0.0252494 -0.588754 
-0.170515 0.133953 -0.636654 
2.19456e-17 1.08243e-17 1 

-0.315867 -0.303771 30.9739 
0.191918 0.0760501 -8.23453 
5.40107e-19 1.73722e-17 1 

-0.524877 -2.05973 1.48887 
0.880697 1.582 -0.995105 
3.4668e-18 1.25077e-17 1 

-0.467097 0.169152 -0.555247 
-0.164548 0.0399832 0.222911 
3.26381e-18 -3.6475e-18 1 

-0.448541 -0.888827 -0.493901 
-0.493267 -0.154161 -0.296688 
-2.31953e-18 1.10627e-17 1 

-0.982977 0.260145 -2.99181 
0.280885 0.417173 0.260242 
4.5283e-18 7.15764e-18 1 

-0.819001 0.021805 1.92265 
-0.145561 0.278799 0.697136 
6.29132e-18 4.97638e-18 1 

-1.17158 -0.170906 0.788235 
-0.14912 0.414909 0.157622 
3.72439e-18 5.58288e-18 1 

-1.68532 -1.21017 1.65834 
0.0852138 0.542025 -0.250335 
4.76977e-18 8.99219e-19 1 

-1.88974 0.382065 -4.14268 
-0.869965 0.753227 -1.72669 
1.58074e-17 1.15961e-17 1 

-3.36083 1.19648 -6.87716 
-0.790687 1.37408 -2.65902 
6.63059e-20 4.30988e-18 1 

-1.27399 -0.379344 -5.91042 
-0.4428 0.512156 0.545278 
6.78518e-18 -8.69318e-18 1 

-2.07587 -0.699645 -3.34864 
-0.810993 0.586192 -1.66873 
1.10931e-19 -3.01194e-18 1 

-1.97924 -0.181516 -11.1894 
0.768552 0.83737 -0.252389 
2.73191e-19 2.04893e-18 1 

0.295885 -0.579311 0.924952 
0.635529 0.0191719 0.486871 
3.41276e-18 6.11786e-18 1 

-0.325855 -0.426163 -2.04643 
0.659006 0.575302 -1.87706 
2.33578e-19 -4.07993e-18 1 

-0.0522029 -0.12956 -0.21416 
0.0269096 -0.315395 -1.15795 
-2.8708e-18 1.29135e-17 1 

-0.385141 -0.439779 0.182869 
-0.18565 0.162452 1.07213 
-1.34551e-18 -4.57991e-18 1 

-1.39156 -0.0578663 3.33746 
-0.376489 0.677251 0.0148035 
3.97531e-18 2.96034e-18 1 

-1.69451 -0.108486 12.9139 
-0.387899 0.554392 4.7954 
5.95795e-18 -1.83061e-18 1 

-2.25995 -2.14998 -4.82812 
0.908355 1.3623 -0.320697 
-1.68211e-17 -3.79912e-18 1 

-5.41405 -0.0806024 4.49309 
-0.0428724 1.29865 -1.1237 
-6.02906e-18 -3.30119e-18 1 

-0.32025 -0.280044 -0.188421 
0.169876 0.0914641 0.0780707 
-8.15738e-18 4.99431e-18 1 

-1.39997 -0.281937 2.92279 
-0.0287461 0.434297 0.174522 
-1.2951e-18 8.74192e-19 1 

-0.187321 0.128457 1.42166 
0.0415094 0.0257848 1.56112 
-7.61466e-18 8.78187e-18 1 

-0.15212 -0.0101677 -1.11288 
0.330577 0.0575412 0.411935 
-2.57725e-18 -3.01035e-18 1 

-0.84457 -1.14978 22.1728 
0.385916 0.71778 -2.29937 
5.10179e-18 2.0976e-18 1 

-0.327483 -0.149556 -1.304 
-0.272837 0.142945 -0.0235092 
-3.66947e-18 -3.25517e-18 1 

-0.951712 0.511886 1.63944 
0.199345 0.410787 -1.20968 
1.1383e-18 1.14779e-17 1 

-0.984521 0.466758 -0.884927 
-0.708465 0.356287 -1.41006 
3.16169e-18 2.49607e-19 1 

-0.115066 -0.796875 0.778526 
-0.18444 0.243743 -0.196945 
-2.49702e-18 1.7579e-17 1 

-0.533133 0.0141192 -1.34342 
0.108137 0.316764 1.38909 
-1.05189e-17 7.02227e-18 1 

-0.840482 -1.00154 3.29096 
-0.139205 0.182691 -1.13417 
-8.43324e-18 -3.97039e-18 1 

-1.1404 0.513051 1.75336 
-0.491402 0.685629 -0.819578 
3.22057e-18 2.03883e-18 1 

-1.98512 -0.296623 -5.68102 
-0.0732672 0.702009 -0.154284 
7.86873e-18 -5.07377e-17 1 

-2.40214 -0.676101 -0.140981 
-0.277185 0.73168 0.294337 
-4.46732e-18 -1.76238e-18 1 

-2.06226 -2.60148 4.4615 
0.250323 0.998305 2.9909 
7.40907e-18 3.85574e-18 1 

-1.28069 -0.967066 -0.819321 
0.322304 0.742061 1.34231 
8.0456e-19 1.20684e-18 1 

-2.17485 -1.33654 -1.94401 
0.523624 1.17407 2.42189 
-1.06372e-17 5.01979e-18 1 

-1.13953 0.254649 3.80134 
0.83424 0.362942 0.585319 
-2.5557e-18 1.41122e-17 1 

-0.0537607 -0.301321 1.47521 
0.151374 0.378963 -0.199248 
1.93763e-17 -1.84536e-17 1 

-1.06481 -0.121556 -4.28772 
-0.116363 0.484914 -0.917608 
7.12619e-18 -3.35008e-18 1 

-2.81947 -1.71967 -2.09697 
0.169451 0.593712 -0.582955 
1.49501e-18 1.83926e-17 1 

-1.80545 3.45223 -9.58048 
0.0660026 0.539531 1.24154 
1.07574e-18 -1.3167e-17 1 

-0.28256 -0.468149 0.204009 
0.173892 0.161709 -0.150847 
-1.24906e-17 0 1 

-0.293296 0.11075 0.162694 
-0.0979174 -0.0784017 0.0895082 
8.6132e-19 1.7992e-17 1 

-1.07036 -1.98728 -3.01939 
0.689654 1.16238 0.0144171 
5.54292e-18 -3.43505e-18 1 

-0.17806 0.113996 22.1517 
-0.447842 0.433339 1.03787 
-1.62271e-17 1.44584e-18 1 

-0.22724 -0.1252 -1.22742 
0.0834186 -0.0489445 1.26539 