# vtk DataFile Version 3.0
Output file generated by Yade's KinematicLocalisationAnalyser
ASCII
DATASET UNSTRUCTURED_GRID

POINTS 13483 float
684.342 26.6878 -0.430181
901.014 43.1768 -0.452036
133.974 6.11985 -0.330187
954.582 4.19693 0.280615
556.336 7.38913 -0.302275
349.591 33.955 -0.465232
174.365 6.73974 0.362503
638.157 9.89192 0.13146
552.883 22.0295 0.138275
831.993 11.8824 0.332806
234.218 8.673 -0.118972
285.48 6.24347 -0.272447
740.926 27.1262 0.136928
715.859 13.6867 -0.0718701
152.864 16.673 0.436029
246.5 33.4874 0.39619
242.065 12.7549 -0.249654
320.575 9.28762 0.381082
378.444 31.4598 0.195491
585.528 8.52774 0.338168
456.835 35.6134 0.0961324
665.018 42.296 -0.255795
949.57 29.6745 -0.43806
800.751 40.0549 0.444712
510.819 15.7343 0.297466
267.482 43.0199 -0.123273
547.52 26.3818 -0.494608
658.449 18.4013 0.231868
50.0986 15.1873 0.467567
826.621 29.5811 -0.316598
537.123 4.81306 0.316715
18.968 22.3657 -0.293178
917.109 39.7642 0.266925
551.705 2.49649 0.45647
87.2238 42.681 0.100798
582.18 29.3541 0.321401
592.653 16.3297 -0.412753
381.581 21.3989 -0.181094
595.926 24.7391 -0.314987
389.741 32.2779 -0.287923
268.006 14.1183 -0.336228
483.24 34.1497 -0.0624818
773.286 6.57092 0.116774
214.932 6.06623 0.381514
61.6687 6.72415 -0.124064
76.1154 8.65353 -0.266522
793.134 8.39195 -0.480445
26.2924 11.3116 0.302423
688.912 42.3793 -0.356989
774.865 21.8208 0.331095
192.373 31.3344 -0.298566
894.908 31.9757 -0.128148
39.256 27.3223 -0.118881
596.885 2.93034 0.312913
158.574 7.23288 -0.430473
667.484 32.1745 0.361864
562.665 25.0408 -0.120841
194.536 0.916264 -0.265261
36.5316 2.44988 0.267237
387.44 17.3806 0.26914
701.735 43.177 -0.131976
515.064 32.5203 0.176625
444.074 1.03257 0.186148
806.338 7.41882 0.319084
29.2472 41.3601 0.214319
285.191 29.6314 -0.291174
832.166 7.13884 0.206698
765.752 41.7062 -0.343248
464.716 8.44625 -0.457969
639.131 3.46048 -0.333299
869.033 27.7772 0.378596
146.01 7.39842 -0.278487
556.051 24.4209 -0.128062
532.412 14.6548 -0.110539
327.57 16.3631 -0.256991
23.209 13.17 -0.240686
924.482 30.0371 -0.305084
370.019 37.4587 -0.27827
772.141 18.7195 0.307405
792.777 12.0932 -0.232876
936.189 10.6066 -0.178239
518.811 33.5715 -0.16661
103.027 36.8213 -0.201786
786.335 31.8262 0.204636
736.908 36.0688 0.0982711
958.158 34.39 -0.104746
927.56 1.24484 -0.477616
323.675 28.1458 0.424549
703.552 6.27612 0.0735614
27.2126 5.2127 0.362258
148.337 36.61 0.138052
573.424 13.8818 0.18209
913.827 22.7637 -0.481949
218.427 27.684 0.243635
49.7224 33.3112 -0.261713
550.488 1.16427 0.0943413
262.886 8.72179 -0.3321
872.431 36.5857 -0.257906
899.396 24.3197 0.245438
402.652 19.9899 -0.246985
183.227 25.8056 -0.443148
617.269 36.5611 -0.413225
424.087 14.9101 -0.440819
461.725 28.479 -0.104803
421.995 4.44925 0.402934
614.926 10.6476 -0.0921313
960.027 11.0735 0.161299
89.7911 37.8175 -0.388502
374.157 4.69612 -0.17757
631.005 9.16562 -0.312248
401.714 42.4578 0.43789
29.1467 23.7146 -0.477644
34.1744 5.63583 0.326296
640.328 30.74 0.406205
566.052 22.7769 0.138652
29.4581 35.6988 0.406434
104.181 29.541 0.213159
362.794 15.3389 -0.317221
678.772 18.0741 -0.125085
532.05 36.731 0.307056
853.191 7.48458 -0.337732
843.13 6.10777 -0.182339
432.315 35.6463 -0.0947885
723.164 23.9002 -0.0993846
266.592 16.6205 0.474349
368.843 3.59619 0.464541
116.003 30.3931 -0.319199
130.158 23.1679 0.264231
612.01 37.1876 0.0754518
342.067 18.3397 0.453934
820.644 32.4889 -0.103744
770.759 40.8679 0.110812
539.032 19.8485 -0.381137
904.419 8.4357 0.287705
480.47 22.3801 0.218589
310.036 23.4648 -0.311849
773.288 28.9663 0.28469
311.93 27.8539 0.384198
651.227 11.3215 0.165887
371.35 34.2208 -0.181936
567.114 11.1636 0.406083
410.601 30.1699 0.0884231
483.092 16.0485 -0.106526
356.328 40.514 0.435037
214.007 28.9729 0.115171
906.873 41.0888 0.152624
954.932 11.5042 -0.267001
6.80485 11.6597 0.422257
487.341 21.6743 -0.398862
43.0053 21.6493 0.0848425
421.315 30.165 -0.461533
443.213 23.8932 -0.254992
84.0161 11.6734 -0.432047
58.3416 31.9942 0.427967
253.598 13.0776 0.350757
703.214 36.7812 -0.382201
654.186 19.4476 -0.428204
84.2117 20.3543 -0.461438
803.711 43.4842 -0.405224
888.79 2.42096 0.398095
757.408 38.0414 0.458348
801.096 2.30713 0.381682
621.856 25.3494 0.381723
666.674 42.4446 0.440375
577.904 17.6587 -0.380428
951.345 2.92328 0.243718
251.533 24.0937 -0.109572
143.472 33.765 0.189372
277.758 6.40861 0.352126
106.442 4.01091 -0.229515
72.0929 9.61088 0.197889
309.769 34.6797 -0.300488
18.9279 24.2194 -0.364257
628.449 18.5685 -0.385266
688.701 37.4655 0.201689
520.841 20.5859 -0.347502
939.208 35.3983 -0.34445
457.292 8.29743 0.0919899
490.648 34.6574 -0.362464
606.338 3.39379 -0.176438
25.906 23.0779 0.377089
654.243 4.227 -0.37599
617.156 4.33229 -0.278883
232.232 11.1283 0.458636
478.71 15.9746 0.178877
349.907 6.18809 0.300405
436.109 18.3754 -0.345654
858.017 39.73 -0.106967
216.472 24.776 -0.405419
918.498 6.66027 -0.296979
856.945 35.9989 -0.319968
431.392 9.82953 -0.198927
828.638 2.37285 -0.375018
688.649 24.0316 -0.392414
862.413 17.3905 -0.370075
485.189 40.9801 -0.259959
560.525 12.0415 0.318877
524.673 42.8306 0.124707
502.089 8.51239 0.146094
761.133 37.1533 -0.275557
758.573 33.5298 0.316171
216.246 37.825 0.340473
933.886 10.4909 -0.113098
669.282 43.2627 0.241858
12.7409 16.6518 -0.16091
458.967 24.6899 0.33665
211.332 22.3401 -0.386321
104.752 37.7382 -0.0452849
911.484 20.2243 -0.396402
753.583 41.4125 -0.224674
358.968 24.6797 0.356025
602.783 9.98319 0.32102
92.8126 42.5907 0.161489
278.835 25.1925 -0.471661
631.55 22.5623 0.361907
549.27 17.8542 0.397006
295.852 0.892381 -0.340268
627.511 38.5039 -0.265158
604.821 39.3831 -0.43157
544.359 31.8 0.380223
563.91 0.758218 -0.46722
813.261 17.464 0.332144
202.772 11.5714 -0.164417
565.787 34.382 0.414084
641.357 37.4425 0.11183
81.8992 0.950269 0.272198
283.545 4.6478 0.165008
954.192 13.362 0.190847
936.601 12.5741 -0.354792
962.365 15.5532 -0.452613
341.716 8.33469 -0.227654
870.128 21.2216 -0.383462
459.253 39.8125 -0.053239
506.567 0.810826 -0.400686
744.685 33.3216 -0.432865
30.5128 29.2872 0.304571
372.216 39.6751 0.450184
284.47 2.79894 0.29703
920.332 37.0203 0.194693
825.292 44.4037 -0.220096
323.691 10.5829 0.151513
766.126 27.1696 -0.0818011
632.704 2.63988 0.222437
614.801 6.34398 0.412738
109.331 17.4576 0.447291
341.467 1.02937 -0.215711
387.157 2.26534 -0.360646
15.7385 7.59746 0.267334
4.84951 29.5935 0.232244
183.256 18.7309 0.327291
77.1583 40.2712 -0.212684
75.5339 27.6319 0.313462
478.118 14.2723 -0.367622
414.091 33.6648 -0.458231
892.672 33.837 0.117471
22.1394 3.8424 -0.291971
79.4746 6.72265 0.134519
714.964 36.2071 -0.138768
332.346 0.932897 0.315529
411.302 15.6243 -0.0978292
266.038 4.54613 -0.389626
749.543 20.1919 0.171085
510.023 8.20618 0.390314
873.311 19.1227 -0.350515
722.49 27.3968 -0.293072
771.024 16.9375 0.0780099
474.426 25.53 0.475738
115.296 43.0612 -0.30236
616.089 40.3986 -0.0676156
859.265 12.9552 -0.172966
268.558 29.2165 0.233201
36.4489 16.5587 0.160717
379.283 13.5206 0.459844
121.928 39.11 0.23769
301.911 40.9212 -0.185903
480.461 1.04857 0.19119
921.192 26.8039 0.375287
792.872 0.802845 -0.455513
374.782 2.98281 0.438331
338.451 25.7146 0.148069
523.46 39.7091 0.199515
92.0143 7.63636 0.451819
223.806 43.4123 -0.377839
902.3 26.6065 0.361702
560.49 37.1673 -0.065157
226.009 40.1322 -0.248142
181.76 40.6988 -0.29074
961.716 30.6142 0.383526
958.193 11.0093 -0.4414
692.095 3.58664 -0.479974
215.028 23.6671 0.096709
624.197 26.6254 0.105754
626.239 26.1741 0.262987
462.218 5.48759 -0.140876
544.876 0.936574 -0.280457
890.372 35.9534 -0.467613
96.461 29.6512 0.216471
755.719 17.4397 -0.414841
309.851 15.218 -0.32148
11.2774 2.32129 -0.327105
142.018 35.3501 0.188116
75.9028 22.2328 0.431155
812.65 34.4224 -0.294993
927.483 40.9053 -0.160682
210.237 27.3483 0.171597
949.078 11.1912 -0.291335
50.8091 35.1403 -0.252846
103.034 27.7991 0.150229
726.862 12.5424 0.37004
467.295 17.7037 -0.455886
589.188 16.2401 0.106787
269.345 27.3449 0.185618
711.387 4.44915 -0.41095
963.231 10.7048 0.296689
33.9613 30.4531 -0.255094
304.97 7.67287 0.185675
251.093 14.7732 0.220823
1.11288 34.1894 0.151035
254.614 14.1755 -0.356616
239.333 10.8302 0.134938
242.301 25.4651 -0.269068
150.418 27.0642 -0.123628
622.204 14.5258 -0.316679
189.509 13.9743 0.336212
914.407 38.4383 -0.217241
197.003 3.80398 0.431724
53.6859 36.37 -0.132144
865.458 45.4077 0.42646
317.296 30.7226 -0.367969
781.755 22.0791 0.404994
932.548 26.6006 -0.487956
339.69 8.98453 -0.113397
854.798 27.9777 0.336764
371.356 2.67555 -0.333897
470.4 23.2155 0.378143
778.264 15.4119 -0.420461
119.766 11.6119 0.39018
546.645 3.96769 -0.45163
877.496 16.992 -0.193651
99.9514 7.48307 -0.179433
318.093 14.3095 0.198948
478.967 11.3904 -0.197759
949.535 2.51537 0.355443
449.63 1.75551 -0.416053
200.302 37.4689 0.26557
862.12 10.3605 -0.275668
145.53 34.7709 -0.174837
297.346 30.4559 -0.367573
453.004 21.0604 0.20731
654.044 13.0055 -0.317228
438.001 9.95861 -0.386283
516.723 26.8245 -0.399256
902.32 43.1181 0.36261
53.8469 10.6678 -0.0920729
338.088 36.8867 0.0977096
429.224 25.5629 -0.353607
463.134 20.4999 0.249449
592.486 43.0299 0.356887
882.507 34.365 0.219974
765.057 32.8333 0.347931
255.443 33.0158 -0.389134
15.7727 30.1239 0.15256
756.734 34.3037 -0.127513
577.516 39.842 -0.208471
259.487 37.9841 0.0909027
790.567 29.5168 -0.106645
171.4 9.00904 0.183941
414.798 20.3685 0.289904
525.275 40.7412 -0.0990103
468.552 18.939 0.200029
897.625 45.4133 0.291006
481.903 3.31343 0.410354
56.8003 24.3105 -0.29672
532.573 30.4496 0.35005
491.917 39.8275 0.366059
917.804 32.6855 -0.223185
851.718 27.06 -0.228783
615.052 17.8326 -0.157284
907.099 34.2188 0.298251
331.384 2.05318 -0.433547
427.741 27.5727 0.448287
32.8336 37.3759 0.29117
858.141 28.627 -0.132759
698.132 19.1586 -0.447711
524.537 0.794355 -0.459213
143.281 4.38666 -0.28837
483.255 38.4486 -0.108386
13.9251 0.915392 0.305995
948.225 5.23951 0.11592
418.735 37.8259 0.013466
[...]
POINT_DATA 13483
TENSORS Strain_matrix float
-0.0214453 -0.0693491 -0.279774 
0.0250891 -0.0357406 0.362015 
7.06062e-18 -2.09462e-19 1 

-0.081474 -0.0186859 1.98272 
0.00731731 -0.0161926 2.80048 
2.79314e-18 1.9321e-18 1 

-0.0272123 -0.00106539 0.0635824 
0.018954 -0.0716134 0.141641 
-1.64519e-19 5.15933e-18 1 

-0.153174 0.00335127 -0.160941 
-0.0252723 0.0072822 -0.0730502 
-6.49131e-18 1.35362e-17 1 

-0.0229752 -0.000496491 -0.025998 
0.0360958 -0.0990693 -0.00391068 
7.18513e-19 -3.20936e-18 1 

-0.0158894 0.00407418 -0.942216 
0.00515014 -0.0578425 1.83504 
-6.26674e-18 -5.07909e-18 1 

0.00800236 -0.0264283 0.00933014 
0.0124098 -0.110589 0.00220983 
2.42817e-18 3.01948e-19 1 

-0.0347003 0.011636 -0.0751665 
-0.00228905 -0.068747 -0.058712 
-6.02494e-18 -4.5187e-18 1 

-0.0128062 0.05421 -0.0885236 
0.0328384 -0.0449434 -0.152613 
-2.60395e-18 5.45589e-18 1 

-0.0988711 -0.0057796 -0.167681 
-0.0068183 -0.0567923 0.00485437 
-1.28537e-18 6.92123e-18 1 

-0.00847556 -0.0030829 0.139113 
-0.0098953 -0.0845821 -0.315309 
-8.80136e-18 3.73182e-18 1 

-0.0224165 -0.0399221 0.0828308 
-0.0618892 -0.0976224 0.0611663 
-2.8912e-18 1.00316e-17 1 

-0.0659035 0.0589061 -0.0817889 
0.0138845 0.0181047 0.0522371 
1.18731e-17 9.8862e-18 1 

-0.0817343 0.0401715 -0.101366 
0.00326536 -0.0360773 0.176523 
7.5235e-19 -2.85638e-18 1 

-0.0364294 -0.0200117 0.398721 
0.0217144 -0.0788491 -0.579928 
5.78564e-18 -4.53911e-18 1 

0.00726372 -0.0179455 -0.0952842 
-0.024629 -0.0580994 -0.0771141 
-1.76909e-18 -1.58979e-18 1 

0.00554515 -0.0266865 0.0973272 
0.018313 -0.117535 -0.0208287 
7.38505e-18 2.502e-18 1 

-0.0410611 0.0146213 -0.0160701 
0.0252734 -0.10605 -0.0426903 
-1.22289e-18 8.66212e-20 1 

-0.0733253 -0.0854127 0.142963 
-0.0827751 -0.0573194 -0.0338516 
8.65766e-18 -3.68466e-18 1 

-0.0273188 0.0259487 0.195269 
-0.0574677 -0.0917183 -0.142246 
-5.73011e-18 -2.30796e-18 1 

-0.0104498 0.00360217 0.0537192 
0.0277619 -0.0495378 0.0848463 
4.55113e-18 3.65499e-18 1 

-0.0288031 -0.0415861 0.0938009 
0.0163574 -0.0166522 -0.0453342 
7.54774e-18 6.76416e-18 1 

-0.172019 -0.0472376 -0.647492 
0.00395721 0.0608506 0.94651 
-1.64026e-18 6.28846e-18 1 

-0.06075 -0.0309826 -1.28481 
-0.0246551 -0.0344207 0.539779 
-7.32085e-19 1.13196e-18 1 

-0.0166649 -0.0123487 -0.156388 
0.0747187 -0.0635071 0.095953 
-4.79988e-18 9.8008e-19 1 

0.0174742 0.0207296 -0.212957 
-0.0561071 -0.0579018 0.589088 
-4.13602e-18 7.83122e-18 1 

-0.0294374 -0.000410574 -1.26487 
-0.00764456 -0.0625949 0.801909 
4.35237e-19 -2.52048e-18 1 

-0.0353245 -0.00685416 -0.00751321 
-0.0176338 -0.0508094 0.0655635 
-3.16978e-18 -1.98456e-18 1 

-0.0138329 0.026259 0.049771 
0.0170815 -0.091928 -0.186193 
1.24992e-18 -9.42312e-18 1 

-0.122784 -0.0250668 0.178686 
0.0431616 0.0494955 0.0854008 
1.42154e-17 3.93657e-19 1 

-0.0368282 -0.0375684 -0.026724 
0.00794489 -0.160409 0.391461 
3.3655e-18 -4.61028e-19 1 

-0.0168962 0.0462881 -0.13512 
0.154908 -0.109958 -0.263616 
-1.57067e-17 -2.06431e-18 1 

-0.0798366 0.00950715 -0.325221 
0.00824976 -0.0280482 -0.173935 
3.80226e-19 1.1624e-17 1 

-0.00758538 0.00381369 -0.488018 
-0.0145383 -0.0107562 0.598101 
-9.74015e-18 -3.64839e-17 1 

-0.0367605 0.0328719 0.00308127 
-0.0457837 -0.0620798 -0.00847012 
-6.40506e-18 -3.09578e-18 1 

-0.0465399 -0.0230663 0.0433752 
-0.00629032 -0.0450077 -0.62766 
1.01586e-17 7.76694e-18 1 

-0.0291823 0.00452188 0.440327 
-0.00701548 -0.0697185 0.137655 
-5.26281e-18 -8.51658e-19 1 

0.0526089 -0.0844265 -0.186444 
0.0674445 -0.221321 -0.0144429 
-3.88907e-18 -2.62453e-18 1 

-0.0164765 -0.0350248 -0.0733196 
0.0818409 -0.081626 0.0925467 
6.70352e-18 6.70352e-18 1 

-0.00321789 -0.0266023 -0.0219602 
0.0434829 -0.0827227 -0.0451276 
-1.38938e-17 4.58662e-18 1 

-0.0300088 0.0121022 0.0223861 
-0.0886032 -0.10346 -0.27008 
-2.52141e-18 4.30285e-18 1 

0.0221893 -0.0241779 -0.115347 
-0.0779921 -0.0396709 0.0530001 
7.38808e-18 2.08298e-18 1 

-0.0389918 -0.0486552 0.139661 
0.0161663 -0.0768085 0.101984 
-9.41789e-18 -1.19789e-18 1 

-0.00965363 -0.0313938 0.206808 
0.00472154 -0.105032 -0.0166929 
2.30509e-18 3.99576e-18 1 

-1.83345e-05 0.0036184 -0.00345969 
-0.00186396 -0.125679 0.143872 
-3.55084e-18 -8.35492e-20 1 

-0.000642143 -0.0113803 -0.0573566 
0.0069647 -0.089704 0.0293623 
-1.47687e-18 1.09642e-17 1 

-0.0442348 -0.0015494 0.452865 
-0.025717 -0.0769819 -2.32 
7.78815e-19 -3.45599e-18 1 

-0.00832562 0.0204921 0.00520722 
-0.0387279 -0.157468 -0.00140852 
-1.81994e-17 -6.82792e-18 1 

-0.0639061 -0.0180601 0.00869247 
-0.0162555 -0.0336556 0.00323316 
-4.88045e-18 -9.49708e-18 1 

-0.0283062 0.0347936 0.326773 
0.0401992 -0.0493149 -0.124771 
1.19124e-19 -4.92132e-18 1 

0.0176946 0.0131804 0.325612 
-0.0702108 -0.0415464 -0.051129 
-5.22755e-18 -6.17392e-18 1 

-0.0491359 -0.0181489 0.0182259 
0.0192156 -0.0308052 -0.0829848 
-4.63521e-18 -9.88846e-18 1 

-0.0412294 -0.0348564 0.227912 
-0.0209595 -0.0252115 -0.0584335 
2.20129e-17 5.12688e-18 1 

-0.0409554 0.0134324 0.0144024 
0.0111245 -0.0681287 -0.16248 
1.29664e-17 3.29306e-18 1 

-0.0174104 -0.0148037 0.393225 
0.0129523 -0.114204 0.00738297 
-7.85265e-18 8.57069e-18 1 

-0.0370994 0.00542877 -1.05337 
0.0078265 -0.0440305 -1.43806 
1.50592e-18 -4.08844e-18 1 

-0.031968 -0.0326774 0.131807 
0.0620173 -0.060587 0.141637 
-2.57654e-18 4.3603e-18 1 

-0.00133034 0.0695684 0.14695 
-0.0209928 -0.177424 -0.0184512 
6.34583e-18 -1.34432e-18 1 

-0.00673268 0.0293254 -0.101465 
0.0175298 -0.153066 0.121841 
-1.73527e-17 -1.67856e-17 1 

-0.0110565 0.0194945 0.453635 
-0.0299672 -0.121356 0.0169789 
-1.58926e-17 -5.74155e-18 1 

-0.0358545 0.0330092 -0.0041118 
0.0236063 -0.0452674 0.1808 
-4.83733e-19 -1.70614e-17 1 

-0.0215083 -0.00954627 -0.14581 
0.0481075 -0.0250054 0.101407 
2.37163e-18 3.61826e-18 1 

-0.0282059 0.00487696 -0.0598939 
0.000508929 0.011512 0.0486987 
-5.05097e-18 -5.59096e-17 1 

-0.0417504 -0.0182707 -0.157136 
0.0100574 -0.0812658 0.0938901 
-1.06462e-17 9.10306e-18 1 

0.00429292 0.0405315 0.106262 
0.0248836 -0.0720002 -0.00315153 
-1.09704e-17 -1.26743e-17 1 

-0.0698234 0.00147778 0.0104242 
-0.0118538 -0.0617127 -0.149953 
-5.0373e-18 3.18964e-18 1 

-0.0897081 -6.1682e-05 -0.0728552 
0.0251139 -0.0878199 -0.0856815 
1.16176e-17 3.60146e-18 1 

-0.0322431 0.0181753 0.0143647 
-0.0403963 0.0543767 -0.0950102 
6.8135e-18 -2.14138e-17 1 

-0.0347355 0.00459617 0.365135 
-0.0380615 -0.102772 0.0437952 
-6.34461e-18 8.73863e-19 1 

-0.0646027 -0.0247381 0.0989334 
-0.00635853 -0.109292 0.0880446 
8.36871e-18 -9.5922e-18 1 

-0.105128 0.0117271 0.0486134 
-0.0264011 -0.012848 -0.272299 
-8.2782e-18 7.6212e-18 1 

-0.0068383 0.0249965 0.00505261 
-0.0140518 -0.0958933 -0.109536 
9.47882e-18 -2.17881e-18 1 

-0.0248018 0.00679019 0.0326041 
-0.0393963 -0.0807238 0.14883 
3.62373e-18 5.86455e-18 1 

-0.0174885 -0.0106484 -0.0245208 
-0.0150531 -0.0759042 -0.064217 
1.52721e-18 4.12849e-18 1 

-0.0292765 -0.032283 0.00521511 
0.00143601 -0.0592354 -0.0151261 
-3.88931e-18 7.99969e-18 1 

0.0169689 0.00714267 -0.0707812 
-0.0704802 -0.141265 -0.0661085 
7.32718e-18 6.92011e-18 1 

-0.0854562 0.0149007 0.200323 
0.0386509 -0.00810181 -0.248821 
-1.2055e-17 3.47133e-18 1 

-0.0165379 -0.00542716 -0.0712751 
-0.00332145 -0.0741014 0.371171 
2.26946e-18 0 1 

-0.0818674 -0.0567201 -0.166627 
0.0476371 -0.0708204 -0.362378 
-8.05535e-18 6.4628e-18 1 

-0.0458842 0.0329164 0.0255633 
-0.0258714 -0.0590255 0.00979148 
4.27289e-18 5.71419e-18 1 

-0.114708 0.0427445 -0.0813458 
-0.0246015 -0.0579339 0.194015 
-2.15067e-18 5.30877e-19 1 

-0.0132611 -0.0106067 0.094526 
0.0170599 -0.0262866 0.0419206 
1.42258e-17 -8.08494e-18 1 

-0.0203121 0.0366182 0.0869781 
-0.0246461 -0.0184303 -0.157437 
-2.93561e-18 4.45201e-18 1 

-0.0354298 0.0182063 -0.0627562 
0.0219658 -0.0522036 0.257297 
-1.04043e-18 -6.68068e-18 1 

-0.0516531 -0.0289037 0.00874806 
0.0274846 -0.00456397 0.0254914 
-7.17573e-19 -1.37419e-17 1 

-0.0627686 0.0526457 0.0538657 
-0.0348399 -0.000450812 0.148566 
7.43474e-18 5.07574e-18 1 

-0.109728 0.0344394 0.614687 
0.00711255 -0.0445781 -0.0957446 
-5.36308e-18 -1.81999e-17 1 

0.0151382 -0.0220048 0.0463384 
0.0562909 -0.133497 -0.0868419 
5.97391e-19 4.89861e-18 1 

-0.0437741 -0.0190943 0.0497031 
0.0456804 -0.0729358 -0.115538 
1.08455e-17 7.7468e-18 1 

-0.0196503 -0.00193029 -0.0272334 
0.00190595 -0.102624 0.123624 
-2.76522e-19 1.43289e-18 1 

-0.0452637 -0.026948 0.0348531 
0.0155314 -0.0440497 -0.0296333 
-6.5959e-19 -2.66584e-18 1 

-0.0121438 0.014413 0.0485076 
0.00726122 -0.089028 -0.0509855 
-8.80795e-18 -1.09919e-17 1 

-0.113091 0.0122795 1.14946 
-0.0269699 -0.00347265 -2.1121 
6.91147e-18 -3.6015e-18 1 

-0.0272957 -0.0113293 -0.00689613 
-0.0118679 -0.0640079 0.141062 
-3.22194e-18 5.13157e-18 1 

-0.0229301 -0.00457694 -0.254607 
0.0263555 -0.0289716 0.174442 
-6.23121e-18 3.24731e-18 1 

-0.0224099 -0.0285803 0.127969 
-0.0198219 0.00838577 -0.286751 
-6.30634e-18 4.38079e-17 1 

-0.0325453 -0.00603073 -0.0522767 
-0.0054141 -0.0571884 0.0849306 
-8.06764e-18 -4.05776e-18 1 

-0.0873593 0.0302634 0.0754189 
-0.0251408 -0.0597156 -0.116164 
-6.43823e-18 -5.59846e-19 1 

-0.0941891 -0.0349683 -0.0472123 
-0.00994542 -0.0100423 0.00346011 
4.4936e-18 -7.10851e-18 1 

-0.00418098 0.0276687 0.119725 
-0.0477206 -0.0822038 0.0151916 
-2.16513e-17 4.67566e-18 1 

0.00386057 -0.0614133 -0.639002 
0.0373165 -0.0588448 2.07606 
-4.21655e-18 5.71577e-18 1 

-0.0338469 -0.0291527 0.072859 
-9.71969e-05 -0.0513011 -0.607326 
-9.8247e-18 -7.71125e-18 1 

-0.0378272 0.0280964 -1.58134 
0.0317593 -0.102629 1.65041 
5.57797e-18 3.86002e-18 1 

-0.0324032 -0.0460321 -0.16169 
-0.0663507 -0.031716 -0.10201 
-2.91295e-18 4.77302e-18 1 

-0.01642 -0.014033 0.570285 
0.0145035 -0.0964364 -0.281767 
7.7618e-18 1.01374e-18 1 

-0.029679 0.0135726 0.223354 
0.0314127 -0.084268 0.0429374 
1.49265e-18 2.79475e-18 1 

-0.123704 0.022074 0.0105679 
-0.00357707 -0.0362203 0.0386257 
-6.15156e-18 -2.00849e-17 1 

-0.00218317 0.0132507 -0.323577 
-0.0264436 -0.06123 -0.0166986 
-4.11003e-19 6.69672e-18 1 

-0.0265402 -0.0197113 -0.0601402 
0.00446487 -0.0955331 0.0821606 
-8.23822e-18 1.32218e-18 1 

-0.0460895 0.0186475 0.218732 
0.0328617 -0.094623 -0.367106 
6.32887e-18 1.53776e-17 1 

-0.0302992 0.00985533 0.00732065 
0.0181527 -0.062805 0.149993 
-1.20077e-18 -1.66423e-17 1 

-0.0070422 0.0480184 0.379708 
0.0381274 -0.108767 -2.59913 
-8.82779e-18 -9.83349e-18 1 

-0.0150419 0.00679292 0.061523 
0.00868412 -0.12578 0.024382 
-1.08064e-17 6.46746e-18 1 

-0.0208135 -0.00649934 0.175912 
0.0106898 -0.0586466 0.0712543 
-5.75921e-18 6.39913e-19 1 

-0.0344717 -0.031692 -0.040526 
0.00429701 -0.0449801 0.0602465 
1.83016e-18 6.68406e-18 1 

-0.0109524 -0.0145884 -0.0865784 
0.00170418 -0.0495187 1.08808 
8.35078e-18 2.04092e-18 1 

0.0349741 -0.00817175 0.373729 
-0.0163911 -0.108832 -0.0462491 
-2.13198e-18 -3.19797e-18 1 

-0.0286177 0.00300608 -0.105597 
0.0793706 -0.0788569 0.0659399 
1.75917e-17 1.09345e-18 1 

-0.0590859 0.0276823 -0.0718594 
-0.0224809 -0.0796517 -0.155171 
5.97927e-19 3.67955e-18 1 

-0.0473346 0.0223698 0.02656 
-0.0338581 -0.038501 -0.160822 
2.3701e-18 3.9218e-18 1 

-0.0695269 0.00856124 -0.0580986 
0.00246396 -0.105276 -0.124178 
-4.17062e-18 1.07062e-18 1 

-0.0680267 0.0186991 0.0786839 
-0.0450958 -0.0630116 0.0209338 
-1.95322e-18 -6.71833e-18 1 

-0.0224802 0.0243413 -0.0241792 
-0.00849303 -0.0407598 -0.0647173 
2.255e-18 2.63083e-18 1 

-0.0612773 0.0146406 -0.0858581 
-0.0415204 -0.0425125 -0.0211882 
-3.1148e-18 9.82249e-18 1 

-0.0145792 0.0238849 0.23174 
-0.00499716 -0.0919656 1.69384 
4.851e-18 -3.15806e-18 1 

-0.018523 -0.00850524 -0.0867705 
-0.00864411 -0.132823 0.278541 
1.67267e-18 1.05304e-17 1 

-0.0103002 0.0119401 0.0998425 
0.00241019 -0.0387314 0.0615952 
-7.7631e-19 -1.20759e-18 1 

-0.0585059 0.038046 0.30722 
0.0125664 -0.102087 0.461838 
-1.53464e-19 1.573e-18 1 

-0.0208613 -0.0179284 -0.0628993 
-0.0308646 -0.0499683 -0.161163 
-2.68787e-18 6.4257e-18 1 

-0.0139637 -0.00412692 0.261077 
-0.0137846 -0.0797379 0.53925 
3.81094e-18 -4.68243e-18 1 

-0.0445838 -0.00286592 0.16834 
-0.0180742 -0.0150596 -0.021487 
5.05324e-18 3.88265e-18 1 

-0.0664717 0.0102208 -0.0363644 
-0.0399781 0.019177 0.155099 
5.99442e-18 -5.31763e-18 1 

-0.023098 0.0181289 -0.0318849 
-0.0105237 -0.060246 0.338093 
1.95316e-18 -4.94525e-18 1 

-0.115169 0.0288227 0.0642978 
0.0156114 -0.0508406 0.00352621 
4.58218e-18 -7.82575e-18 1 

-0.0320769 -0.0125649 0.0455829 
-0.0389924 -0.0394353 -0.096844 
-1.82922e-17 1.74406e-17 1 

-0.0119456 -0.00564317 -0.107412 
-0.0607594 -0.0149632 -0.109037 
-1.02068e-17 1.38217e-18 1 

-0.0699901 0.0453234 -0.465168 
0.0381131 -0.0226999 0.301121 
1.40004e-18 -9.13871e-18 1 

-0.0239253 -0.00644264 -0.454078 
0.0712093 -0.0596253 -0.463389 
-7.28906e-18 6.57445e-18 1 

-0.0321309 -0.00592157 -0.0160027 
0.0166336 -0.0754131 0.0866897 
-2.70651e-20 -1.98288e-18 1 

0.000638898 0.016844 0.141136 
-0.0715505 -0.0611445 0.00841792 
-3.95061e-18 -4.76798e-19 1 

-0.029483 -0.0191993 -0.00122246 
-0.000127455 -0.0643176 -0.0420964 
1.63772e-17 2.22063e-18 1 

-0.034504 0.0111531 -0.140406 
0.0289341 -0.0570235 -0.0072051 
-3.85137e-19 -1.2517e-18 1 

-0.00850564 -0.00506022 -0.0534215 
-0.00621664 -0.057443 -0.0929981 
-4.87152e-18 -1.10716e-18 1 

-0.0047322 0.0273038 0.516806 
-0.0235441 -0.0448887 0.320214 
3.44801e-18 -2.17064e-17 1 

0.0186563 -0.0450837 -0.116985 
0.0275191 -0.015685 -0.159431 
6.13885e-18 -8.12387e-18 1 

-0.0559338 -0.0308862 -0.121644 
-0.00145597 0.0137961 -0.0684192 
-1.00098e-18 1.21859e-18 1 

-0.0911486 0.0117295 0.0234215 
0.00240721 -0.0671364 0.0224718 
-6.62632e-18 -1.00835e-18 1 

-0.0185219 -0.0108589 -0.736113 
0.0431885 -0.114457 -1.12861 
-2.58609e-18 1.00682e-17 1 

-0.0273691 -0.0142611 -0.0654071 
0.0441714 -0.0789384 -0.00347051 
-2.50816e-18 -2.10411e-18 1 

0.0569422 0.0621882 -0.127324 
0.0380189 -0.110183 0.1788 
2.56379e-18 9.5258e-18 1 

0.00117821 0.00619183 -5.5127 
0.0277746 -0.0710853 2.39264 
2.14896e-18 8.75144e-18 1 

-0.0783948 0.0716069 0.516134 
0.0226963 -0.0505779 -0.207142 
-1.51194e-18 -6.15084e-18 1 

-0.0100741 -0.0257378 0.338958 
0.00587183 -0.090316 0.0456224 
8.38664e-18 -2.86179e-18 1 

0.0137297 -0.0313778 1.32213 
0.0285407 -0.0708398 1.02382 
1.16001e-17 1.57904e-18 1 

-0.0249565 -0.0258529 0.0447265 
-0.0117781 -0.073043 0.0462344 
1.38365e-17 5.04494e-18 1 

-0.0694061 -0.0446981 -0.104798 
0.00197948 -0.0184982 0.0307115 
-5.85911e-19 1.66008e-18 1 

-0.0433083 0.00770094 0.0454835 
0.0158645 -0.0611149 0.215219 
-7.90045e-18 -5.71935e-18 1 

-0.014965 -0.0237335 0.159309 
-0.0112154 -0.0710661 0.0369483 
2.07586e-18 1.89243e-18 1 

-0.0448607 -0.00313539 0.600728 
0.0110814 -0.0300936 0.0827364 
3.52962e-18 6.06097e-18 1 

-0.105946 0.0167065 0.0264518 
0.0451698 -0.0975486 -0.0974192 
-3.77703e-18 -5.94418e-18 1 

-0.0527157 0.00515468 1.35599 
-0.0174876 -0.028325 1.87312 
1.43089e-18 3.43109e-18 1 

-0.0449741 -0.0350102 -0.16484 
-0.0100064 -0.0971243 0.0387874 
1.34779e-17 6.2293e-19 1 

0.00170384 0.00216666 0.140175 
0.0279989 -0.0742458 0.053077 
1.52187e-17 2.34036e-17 1 

-0.0363923 -0.00566017 -2.03617 
0.00813868 -0.0278489 -0.485704 
1.0036e-18 -4.48482e-18 1 

-0.0316003 -0.00924968 -0.00929544 
0.06987 -0.0891924 0.0597331 
6.36329e-18 -8.75322e-18 1 

-0.149139 0.0634912 -0.0425432 
0.0191975 -0.0939756 0.164112 
-2.13922e-17 -1.44485e-17 1 

0.0399235 -0.00280506 0.28424 
0.069101 -0.0971983 -0.0622364 
1.54496e-17 -5.00392e-19 1 

-0.0288157 0.000589928 0.0216549 
-0.0181234 -0.0485516 -0.0300724 
-5.17842e-18 -2.69371e-18 1 

-0.00705279 -0.070857 0.106899 
0.014538 -0.12778 0.315782 
-2.25316e-18 1.9817e-18 1 

-0.0172675 0.00510381 0.0952838 
-0.0121145 -0.119 0.399224 
-4.45906e-18 3.5077e-18 1 

-0.0115467 -0.00185952 0.00214405 
0.0186853 -0.0804987 0.0466651 
7.73642e-18 -7.84097e-18 1 

-0.0190234 0.0134981 0.0942937 
0.00717781 -0.054462 -0.0639675 
-5.78872e-19 9.9987e-18 1 

-0.0310351 0.00803002 -0.0738866 
0.09125 -0.0652696 -0.657563 
3.97447e-19 1.55998e-17 1 

-0.0579867 -0.00168306 -0.377077 
-0.0187734 -0.039373 0.235756 
6.66872e-18 2.43978e-18 1 

-0.0527446 0.0165724 -0.0823661 
-0.0301256 -0.0333814 -0.041912 
-1.31822e-17 2.90505e-18 1 

-0.0683806 0.00790575 0.0424574 
-0.0267929 -0.0750701 0.0717787 
7.45417e-18 -1.69392e-17 1 

-0.0783407 0.00852275 0.0755564 
0.0146045 -0.0145527 -0.206026 
7.17111e-18 -2.82519e-18 1 

-0.0321756 0.00879294 0.0151807 
0.0146114 -0.0703326 -0.129812 
3.03104e-18 -3.1892e-18 1 

-0.0280152 0.00149821 0.259864 
0.00429741 -0.0394351 0.0273632 
1.00374e-18 5.31279e-19 1 

-0.0281582 0.0357845 0.0302807 
-0.028603 -0.101963 -0.0318868 
-5.55568e-18 2.65346e-19 1 

-0.0126353 0.0868146 -0.557017 
-0.133314 -0.0541231 0.44212 
-2.54038e-18 -4.93091e-18 1 

-0.041509 -0.0299545 -0.0535419 
0.0365269 -0.110743 0.0277238 
-2.8891e-18 9.38958e-18 1 

-0.0222817 0.00167347 -0.0828783 
-0.0385683 -0.0738235 0.0468578 
-1.3748e-17 1.14021e-18 1 

-0.0110614 -0.0137809 -0.130023 
0.0286114 -0.0950902 -1.93922 
2.24927e-19 1.21305e-17 1 

-0.0443759 -0.0148815 -0.0085952 
0.0673193 -0.0522496 -0.177987 
2.01717e-18 -1.47505e-17 1 

-0.033492 0.0122304 -0.000599311 
-0.0774518 -0.0785534 0.136961 
1.79693e-18 3.59387e-18 1 

-0.0565422 0.0128443 0.532469 
-0.0275904 -0.0841409 0.21921 
8.51318e-18 -3.12324e-18 1 

-0.0870248 -0.0713646 0.174233 
0.0353213 -0.0229958 0.065325 
-1.00435e-18 -1.87159e-18 1 

-0.0457124 -0.00613963 0.253751 
0.0479706 -0.0790265 -0.213574 
-1.7312e-18 -7.76927e-18 1 

-0.0643926 0.0452637 0.0976832 
-0.0035007 -0.0534623 -0.0935132 
-3.96984e-18 -4.38337e-18 1 

-0.0638148 -0.030535 -0.138429 
0.0350233 -0.0282764 -0.0463156 
-2.9122e-18 -4.93456e-18 1 

-0.0132924 -0.0288533 -0.125262 
-0.0227977 -0.091399 -0.0262843 
-1.20712e-17 -6.47858e-18 1 

-0.0702091 0.0019828 0.155307 
-0.0124288 -0.0585013 0.122299 
5.1173e-18 1.3957e-17 1 

-0.0761517 -0.00581296 -0.499669 
-0.00210635 -0.0301561 0.498073 
-2.82399e-18 2.74875e-18 1 

-0.0781018 0.0377725 0.0118692 
-0.0300122 -0.0704298 0.0407807 
3.15931e-19 -3.85135e-18 1 

-0.0299655 0.0128919 0.0938395 
-0.0154268 -0.0196142 -0.257626 
5.15978e-18 7.1715e-18 1 

-0.0221804 -0.0210369 -0.222129 
0.0350473 -0.11144 -0.262787 
-1.42488e-18 3.7403e-18 1 

-0.0156773 0.0106488 0.12414 
-0.0263158 0.00482208 -0.0521683 
2.2268e-18 1.62415e-17 1 

-0.0197454 -0.0196651 -0.00309072 
-0.0307855 -0.0956592 0.20967 
-7.78995e-18 -1.75747e-18 1 

-0.0629403 0.00949933 -0.38461 
0.00624674 -0.0227607 -0.228229 
1.15379e-18 8.75982e-18 1 

-0.0104589 -0.0294634 0.00478253 
0.00439733 -0.103505 -0.118989 
1.81748e-18 5.1675e-18 1 

-0.0157356 -0.0180066 0.0541728 
-0.0212733 -0.0542596 -0.0167942 
-2.7792e-18 -4.86359e-18 1 

-0.121975 0.00360182 -0.017135 
-0.000870978 -0.0222279 0.168877 
6.09691e-18 -8.11331e-18 1 

-0.0205321 -0.0346248 -0.316012 
0.0198792 -0.0101582 -0.438458 
4.3682e-18 3.17687e-19 1 

0.0252541 -0.00433114 0.326948 
0.006995 -0.0871548 -0.134407 
-8.00279e-18 -4.70752e-18 1 

-0.0130996 0.0053051 -0.159749 
-0.0251172 -0.0652331 -0.19255 
-1.47459e-18 8.50722e-19 1 

-0.0567659 -0.0217313 -0.188662 
0.03778 -0.0368894 -0.133249 
2.00228e-18 -2.00228e-17 1 

-0.0298738 0.0326047 0.0998615 
0.0217327 0.00374914 -0.0634254 
-2.74309e-18 -1.23842e-17 1 

-0.123554 0.0105369 0.15055 
-0.0459902 -0.0166158 -0.36816 
1.26908e-17 9.13619e-18 1 

-0.0282032 -0.0434209 -0.124622 
-0.0272998 -0.0453522 -0.0286507 
-9.95883e-18 9.95883e-18 1 

-0.0032413 0.00383599 -0.0908782 
-0.0635475 -0.0564931 -0.0574928 
7.73431e-18 4.55161e-18 1 

-0.0655145 -0.00580999 -0.065045 
0.0148746 -0.0675665 -0.425955 
-5.77946e-18 -3.32319e-18 1 

0.000759837 0.0218753 0.144415 
0.047381 -0.0295729 0.127959 
-4.43555e-18 2.71853e-18 1 

-0.018507 -0.00341142 3.46879 
-0.0176389 -0.0673235 1.10257 