# vtk DataFile Version 3.0
Output file generated by Yade's KinematicLocalisationAnalyser
ASCII
DATASET UNSTRUCTURED_GRID

POINTS 13483 float
545.512 51.4389 -0.418025
652.811 85.1168 0.336406
115.114 6.08898 -0.446387
676.008 5.63445 0.399037
477.763 8.2475 -0.371878
306.219 39.9879 0.569451
150.876 7.0352 0.448849
519.993 26.7648 0.144765
470.835 25.8662 -0.155765
619.802 16.5111 0.612303
204.178 8.96534 -0.0952722
250.138 6.45115 -0.243245
573.496 47.4453 0.1369
563.795 15.7112 -0.107005
132.041 17.9628 0.566013
214.564 35.4999 0.262813
211.505 13.021 -0.297562
281.453 9.52039 0.446989
330.024 34.7275 0.440408
501.172 8.29499 0.368663
399.617 41.0687 -0.104218
539.4 71.0496 -0.271166
668.674 55.2973 -0.459797
611.934 72.8188 0.468535
443.007 18.0206 0.329396
234.411 45.4271 0.13475
459.486 33.2682 -0.506265
533.509 37.8611 -0.260626
43.9299 16.0967 0.466973
615.176 40.089 -0.37305
463.047 4.54588 0.419998
16.1678 24.0393 -0.30089
660.887 72.9916 0.27521
475.375 2.2253 0.634603
75.9263 45.9448 -0.105776
478.348 36.6118 0.350038
506.783 16.2726 -0.569234
334.239 23.1103 -0.171379
488.243 37.2452 -0.321101
340.077 35.3409 0.528094
234.64 14.6557 -0.333628
419.098 40.1626 -0.0874198
593.463 24.7011 -0.161641
186.432 6.2626 0.345266
53.9081 7.2072 -0.101515
66.6723 8.83434 -0.262292
595.206 11.1145 -0.666391
22.8366 11.4688 0.307375
562.195 79.334 -0.264183
594.068 44.8412 0.32398
166.602 33.2395 -0.296303
642.809 75.728 -0.125789
34.0488 28.9664 -0.106211
510.977 2.77572 0.426838
137.079 7.39898 -0.499298
545.914 61.7899 -0.363193
464.339 39.6835 -0.140891
169.21 0.952635 -0.273106
32.1557 2.35132 0.335043
339.425 17.9345 0.266453
575.976 80.9355 -0.132113
447.577 37.3565 0.183084
387.964 1.0315 0.205788
604.119 7.90339 0.381436
25.784 43.9403 0.242679
249.813 31.1447 -0.310298
621.228 9.4415 0.551217
582.699 75.912 0.341538
405.272 9.66665 -0.660895
522.875 11.7206 -0.612419
636.239 61.2082 0.461064
125.936 7.77707 -0.266005
468.261 28.0418 -0.12099
458.798 14.3564 -0.153813
287.307 16.6715 -0.392206
20.334 13.6511 -0.30892
657.662 61.406 0.337259
322.637 40.5631 -0.322462
594.084 41.1233 0.394984
595.714 17.6527 0.2736
664.938 25.1727 -0.332274
448.832 41.1322 0.190448
90.4431 41.1095 -0.134451
600.275 75.2594 0.232758
566.823 59.9577 -0.132893
672.694 59.3029 0.117661
673.071 0.684109 -0.517543
284.108 30.5101 0.424657
555.507 6.57912 -0.162663
23.8731 5.20323 0.574428
128.615 39.704 -0.153245
491.747 15.1749 0.218734
654.654 48.0779 -0.521513
189.736 29.3657 0.257485
43.6362 36.229 -0.27546
474.216 1.16083 0.123786
229.923 8.79856 -0.424747
627.539 83.6525 -0.264163
649.31 56.669 0.268335
351.69 21.612 -0.26963
158.614 27.5825 -0.441177
500.006 60.3955 -0.4278
371.056 15.843 -0.469392
402.854 34.3924 0.0960856
368.36 5.16567 0.524744
501.608 25.3591 0.156981
676.192 18.3414 0.339959
78.4668 40.7697 -0.418879
327.265 4.96661 -0.233456
514.545 26.6697 -0.438137
351.004 46.3249 0.453358
24.5203 25.5836 -0.448106
29.9156 5.70058 0.340054
520.323 55.4307 0.403267
479.071 25.8014 -0.151295
25.2275 37.672 0.423097
91.6121 32.7463 -0.219166
318.225 16.6697 -0.275339
542.96 27.2507 -0.159321
457.968 49.121 -0.117401
635.386 7.29969 -0.566297
627.826 8.14059 -0.30593
378.507 38.0102 -0.108505
564.432 33.4053 -0.112857
233.09 16.9605 0.597943
322.759 3.91375 0.467284
100.277 33.3131 -0.304783
112.747 25.485 0.265886
495.385 58.9289 0.0707378
299.445 19.0852 0.462465
606.454 49.5989 0.107799
586.529 78.3009 0.108603
462.08 20.8813 -0.418392
644.136 30.8444 0.336293
414.937 27.7366 -0.235408
272.603 24.1321 0.343895
593.262 63.3373 0.288444
273.904 29.2925 0.369948
529.007 30.285 -0.281636
323.44 37.1603 0.200952
485.737 12.5046 0.551589
358.284 33.4199 0.105325
418.69 17.7733 -0.105672
310.672 46.3092 0.446018
185.908 31.0584 0.11802
653.822 80.061 -0.142639
673.857 20.44 -0.26621
5.96434 12.3949 0.41979
421.989 24.4419 -0.42427
37.514 23.3232 0.0783178
368.726 32.6176 -0.467578
387.919 25.2323 -0.280945
73.0375 11.9451 -0.453583
50.3015 36.3834 0.551554
221.572 13.773 0.414343
548.38 41.7249 -0.426411
527.307 42.3568 -0.489493
72.4757 22.626 -0.491898
614.367 70.8868 0.446493
659.77 3.94694 -0.58255
580.769 67.774 0.452794
599.679 1.98445 0.601525
506.263 46.8237 0.386345
540.849 71.7721 0.459131
495.591 18.3845 -0.502543
674.022 6.11867 0.596278
220.032 26.4124 -0.104953
124.119 36.7225 0.195746
243.152 6.84152 0.402702
91.458 4.84023 -0.259224
63.0623 10.2353 0.243912
271.672 37.8993 -0.408788
17.001 26.3284 -0.363021
511.714 37.4676 -0.401655
562.699 74.4414 -0.199665
450.661 23.8786 -0.345041
676.582 81.3552 0.361689
399.075 8.6966 -0.146105
424.236 39.0476 -0.472578
518.775 3.68686 -0.419357
22.6294 24.5996 0.410289
527.533 15.4366 0.642132
526.333 5.37406 0.453459
202.551 11.3787 0.481263
415.407 16.9249 -0.210261
307.101 6.61713 0.344118
381.329 19.2022 -0.336537
626.206 70.3471 0.107325
188.618 26.3017 -0.419888
658.853 18.5995 -0.429881
629.843 69.0506 -0.331815
376.896 10.5664 0.183292
620.054 2.47615 -0.478492
544.467 36.4214 -0.459368
640.84 17.7989 -0.448319
422.981 48.7418 -0.310676
480.634 13.2951 0.4858
448.92 52.6501 -0.245762
435.65 11.1124 -0.199092
584.276 69.1372 -0.271974
584.098 64.7081 -0.359886
188.447 40.0045 0.355453
662.753 25.231 -0.167776
542.808 72.8495 0.242172
11.4995 17.0949 0.302284
401.437 28.6335 0.339585
183.941 23.5901 -0.424062
91.7571 42.5821 -0.225597
652.938 46.2587 -0.42629
575.596 72.771 -0.255392
315.173 26.977 0.362413
516.309 9.69336 0.372077
80.8788 45.9183 -0.183419
243.928 26.1954 -0.472472
512.381 43.1822 0.373156
472.227 18.8922 -0.612544
259.381 0.878061 -0.344062
509.247 64.337 -0.250693
488.509 57.7629 -0.506641
469.299 52.9234 -0.253894
485.011 1.95352 -0.66072
607.388 20.5548 0.42814
175.9 12.6215 -0.207971
485.753 64.4564 0.425319
520.597 63.2553 -0.0885043
72.1478 0.977488 0.273879
248.371 4.93064 0.187718
673.342 23.9014 0.239894
665.01 27.1957 -0.460958
678.164 23.7234 -0.665164
299.7 8.74497 -0.246014
630.796 36.8035 -0.465516
399.675 46.9256 -0.311878
437.112 0.915203 0.570771
572.791 59.676 -0.52765
25.967 31.2589 0.309622
324.903 43.1143 0.622251
249.172 3.07109 0.390767
663.212 69.3495 0.181743
617.218 64.1067 0.274289
283.857 10.9009 0.28758
585.54 55.9503 -0.0842778
529.222 4.51545 -0.383487
523.455 8.84567 0.637866
94.8884 18.9883 0.480428
299.705 1.11146 -0.238133
338.265 2.23023 -0.381288
13.7273 7.68098 0.461138
3.99158 32.228 0.256432
158.509 19.3353 0.417115
67.4296 43.6191 0.228517
64.5417 30.5242 0.336959
415.55 14.3198 -0.570431
361.542 36.8219 -0.478611
639.937 80.4267 -0.114851
19.2268 3.96583 -0.279341
69.6717 6.89754 0.14336
555.796 46.3976 -0.189354
291.231 0.934584 0.400599
359.705 16.6545 -0.121771
232.519 4.74037 -0.340109
575.326 36.6202 0.180896
439.907 10.378 0.57317
644.539 22.5701 -0.475857
565.011 37.6449 -0.3249
592.669 39.6739 0.0915988
410.906 30.9315 0.481099
99.6804 48.9214 -0.318546
497.8 63.7656 0.0678056
639.341 12.7503 0.305592
234.285 31.6814 0.252798
31.4252 17.7634 0.204851
331.832 14.0766 0.494845
104.949 44.098 0.465995
265.027 43.4493 -0.237975
418.644 2.12444 -0.284973
654.739 52.655 0.396886
593.68 2.46737 0.642373
327.731 3.45293 0.593052
296.56 28.42 0.155226
450.143 49.4115 0.19847
80.0403 9.07478 -0.510606
194.728 46.0143 -0.389765
648.571 61.7606 0.350884
480.163 65.1667 -0.0657945
196.958 41.8071 -0.292909
157.746 43.4384 0.396571
679.455 51.296 0.454861
675.462 19.723 -0.58693
547.687 3.35254 -0.666143
187.397 24.9135 0.0899125
508.149 47.4909 0.123022
510.056 50.5865 0.266295
403.739 5.98085 -0.117248
469.29 0.925232 0.418403
641.052 85.5138 -0.504712
84.1505 32.3056 0.208246
579.347 36.3565 -0.464045
271.611 15.816 -0.363137
9.18807 2.39997 -0.320733
122.706 38.3021 -0.181897
64.6427 24.4634 0.458396
604.135 60.2035 0.308169
669.407 76.2767 -0.199397
182.79 29.6429 0.172848
673.282 26.6446 -0.458409
44.6672 38.3982 0.242212
90.2789 31.3312 0.16225
572.276 16.4127 0.390916
407.413 18.2163 -0.578183
505.067 16.5823 0.129246
234.592 29.7404 -0.179307
562.357 4.23917 -0.572994
678.188 18.6499 0.452833
29.2119 32.411 -0.267181
267.311 7.77338 0.208848
219.312 15.5602 0.266582
1.093 37.2686 -0.144454
222.576 14.845 -0.369933
209.026 11.1257 0.115182
211.571 26.5576 -0.288741
129.545 29.6026 -0.133025
506.253 32.5723 -0.327085
163.89 14.6509 -0.334775
658.286 73.193 0.268174
171.111 3.87655 0.506824
46.2862 41.1263 -0.355923
620.07 77.4701 -0.541283
278.091 33.4511 -0.380214
599.713 43.8837 0.474843
659.396 54.4317 -0.485664
297.789 9.38942 0.122809
627.069 48.2215 -0.392367
324.731 2.50276 -0.444395
409.706 25.7129 0.352549
599.105 38.0081 0.523678
103.47 12.0998 -0.546348
471.317 3.73643 -0.530206
639.246 28.3767 0.159663
86.6807 7.89044 0.33481
279.231 14.6928 0.227653
416.263 12.2636 -0.22731
673.632 8.02341 0.607661
392.824 1.98356 -0.547822
173.762 40.2029 0.347722
642.515 10.7312 -0.337003
126.024 37.716 0.201838
261.201 31.9761 -0.382824
395.685 23.2702 0.204043
530.717 32.7231 0.377182
382.259 10.1827 -0.558459
448.129 31.0271 -0.463982
652.12 83.7114 0.38375
47.2234 11.7997 -0.184789
295.916 40.3089 -0.310722
374.968 26.9445 -0.395973
403.298 21.3223 -0.271345
477.678 53.746 0.387086
634.342 85.673 0.222935
589.375 67.3346 -0.356397
222.61 36.2757 -0.373199
11.6991 33.2143 0.151969
582.389 63.8143 0.158432
496.462 68.7116 0.424837
226.684 40.9361 0.117192
595.204 66.3289 -0.109054
148.146 9.37648 0.247082
362.488 21.7428 0.295131
450.702 51.4299 -0.117389
407.313 20.0728 -0.230215
651.439 89.2965 0.290961
419.594 4.58717 0.65581
49.0726 26.8469 -0.324215
461.408 43.2939 0.333941
426.176 43.726 0.37156
658.992 66.2093 0.229294
625.139 40.9968 0.298203
500.626 35.9494 -0.12591
650.588 73.1552 -0.390269
290.883 2.21002 -0.481069
374.737 30.0638 0.436696
28.3487 39.4983 0.303803
633.075 53.9388 0.17848
551.566 23.0971 -0.451963
451.321 0.772413 -0.493845
123.136 4.72502 0.331059
420.391 46.2177 0.106895
11.5446 0.919928 0.315664
672.05 10.4213 0.166206
365.846 40.7126 -0.402575
552.514 7.99687 0.581303
[...]
POINT_DATA 13483
TENSORS Strain_matrix float
-2.42097 4.17906 3.76364 
-1.36748 2.10846 3.25401 
4.77144e-18 -6.8969e-18 1 

-2.47405 1.8712 88.0274 
-0.190653 0.474096 -2.33278 
4.03292e-18 -2.68861e-18 1 

-0.232125 -0.0229089 -0.196352 
0.0780316 0.0625174 -1.62883 
1.17847e-17 -4.18757e-18 1 

-1.44139 0.168901 -0.0735793 
0.265416 0.500488 0.646095 
-7.01145e-18 -1.80755e-17 1 

-0.646239 -0.409454 0.0573644 
-0.000985884 0.0569938 -0.297202 
5.8745e-18 -3.57578e-18 1 

-0.271714 0.00357965 -0.404969 
-0.00997963 0.136461 7.18614 
-6.59804e-18 -7.38753e-18 1 

-0.126003 -0.00438284 -0.0879845 
-0.0104171 -0.0801367 -0.0990071 
-9.99816e-19 -5.72308e-18 1 

-0.265164 0.0280734 -0.889562 
0.250205 0.213027 0.129249 
9.04869e-19 -1.36065e-17 1 

-0.553972 -1.90626 1.40996 
0.0815589 0.286369 -0.915652 
-3.60472e-18 2.20289e-18 1 

-0.607267 -0.194897 1.54764 
0.437594 0.180118 -1.47429 
-7.38875e-18 2.02523e-17 1 

-0.0999333 -0.00153565 0.0986077 
0.0284437 -0.0653501 -0.0385747 
-1.52817e-17 -1.48294e-18 1 

-0.148381 -0.0326414 0.138063 
-0.104682 -0.0736656 0.112757 
1.18561e-17 -5.87408e-18 1 

-0.800432 1.13966 0.99494 
0.304468 -0.0737046 -0.572047 
-1.28194e-17 -4.91587e-18 1 

-0.290957 0.00783108 0.0877778 
0.076722 -0.0460467 0.013147 
-1.52196e-17 2.70398e-19 1 

-0.185104 -0.0146127 -0.0492357 
0.00659054 -0.00812139 1.0204 
-5.73711e-18 4.05739e-18 1 

-0.139379 -0.101947 0.636636 
0.178189 0.0289938 -0.340731 
-7.69029e-18 -8.93183e-18 1 

-0.103176 -0.0198016 -0.035811 
-0.0143394 -0.0992442 -0.0256088 
5.199e-18 5.86285e-18 1 

-0.207553 -0.0158601 0.0426427 
-0.00377674 -0.0916293 0.0546411 
-4.27963e-18 4.81458e-18 1 

-0.20759 -0.119447 0.0183745 
-0.0625741 -0.05209 -0.289404 
-5.74918e-18 9.72938e-18 1 

-0.126004 0.142701 0.156982 
-0.229173 -0.0703764 0.499292 
-1.44329e-17 1.56847e-18 1 

-0.176345 -0.325005 0.147887 
0.274851 0.083669 -0.247587 
7.38948e-19 9.86521e-18 1 

-0.0883073 -0.41513 0.538627 
0.185958 0.118802 -0.560806 
6.36056e-18 4.39528e-18 1 

-0.987535 -0.376705 -1.71513 
-0.426668 0.289429 0.221965 
2.6463e-18 -5.51062e-18 1 

0.416074 1.06991 2.5949 
-1.15007 0.949927 -2.24648 
-9.596e-18 4.43293e-18 1 

-0.532217 -0.102143 -0.498154 
-0.274759 0.32457 0.475692 
-6.73548e-18 -1.95434e-18 1 

-0.218877 0.127439 -0.0279315 
-0.100945 0.0688137 -0.0430256 
4.60819e-19 -9.30855e-18 1 

-1.67419 -0.0736339 -41.6147 
0.0919063 0.50192 3.79161 
-1.97386e-18 -4.5195e-18 1 

-0.55509 -0.842098 2.15328 
-0.312313 0.11971 0.657577 
1.32672e-18 3.17118e-18 1 

-0.0757845 0.00870733 -0.0786054 
0.109335 -0.100985 0.714398 
4.9108e-18 -6.6264e-18 1 

-1.37605 -1.23758 -0.181887 
0.255006 0.499405 0.351485 
-6.53513e-18 -2.45067e-18 1 

-0.14469 -0.0281722 -0.369221 
-0.00375975 -0.208514 0.438461 
-5.32324e-18 1.34067e-17 1 

-0.301672 0.191319 -0.901735 
0.0675759 0.105348 -0.327602 
-1.12908e-17 6.45432e-20 1 

-0.0941994 0.454243 -1.47456 
-0.498767 0.185771 1.49477 
-1.4966e-17 -1.52075e-17 1 

-0.276134 0.0237711 -2.23604 
0.0185159 0.0492993 -1.82001 
-1.32999e-18 2.21238e-18 1 

-0.130757 0.0224388 0.127851 
-0.0746436 -0.101513 0.414385 
3.90428e-18 3.11392e-18 1 

0.145402 -0.920927 0.0935665 
0.525945 0.199089 -0.879386 
-5.87128e-18 3.08455e-19 1 

-0.518534 -1.23727 32.047 
0.129568 0.709695 -16.5732 
1.10002e-18 1.05745e-17 1 

-0.131905 0.0721052 0.230382 
-0.0818511 -0.0161484 -0.0093941 
8.81163e-18 4.19601e-19 1 

-0.283599 0.0931472 -2.57296 
-0.0904315 0.0027077 0.290177 
-7.19951e-18 1.00408e-17 1 

-0.161752 -0.0565519 1.38412 
0.00146369 0.0290331 0.358556 
3.56806e-18 6.5136e-19 1 

-0.223141 -0.0195611 -0.0474328 
-0.116152 -0.0296138 -0.0770726 
5.62521e-18 -1.68756e-17 1 

-0.197477 0.576927 -0.434364 
-0.565253 0.38388 -0.46185 
8.18832e-18 7.00692e-18 1 

-1.04185 0.0416392 -1.18034 
-0.737681 0.209354 -0.327464 
-1.23273e-17 -2.49995e-18 1 

-0.129715 0.0131394 0.341768 
-0.0493388 -0.0626367 0.964821 
-6.86369e-19 2.2897e-18 1 

-0.124701 0.0936269 -0.0969592 
-0.0734522 -0.0436146 0.164895 
-5.70414e-18 3.84409e-18 1 

-0.10272 -0.00519574 -0.0704591 
-0.0499846 -0.0379804 -0.227276 
7.67646e-18 -7.67646e-18 1 

-0.982765 -0.199948 -0.835106 
-0.803291 0.213132 -14.9698 
-1.09604e-17 4.66888e-18 1 

-0.0908011 0.0329306 0.0448987 
-0.0894896 -0.150321 -0.000380919 
5.64621e-18 -2.73204e-18 1 

-0.0171076 -0.0908615 0.10863 
0.139505 -0.136262 0.166933 
3.14321e-18 -9.2642e-18 1 

-0.300981 -0.719083 -1.59612 
0.142299 -0.0348222 0.0539959 
3.28792e-19 6.47309e-18 1 

0.000393426 -0.189331 0.131109 
-0.0230263 -0.0304772 -0.146922 
9.05251e-19 -1.52082e-17 1 

-2.94474 -1.92932 -10.2913 
-0.122579 0.683792 0.689408 
-9.71348e-18 -6.05787e-18 1 

-0.0879321 0.0388605 0.28814 
-0.0368893 0.00662309 -0.00546861 
4.06329e-18 1.31715e-17 1 

-0.196586 0.121509 0.0960724 
-0.0815869 -0.040471 0.223769 
1.16666e-17 6.3179e-18 1 

-0.173981 0.0316402 0.197153 
-0.0011002 -0.058229 0.226984 
-9.99821e-18 1.4664e-17 1 

-1.04843 0.936633 12.7005 
0.329899 0.168046 0.603932 
-4.81907e-18 7.3117e-18 1 

-2.48326 1.89182 -3.26559 
-0.0830863 0.613229 1.98164 
1.00567e-17 -1.00163e-17 1 

-0.105403 0.124306 -0.204186 
0.00414845 -0.0529174 -0.199226 
1.85821e-18 4.41487e-18 1 

-0.0625819 0.0128326 0.0814406 
-0.0203032 -0.135028 0.0173823 
-8.40185e-18 -2.52571e-17 1 

-0.111032 0.0162634 -0.224487 
-0.096111 -0.0453931 -0.0175948 
-8.18596e-18 -1.81761e-19 1 

-1.88382 -7.03179 6.4325 
0.024466 0.401262 -0.364248 
-2.50715e-18 4.49275e-18 1 

-0.178166 -0.238579 -2.33649 
0.446078 0.296891 0.551315 
-4.38797e-18 -4.16611e-18 1 

-0.138677 -0.101818 -0.239626 
-0.0177291 -0.05378 -0.11992 
-2.63306e-19 -2.8921e-17 1 

-0.198384 0.041793 -0.459132 
0.0207129 -0.0598064 0.452676 
-9.22993e-18 1.33112e-17 1 

-0.266055 0.0434144 0.0380319 
-0.0289809 0.0839414 0.428696 
6.53798e-19 3.32398e-18 1 

-0.147051 0.0762666 0.213956 
-0.0611171 -0.00143577 0.0207299 
5.61958e-18 7.45454e-18 1 

-0.511103 -0.0445656 0.342779 
0.33574 0.0839073 -1.36235 
-1.21724e-17 -1.69615e-18 1 

-2.34576 3.31362 14.6949 
0.422698 0.750199 2.13558 
-2.77244e-18 1.22219e-17 1 

-0.227974 -0.03865 2.07466 
-0.025927 -0.035621 0.276223 
-3.76632e-18 4.71509e-18 1 

-4.34806 -6.79581 12.2109 
1.55115 1.57819 0.12931 
-1.41325e-18 1.80398e-17 1 

-3.44659 1.57548 22.3964 
0.585385 0.451615 -6.16078 
8.02825e-18 -1.21403e-17 1 

-0.110245 0.0733776 0.0508895 
-0.0648556 -0.0486768 -0.106077 
-1.00617e-19 -2.89273e-18 1 

-1.37379 -4.87634 -1.58254 
-0.129729 -0.197084 -0.889002 
-1.13391e-17 8.20277e-18 1 

-0.158537 -0.0721228 0.834399 
-0.0222944 -0.0847177 -0.248712 
5.07985e-18 3.00836e-18 1 

-0.159989 0.0101373 -0.299543 
0.0481251 -0.0480337 -0.0430192 
8.40135e-19 9.94983e-18 1 

-0.154267 0.105857 -0.0211213 
-0.161949 -0.0850293 -0.132346 
8.24339e-19 -8.38471e-18 1 

-2.52491 0.459129 -1.40213 
0.00779886 0.685612 -0.0608401 
8.64588e-18 -1.64421e-17 1 

-0.139865 0.132531 -0.0194748 
-0.143683 -0.0159901 0.362885 
1.34102e-17 -9.37095e-18 1 

-0.224067 -0.352444 -0.589819 
0.227609 0.0568623 0.154241 
6.44738e-18 -8.06924e-18 1 

-0.774633 0.297865 -1.64844 
-0.391988 0.314441 -0.540618 
4.2836e-18 3.11385e-17 1 

-0.30038 -0.0865494 0.178338 
0.118606 -0.0777409 0.314896 
-5.46163e-20 -2.09425e-18 1 

-0.0114395 -0.534024 -0.865057 
0.530116 0.265883 -0.769715 
-1.16319e-18 6.82196e-18 1 

-0.272889 -0.0883495 -0.474217 
0.227073 0.108211 0.128893 
-1.41543e-18 -6.27293e-18 1 

-1.32048 0.106448 0.169308 
0.0106831 0.46553 -0.45926 
3.9815e-18 -3.23918e-18 1 

-0.163198 -0.97066 0.429487 
0.496567 0.451083 0.490129 
4.63889e-18 3.05876e-18 1 

-0.601255 0.439902 1.49601 
-0.483688 0.411625 -0.215069 
-9.32424e-18 1.58057e-18 1 

-5.29949 34.9507 7.91479 
-0.000201427 0.75692 0.151052 
6.19467e-18 -1.43584e-16 1 

-0.0170676 -0.204595 0.678935 
0.0607561 -0.136738 0.0380111 
-7.37952e-18 6.31143e-18 1 

-0.310787 0.154211 -0.155803 
-0.020393 0.027218 -0.0323922 
-5.38919e-18 -8.25219e-18 1 

-0.152871 0.0396983 -1.00314 
0.00102445 -0.0919046 -1.02914 
-2.62757e-18 1.67814e-17 1 

-0.0855435 -0.0907272 0.298494 
0.035491 -0.0830309 -0.379547 
-1.06188e-17 8.74813e-18 1 

-0.264026 0.214175 0.0506396 
-0.0297862 0.00023216 0.32398 
-6.96637e-18 8.50854e-18 1 

-1.31776 -0.454143 2.78968 
-0.244558 0.352025 -0.242071 
-5.70429e-18 5.68635e-18 1 

-0.1466 0.00482709 0.47974 
-0.0774758 0.0613782 -0.488151 
1.15214e-17 3.39102e-19 1 

-0.0908967 -0.107697 0.203296 
0.157144 0.0669781 -1.19178 
4.56286e-18 9.52249e-18 1 

-0.267586 0.346922 -0.0945971 
0.00715172 0.171094 -0.118389 
1.47636e-17 -1.35722e-17 1 

-0.161982 -0.00398207 -0.530683 
0.0354565 -0.0378994 -0.516826 
6.84342e-18 -4.58222e-18 1 

-0.167778 -1.19343 1.07844 
0.735108 0.730389 0.385739 
1.21307e-18 -1.00945e-17 1 

-1.86884 -0.106455 -2.12833 
0.0793797 0.893054 -0.0130866 
-6.68138e-18 1.09765e-17 1 

-0.0606772 -0.118473 -0.00578685 
0.0727939 -0.0470872 0.663551 
1.0956e-17 -9.3588e-18 1 

-0.0895638 -0.0555115 -1.51998 
0.0339796 -0.0146956 -0.772244 
3.41093e-18 1.21998e-18 1 

-0.332052 0.98072 -21.9431 
0.245979 0.183256 1.87321 
-8.03937e-18 2.72207e-18 1 

-0.210847 0.00595661 1.51449 
-0.0207016 -0.0363072 0.408136 
-2.85873e-18 9.46558e-18 1 

-0.518752 0.533508 -1.33435 
0.106045 0.210434 -0.0333162 
-2.5243e-18 7.60406e-18 1 

-0.256202 0.159843 0.211921 
-0.0252206 -0.0197588 0.419232 
-3.0355e-19 -7.28521e-18 1 

-3.28722 -2.45293 1.85325 
2.36724 1.5578 -0.829757 
-3.1677e-18 1.77267e-18 1 

-1.04215 -0.0284404 -0.41249 
-0.132198 0.240623 -0.172538 
3.17075e-19 9.51225e-19 1 

-0.131735 -0.0086844 0.213871 
-0.0989031 -0.00588969 0.595544 
-9.92954e-19 -5.46124e-18 1 

-0.180119 0.0738532 0.0976867 
0.0883514 -0.120743 -0.0612424 
-3.23408e-18 -2.16852e-18 1 

-0.32494 0.0904386 -1.57825 
-0.0266898 0.0170679 -1.03481 
-6.03568e-18 -1.19469e-17 1 

-0.182735 0.0625186 0.135704 
0.0633655 -0.070537 -1.53255 
6.04475e-18 5.96111e-18 1 

-0.19137 -0.0860196 -0.951573 
-0.0162999 0.00947286 0.105673 
-5.71358e-18 2.61192e-18 1 

-0.0808547 0.0524583 -0.0204073 
-0.00706483 -0.127513 0.00765129 
1.81416e-18 4.53539e-18 1 

-0.327112 0.328597 1.56037 
-0.0896383 0.263701 -1.6205 
5.94784e-19 -2.02227e-17 1 

-0.551096 -1.96348 3.01508 
-0.337976 -0.0689941 -0.412757 
-4.43368e-18 4.99439e-18 1 

-0.105455 0.0040629 -1.62614 
0.000479831 -0.0229976 3.19811 
-1.6545e-18 -1.00373e-17 1 

-0.153274 0.0124881 0.0565365 
-0.0492528 0.0301801 0.195107 
-8.10508e-18 6.83146e-18 1 

-0.153276 0.0476695 -0.287393 
0.0595004 0.0084108 -0.129505 
-2.02781e-17 1.08819e-18 1 

-2.56342 -0.698732 -1.98405 
-0.623976 0.500001 -1.2665 
-6.73114e-18 -2.08345e-18 1 

0.0368903 -0.591475 0.207085 
0.608005 0.201825 -0.0795347 
1.63726e-17 1.28506e-18 1 

-0.587303 -0.0453001 -0.199735 
0.230311 -0.108873 0.125273 
7.28186e-18 7.94385e-18 1 

-0.416313 0.43827 0.363057 
-0.755144 0.144226 0.452809 
-1.64036e-18 -6.89119e-18 1 

-0.13761 0.0348476 0.300348 
-0.112814 0.0112633 0.0873247 
-3.33726e-18 -9.12186e-18 1 

-0.916766 -0.476601 1.5879 
0.39192 0.486882 -1.05294 
-4.25388e-18 7.72949e-18 1 

-0.138563 -0.0160804 -11.5927 
-0.00382814 -0.00832325 9.78571 
-2.182e-19 -2.27167e-18 1 

-0.138504 -0.0284076 0.38836 
-0.0653006 -0.112476 -0.0579824 
1.24812e-17 -3.68034e-18 1 

0.0343974 -0.382621 -0.891749 
0.191023 0.0148584 0.732765 
-1.34131e-17 3.28213e-18 1 

-0.299921 0.258427 -1.45888 
-0.137589 0.227978 0.484965 
-1.21672e-19 -4.01516e-18 1 

0.0375757 -0.439795 -0.0261528 
0.442935 0.0688667 -0.201801 
-1.47384e-18 4.20536e-18 1 

-0.311453 -0.0301901 -0.636504 
0.162975 0.0753481 -0.480216 
-1.92698e-18 6.23436e-18 1 

-1.51996 -2.24634 8.65713 
-0.823758 -0.496354 0.947732 
4.98485e-18 1.42878e-18 1 

0.108369 -0.868413 -0.38635 
0.575498 0.386513 0.326933 
-5.77846e-18 -1.29327e-17 1 

-0.654408 -0.190327 -1.274 
0.0847662 0.196207 0.931227 
-3.38132e-19 -3.98996e-18 1 

-0.684073 0.372493 0.872907 
-0.405302 0.16605 0.825904 
-8.66702e-18 8.61749e-18 1 

-0.661636 -0.0366386 0.157903 
0.0496657 0.377271 1.56615 
2.87483e-18 -1.87428e-18 1 

-0.0913645 -0.0469699 0.846555 
-0.00734089 0.0791299 1.4493 
-1.89154e-18 -1.48256e-18 1 

-3.93328 0.773197 2.77597 
0.199099 1.00743 -1.89899 
-4.69996e-18 2.30802e-18 1 

-0.279934 -0.123874 -0.31471 
0.135192 0.170465 2.34771 
-7.30341e-18 -6.72682e-19 1 

-1.54224 1.19047 1.47056 
-0.221527 0.48121 -0.194061 
-3.78275e-18 2.25355e-18 1 

-0.0764395 0.0363474 0.0879491 
-0.0125577 -0.0678257 -0.0727242 
-1.43762e-17 4.85959e-19 1 

-0.230485 -0.0440653 0.486899 
0.0426502 -0.0416519 0.409319 
1.03148e-17 -2.83312e-18 1 

-0.0877775 0.0745523 -0.199146 
-0.0071347 -0.0358013 0.0333658 
-3.72657e-18 4.21691e-18 1 

-0.242123 -0.167854 0.256892 
0.216271 0.0781928 -0.494615 
6.62683e-19 -8.40922e-18 1 

-0.139614 0.0951161 0.223644 
-0.205738 0.0131227 -0.130693 
-6.95705e-18 8.32764e-18 1 

-0.0974767 -0.135564 -0.587396 
0.0184628 0.0926071 0.00416852 
1.50393e-17 2.69362e-18 1 

-0.304439 0.537382 0.336281 
-0.457677 0.361568 -0.531801 
-1.08918e-18 -1.84178e-18 1 

-1.04943 -0.018786 0.259007 
-0.531993 0.318897 -0.199414 
-1.17184e-18 2.22441e-17 1 

-0.127259 0.0599295 -0.344218 
-0.0593619 -0.068397 -0.162481 
5.40282e-18 -6.87349e-18 1 

-0.0706262 -0.167527 -0.398829 
-0.0754539 -0.0417657 -1.35069 
1.87479e-19 9.35559e-18 1 

-0.0595928 0.0437643 0.0662651 
0.0137156 -0.00967724 0.17163 
5.44902e-18 -3.54086e-18 1 

-0.103794 -0.0166907 1.04175 
-0.0736008 0.0201122 1.53076 
-2.65028e-18 -3.20449e-18 1 

-0.173822 0.0118458 0.214157 
0.132344 0.0441164 -1.4438 
3.3348e-18 -7.41788e-18 1 

-0.258526 -0.0419081 0.441479 
0.0459559 -0.0138309 0.219303 
-3.35096e-18 1.5739e-17 1 

-0.173283 -0.0124361 0.154286 
0.00547652 0.115228 17.5658 
1.03369e-18 -1.23089e-18 1 

-0.158609 -0.00692042 0.651501 
-0.00715298 -0.0354469 -0.158292 
5.30143e-18 1.83783e-18 1 

-0.875832 -0.373533 -2.58843 
-0.709405 0.343891 -5.43748 
2.60037e-18 -3.40048e-18 1 

-0.621692 -0.438699 4.95797 
0.0253904 0.185535 5.1897 
8.42705e-19 -9.44174e-18 1 

-0.102507 0.0082629 -0.327506 
-0.0217066 0.0583636 1.35885 
4.25267e-18 -9.35786e-18 1 

-4.43894 0.600413 -9.94014 
-0.216056 1.01662 8.37533 
-1.32024e-18 -4.99433e-18 1 

-1.53546 -0.660379 -0.145728 
0.338651 0.395845 0.304561 
-6.98219e-18 -2.29571e-17 1 

-0.280449 0.304285 46.4486 
0.365511 0.305333 17.6471 
1.70894e-18 -3.58833e-20 1 

-0.242598 0.121829 -0.797414 
-0.0035704 -0.266464 0.859756 
-9.98967e-18 -5.73827e-18 1 

-0.609027 0.942001 -0.492133 
-0.374798 0.37558 0.600283 
2.85339e-18 -1.07338e-18 1 

-0.62152 0.58048 -50.6654 
0.0291723 0.53139 -10.2199 
-4.22879e-18 4.78288e-18 1 

-0.821798 -1.66864 19.2883 
0.233728 0.525419 -8.78611 
5.67048e-19 -2.13051e-18 1 

-3.07473 -0.810965 19.9743 
-0.475966 0.616375 -1.49354 
-1.27386e-17 -2.03159e-18 1 

-0.242132 0.160485 0.293837 
-0.13214 0.151091 -0.30367 
1.20966e-17 7.59346e-18 1 

-0.0939125 0.0443232 0.0146122 
0.0190124 -0.0148058 -0.170884 
-1.0346e-18 7.73867e-19 1 

-0.124665 -0.021185 0.150545 
0.0344689 -0.0856072 0.355276 
7.46849e-18 7.9275e-18 1 

-0.255865 -0.0898754 0.189199 
0.0285627 9.47845e-05 0.742079 
-8.4956e-18 1.05851e-17 1 

-0.149119 -0.00445313 -0.0363796 
-0.00378967 -0.0449317 -0.428795 
6.56957e-18 5.9466e-18 1 

-0.127261 -0.0964739 0.120468 
0.168387 0.0488224 0.462172 
-2.21872e-17 9.86098e-18 1 

-0.369939 -0.287384 0.269754 
0.101792 0.209208 -0.297389 
5.01835e-18 -1.12569e-17 1 

-0.110948 -0.883863 2.58387 
0.0399871 -0.00775091 -0.960701 
6.22671e-19 1.02741e-17 1 

-0.0298006 -0.166142 0.037536 
0.253076 -0.0284069 -0.051927 
1.9866e-18 -3.98878e-18 1 

-0.367804 0.106993 0.596982 
-0.259424 0.267595 -0.347459 
3.31407e-18 -8.13835e-18 1 

0.16242 -1.19516 0.0681525 
0.762407 0.924684 -0.784196 
4.88346e-18 -1.60493e-17 1 

-0.175912 -0.0824507 0.0706907 
0.0292127 -0.0447939 -0.128261 
1.65614e-18 1.79311e-18 1 

-0.211212 0.0833432 -1.97368 
-0.142271 -0.0392869 -2.79432 
1.08466e-17 -5.34136e-18 1 

-0.498035 -0.100579 0.112893 
0.288248 -0.0523361 -0.0960025 
-1.93496e-17 1.22392e-18 1 

-0.186271 -0.0460972 -1.28807 
-0.080607 0.0417 0.81713 
-8.15269e-18 6.46688e-18 1 

-1.63721 -1.19722 4.06822 
-0.285688 0.623959 -4.88096 
9.67199e-19 -7.09279e-18 1 

-4.27069 -3.15535 -3.24076 
0.768435 0.729415 0.0205134 
-3.60885e-18 -1.23302e-17 1 

-0.112292 0.0123082 -0.207311 
0.0387744 -0.041624 -0.731794 
3.38138e-18 2.6483e-18 1 

-0.490123 -0.0251876 0.337629 
0.0741903 0.222052 -0.829023 
-7.75673e-18 -4.41839e-18 1 

-0.198574 -0.0318727 -0.488293 
-0.00833333 -0.0248855 0.267462 
-4.49016e-18 1.5755e-19 1 

-0.161915 -0.00949442 0.428676 
-0.0470942 0.0283634 0.256751 
-8.95989e-19 1.29268e-17 1 

1.0009 -1.16091 0.00618152 
0.963503 1.14799 -0.257048 
6.04045e-18 4.39797e-18 1 

-0.229479 -0.146553 -0.418391 
-0.0368911 0.0274474 -0.0203778 
-5.89556e-18 -4.96469e-18 1 

-1.98501 -3.71787 -3.89564 
0.546788 1.14768 1.48481 
2.04935e-17 -5.59377e-18 1 

1.03051 -1.06834 -0.259821 
1.05071 1.01586 0.0612982 
3.16163e-18 -4.31131e-19 1 

-0.20389 -0.0270874 -0.0925101 
0.104624 0.0143911 0.12101 
-6.42101e-18 1.35195e-17 1 

-1.17577 -0.688751 -0.532528 
-0.00800809 0.398525 1.12806 
-2.39691e-18 -5.56082e-18 1 

-2.53894 -0.902658 -8.64306 
-1.06884 0.282332 -5.11418 
6.14816e-19 -8.60742e-19 1 

-0.336498 -0.152174 0.716052 
0.104951 -0.145257 0.309707 
2.44487e-19 -1.19157e-17 1 

-0.217252 0.507532 0.766351 
-0.40562 0.168617 1.39482 
3.36444e-18 1.36689e-17 1 

-0.354384 0.0451557 0.0134855 
-0.208011 -0.0154563 -0.244618 
1.65252e-17 6.54963e-18 1 

-0.124584 -0.834538 0.193775 
0.605686 0.215937 0.75766 
-5.32511e-18 1.17713e-17 1 

-0.594153 0.471052 0.24697 
-0.265643 0.308764 -0.314352 
1.13869e-18 -5.05292e-18 1 

0.108993 -0.805801 0.237458 
0.706937 0.339256 -0.464602 
9.42395e-18 -4.26882e-19 1 

-0.0935355 -0.387694 -0.679015 
0.630518 0.121819 -0.432778 
-8.33646e-18 -9.25394e-18 1 

-0.112235 -0.0217775 -0.177955 
-0.0389422 -0.0301229 -0.0838007 
8.04999e-19 -3.404e-18 1 

-0.473268 0.0471958 -0.491334 
0.00446775 0.130698 0.438033 
1.11555e-17 8.51448e-18 1 

-0.0637498 -0.43973 0.234221 
0.302899 0.163096 -0.0283201 
-4.0701e-18 -1.78377e-17 1 

-0.184517 0.0574559 -0.525118 
-0.0653933 -0.0809591 -0.390261 
-1.36213e-18 -1.78125e-18 1 

0.0083223 0.471806 1.68435 
-0.123803 0.0332875 -0.525917 
5.35471e-18 2.54349e-19 1 

-0.201219 0.0179901 -0.654938 
-0.0456722 0.0705834 -0.73638 
1.36644e-17 -4.86794e-18 1 

-0.21594 -0.0623997 0.260853 
0.193622 0.0677768 0.0221413 
4.56785e-18 -1.68607e-17 1 

-0.641521 -0.0144207 0.503047 
-0.00276652 0.283487 -0.055535 
4.67083e-18 3.68524e-18 1 

-0.208323 -0.633914 -1.50087 
0.163461 0.340635 -1.51874 
2.04553e-18 1.5098e-18 1 

-0.134466 -0.353457 1.21516 
0.123455 0.129864 -0.190035 
6.20013e-19 -7.66998e-18 1 

-0.505668 -0.027203 -2.41549 
0.291826 0.151157 0.0892917 
1.10224e-17 -3.88929e-18 1 

-0.137927 -0.179614 0.763928 
0.142517 0.0422815 0.413083 
7.68187e-18 -3.91077e-17 1 

-0.126421 -0.00870775 -1.05396 
-0.0473111 0.0374159 0.253353 
8.32975e-18 -1.17571e-18 1 

-0.457407 -0.197373 2.77641 
0.147091 0.134246 -0.481764 
-3.74043e-18 2.40331e-18 1 

-0.351653 -0.198208 -16.1081 
0.0466096 0.15325 -1.29483 
1.76202e-18 -1.77229e-18 1 

-0.161333 -0.0343261 0.0489346 
0.0115797 -0.0743945 -0.26511 
-5.10554e-18 -5.27487e-17 1 

-0.0258096 -0.288105 0.70932 
0.211322 6.02337e-05 1.21099 
4.55758e-19 3.89466e-18 1 

-0.0313083 -0.495189 -2.61548 
0.637145 0.0478147 2.85446 
-2.09128e-17 -8.52496e-18 1 

0.119206 -0.742336 -0.197833 
0.69518 0.264879 0.0200245 
-7.69945e-18 6.87504e-18 1 

-0.407612 3.1647 277.928 
0.00453361 -0.0843615 -6.66359 
-8.5849e-20 2.02267e-17 1 

-0.640805 0.33981 0.935936 
0.506171 0.0742027 -0.55931 
-1.40422e-17 2.23676e-18 1 

-0.116713 -0.00503262 0.165303 
0.0376003 -0.0300735 -0.0356478 
-6.60725e-18 1.00944e-18 1 

-0.221348 0.867945 -49.4245 
0.227528 0.330657 -15.4535 
4.43893e-18 -9.69144e-18 1 
