# vtk DataFile Version 3.0
Output file generated by Yade's KinematicLocalisationAnalyser
ASCII
DATASET UNSTRUCTURED_GRID

POINTS 13483 float
618.241 31.7462 -0.415829
770.607 69.0381 -0.558171
121.318 6.10325 -0.43263
793.086 4.12637 0.509385
507.782 7.66717 -0.29514
318.661 36.3955 0.453047
157.92 6.95559 0.43933
578.652 10.4935 0.158754
504.097 25.6256 0.14676
726.172 14.3596 0.569598
212.81 8.93675 -0.116962
260.092 6.3509 -0.256009
660.299 33.4034 -0.13542
643.533 14.3277 -0.121624
138.677 17.7775 0.554421
223.746 35.0584 0.198837
220.194 12.9776 -0.285881
292.781 9.6482 0.388601
345.613 33.1506 0.438865
532.099 8.58856 0.342461
417.283 37.5644 -0.116566
600.129 45.9939 -0.28753
792.165 43.651 -0.482507
707.296 57.8756 0.125707
466.227 16.1908 0.309101
244.109 44.4702 0.129351
499.105 29.2518 -0.450746
595.351 21.1756 0.226421
45.4743 15.4952 0.466525
721.597 33.7221 -0.389291
490.821 4.9389 0.343535
16.9331 23.4369 -0.28577
782.231 61.0338 0.268525
503.514 2.54079 0.474706
78.9926 44.8305 0.0997158
530.445 31.236 0.315586
538.438 16.5328 -0.451969
348.868 22.6201 0.207387
542.808 26.0702 -0.315124
355.811 34.0443 0.497095
243.922 14.4892 -0.365537
440.701 37.3303 0.074742
684.085 10.5123 -0.157861
194.872 6.22756 0.371571
56.248 7.01595 -0.122389
69.536 8.84273 -0.263861
696.527 9.55086 -0.521308
23.597 11.6547 0.272627
622.152 47.7351 0.352282
687.361 28.4557 0.372855
174.186 32.7936 -0.310762
760.936 58.7362 -0.126967
35.8383 28.5274 -0.109644
542.404 3.01058 0.332537
143.875 7.37541 -0.490829
604.347 35.1766 0.432916
512.196 28.9058 0.130548
176.618 0.953408 -0.273834
33.0543 2.39211 0.307857
354.028 17.9175 0.267245
633.221 49.3891 -0.137939
470.067 32.7967 0.19673
405.927 1.03243 0.197852
707.962 7.91783 0.35048
26.9905 43.3372 0.235805
260.049 30.6391 -0.312813
727.065 8.56328 0.341332
680.556 52.3259 0.384163
424.526 8.62917 -0.508968
579.3 3.58878 -0.365844
744.961 45.4517 0.428355
132.429 7.67032 -0.275627
506.773 28.104 -0.136457
486.36 14.8428 -0.179156
299.047 16.5687 -0.364641
20.9669 13.7667 -0.267725
780.335 49.4836 0.331782
337.792 38.6407 -0.310435
685.155 25.3853 0.365156
696.951 13.5126 -0.456836
783.648 17.0056 -0.306413
473.443 34.7224 -0.16727
93.7738 38.9024 -0.278765
696.577 46.9342 0.226608
658.765 48.2091 -0.121437
795.742 48.2468 0.109192
783.515 0.756142 -0.546037
295.747 29.65 0.435041
631.825 6.71978 -0.117507
24.5457 5.25679 0.539731
135.139 39.0082 -0.146641
522.057 15.1546 0.208793
773.178 40.5544 -0.539345
198.184 28.7403 0.261248
45.5025 35.0525 -0.275021
502.356 1.25798 0.130709
239.161 8.86587 -0.380664
745.74 68.3747 -0.240232
764.422 46.2335 0.211977
367.504 20.5857 -0.270524
165.99 27.3449 -0.440585
560.092 41.6104 -0.462775
387.3 15.4441 -0.414754
421.751 30.3755 -0.101143
385.235 4.5639 0.400675
558.123 10.958 -0.123757
797.781 11.0612 0.232463
81.5398 39.6751 -0.407858
341.467 5.03295 -0.195236
572.093 9.64278 -0.355729
366.619 45.218 0.443288
26.2866 25.1967 -0.503975
30.7377 5.68006 0.344149
579.088 33.8921 0.462616
515.054 24.801 -0.149153
26.9297 37.2508 0.414991
94.847 31.3562 0.210916
331.25 16.0765 -0.296039
611.889 19.0749 0.133099
485.483 39.0669 0.297028
742.202 7.13005 -0.466182
734.282 6.72489 -0.295517
394.774 36.8259 0.0963823
648.93 26.0901 0.10151
242.468 16.8645 0.550495
336.774 3.91043 0.454123
105.348 31.8485 -0.357706
118.437 24.4714 0.255791
555.348 41.9968 0.0679633
311.931 18.6446 0.530168
715.837 36.1779 0.109051
684.009 52.6949 0.108171
491.945 20.9839 -0.375944
763.143 25.4607 0.320918
437.653 24.6984 0.238979
283.228 24.2047 -0.297715
688.827 40.2157 0.308837
284.819 29.3432 0.385815
589.244 13.299 -0.244506
338.861 35.3335 0.202054
516.049 12.2757 0.517539
374.276 32.3178 0.0878045
440.343 16.8713 -0.103218
325.164 42.8884 0.435386
194.274 30.0923 0.117234
773.318 65.5958 0.118099
795.005 12.9141 -0.34679
6.16741 12.2554 0.429537
444.148 22.4578 -0.422904
39.3484 22.8543 0.0762489
384.836 31.2451 -0.46479
405.338 24.8467 -0.252438
76.3927 11.9273 -0.485859
52.5501 34.8981 0.514031
230.527 13.5749 0.412215
633.424 39.8164 -0.402286
592.104 22.0341 -0.488542
76.5208 21.0477 -0.487884
711.015 57.349 0.406463
767.95 3.89616 -0.502518
674.37 47.1166 0.469177
703.449 2.26669 0.434319
563.809 27.5038 0.410148
601.67 46.2191 0.439615
525.634 18.6614 -0.491645
790.535 3.04271 0.341024
228.716 25.6334 -0.109195
130.719 36.0028 0.193887
252.909 6.72449 0.398732
96.5386 4.50297 -0.249948
65.805 10.0854 0.230047
282.737 36.4018 -0.353682
17.3147 25.2756 -0.353117
569.749 19.2893 -0.506046
621.84 42.6865 0.226565
475.794 21.266 -0.35944
799.62 68.8054 0.352097
417.625 8.64775 -0.128824
447.222 37.1769 -0.288539
550.849 3.50121 -0.200599
23.6315 24.1493 0.375764
591.136 4.47205 0.481533
560.151 4.33879 -0.294985
210.985 11.3753 0.476653
436.479 16.2714 -0.248162
319.378 6.34788 0.34521
398.361 18.8698 -0.357454
737.915 60.08 -0.0277626
197.019 25.4526 -0.422078
773.338 12.0213 -0.457923
740.316 56.9258 -0.332214
393.875 10.3428 -0.157003
724.93 2.25544 -0.572737
620.356 26.9183 -0.432588
748.107 17.9732 -0.466223
442.896 44.1639 -0.273922
510.64 12.8639 0.399159
478.1 44.4898 0.230604
458.295 8.76617 -0.131803
677.975 46.2299 -0.275135
675.989 42.7254 0.291981
196.671 39.2001 0.346008
781.552 17.6269 -0.143399
603.67 46.8864 -0.247791
11.7171 17.0575 0.257982
419.474 25.6926 0.347929
191.923 23.2642 -0.405227
95.4376 39.8784 -0.205606
770.551 40.307 -0.440055
672.772 53.9941 -0.355471
327.442 25.5938 0.362766
547.744 10.2252 0.314193
84.2267 44.661 -0.174422
253.972 25.9118 -0.460856
572.068 24.9258 0.358687
501.653 18.8451 -0.42021
269.626 0.891469 -0.344096
569.634 43.2475 0.373697
548.729 43.9872 -0.48762
496.388 35.1062 0.397352
514.54 1.71674 -0.669296
711.599 19.6173 0.413512
183.777 12.1817 -0.190666
515.628 38.5899 0.459902
580.343 41.2514 -0.108182
75.0617 0.958263 0.269968
258.308 4.77881 0.175376
796.122 16.3116 -0.155291
784.401 18.8861 -0.4414
801.046 15.1759 -0.665942
311.77 8.5707 -0.230808
748.684 29.1404 -0.456448
418.793 43.0253 -0.362515
462.559 0.810725 -0.398349
663.767 45.3334 -0.539025
27.7499 30.8421 0.307827
339.898 41.2538 0.594641
259.176 2.91187 0.340592
785.547 58.2029 0.196443
717.015 50.8163 -0.253076
295.338 10.9939 0.24009
682.654 36.5254 -0.079774
574.073 2.58176 0.244128
557.786 6.55036 0.414241
99.3689 18.5909 0.494801
311.729 1.02916 -0.226097
352.972 2.26071 -0.364982
14.1886 7.67884 0.447592
4.44478 31.5738 0.252697
165.799 19.0878 0.412944
69.8844 42.0742 0.22067
68.0511 29.2371 0.335324
436.366 14.4156 -0.446938
377.659 35.5565 -0.473829
759.357 61.19 0.107512
19.8513 4.01607 -0.26921
72.675 6.91145 0.133385
643.185 39.991 -0.162216
302.93 0.912048 0.365632
375.689 15.9595 -0.130635
241.916 4.69914 -0.373966
665.982 25.4725 0.192763
465.753 8.42135 0.41496
753.141 22.5395 -0.444644
649.561 29.7123 -0.305528
683.707 23.6931 0.100071
432.944 27.1874 0.482098
104.976 45.5967 -0.314
558.907 45.5 -0.0671234
746.431 12.9362 0.297189
244.058 30.6289 0.237561
32.7864 17.4394 0.187987
346.38 13.9197 0.504128
110.716 41.1612 -0.466989
275.46 42.4251 -0.21197
438.711 1.59797 -0.311961
774.428 43.4555 0.393992
696.409 0.766903 -0.545726
341.992 3.46378 0.549883
309.08 27.8141 0.148854
477.044 41.3565 0.235459
83.9822 8.19902 -0.451349
203.143 45.3766 -0.378236
766.533 50.2342 0.339334
510.912 41.3992 0.0748583
205.454 41.2678 -0.264782
165.431 43.1155 0.386767
801.204 40.8617 0.471776
796.374 11.7349 -0.593978
623.689 3.23797 -0.649715
195.4 24.6509 0.0911325
565.374 28.7457 0.104433
567.356 29.4741 0.250135
422.195 5.68793 -0.139678
497.328 0.958278 0.374475
759.258 66.0729 -0.545034
87.1771 31.1599 0.209389
671.08 22.5519 -0.468459
282.463 15.5215 -0.355152
9.66399 2.40871 -0.323666
129.264 37.8254 0.188665
68.4473 23.0952 0.518701
708.199 42.6889 0.290024
789.134 65.7061 -0.253796
190.51 28.626 0.18266
793.042 15.9934 -0.342823
46.6999 37.1661 0.245532
93.6461 29.6585 0.164712
652.494 12.582 0.395736
427.168 17.4387 -0.550037
535.377 16.885 0.1053
244.549 28.6697 -0.180057
638.831 4.54677 -0.40212
800.17 10.6676 0.549522
30.8916 31.9503 -0.267514
278.139 7.70987 0.192759
228.223 15.3219 0.265857
1.06779 36.1713 0.150815
231.551 14.6465 -0.369255
217.7 11.0602 0.122741
220.178 26.3366 -0.285784
136.815 28.5649 -0.128591
564.022 15.4388 -0.368703
171.498 14.3806 0.322479
779.649 60.4039 0.238765
178.647 3.8726 0.501822
48.5161 39.7471 -0.354912
735.271 69.2862 0.425207
289.688 32.3648 -0.392943
693.846 28.411 0.474397
780.652 43.9653 -0.525828
309.784 9.18397 -0.106441
740.709 37.9366 0.357649
338.881 2.55111 -0.401553
429.461 23.8347 0.385171
689.629 22.133 0.746385
108.601 12.035 0.43979
499.313 3.86219 -0.524249
755.01 23.0532 -0.177639
90.9691 7.69103 0.225764
290.342 14.7437 0.208772
437.285 11.7232 -0.216151
788.937 3.89698 0.606927
410.943 1.99606 -0.525922
181.705 39.3303 0.324656
749.429 10.9569 -0.352622
132.564 37.0385 0.178878
271.284 31.4244 -0.377387
413.908 21.9937 0.216151
591.711 15.0816 -0.314635
399.766 9.90018 -0.494679
471.883 27.4518 -0.433494
770.885 68.0477 0.466295
48.9562 11.0197 -0.121547
308.39 39.3342 -0.280973
391.888 26.201 -0.408107
423.322 20.8192 -0.260201
537.008 46.023 0.35627
752.997 67.3613 0.239343
682.547 42.5492 0.397299
232.042 35.1755 -0.329381
14.2288 32.0244 0.164308
674.041 42.8016 -0.143904
526.2 41.739 -0.537278
236.178 39.912 0.108622
697.362 41.4574 -0.0995675
155.124 9.33893 0.238834
378.437 21.0042 0.281344
478.838 42.4225 0.114147
427.237 19.1814 0.175765
768.908 72.3469 0.291052
440.213 3.84388 0.517842
51.273 25.4091 -0.317546
486.263 32.5859 0.34181
449.353 42.1906 0.383023
781.712 54.3334 -0.237336
739.971 36.2243 -0.230106
558.291 19.7949 -0.157204
772.266 58.1816 -0.430497
302.491 2.18979 -0.469092
390.748 28.7515 0.444658
30.1045 39.0629 0.302134
740.527 41.0983 -0.142488
628.068 20.7378 -0.483312
478.809 0.78037 -0.469099
129.721 4.6116 -0.27566
440.834 41.6899 -0.113229
12.0782 0.923833 0.314098
788.824 6.29019 -0.103663
382.07 39.3663 -0.39806
[...]
POINT_DATA 13483
TENSORS Strain_matrix float
-0.447896 0.0865851 0.518857 
-0.0961346 0.24241 1.90277 
1.86711e-18 -1.36618e-19 1 

-0.508171 -0.251498 67.4288 
-0.219817 0.39524 0.130826 
-6.31852e-19 -7.22625e-18 1 

-0.14242 0.00163334 0.394139 
0.03021 0.00183666 -0.4172 
-3.3288e-18 -2.14161e-18 1 

-0.731167 0.00718152 0.8382 
-0.0561544 0.0730232 -0.178685 
-1.08816e-17 2.11231e-18 1 

-0.343589 -0.13347 -0.095731 
0.0905218 0.0559465 -0.318386 
-7.77707e-18 -1.13644e-17 1 

-0.148226 0.0102201 2.65812 
-0.0517878 0.0221686 -1.22187 
-2.41694e-18 -2.23902e-19 1 

-0.105714 -0.0354353 -0.186544 
-0.00532087 -0.0815567 -0.122647 
7.76199e-18 -2.09597e-18 1 

-0.133118 -0.0619427 -0.109667 
0.167333 -0.0494026 0.164081 
1.56531e-17 5.4364e-18 1 

-0.27524 0.035544 1.2596 
0.206852 0.191501 0.126404 
8.65484e-18 -8.82235e-18 1 

-0.331788 -0.0838472 0.977993 
0.0949507 -0.0165327 0.00311115 
3.66314e-19 5.46037e-18 1 

-0.0554383 0.00294922 -0.0161212 
-0.0108546 -0.0714275 0.0116926 
4.58771e-18 -1.05344e-17 1 

-0.0980329 -0.0558546 0.197519 
-0.0676094 -0.0893906 0.0710782 
-1.99862e-17 -2.66737e-18 1 

-0.288666 0.162548 1.89521 
0.232614 0.295006 0.410911 
5.32087e-18 1.37796e-17 1 

-0.250479 0.0397635 0.131999 
0.0608277 -0.0106863 0.123035 
1.65619e-17 5.77489e-18 1 

-0.140152 -0.00913477 -0.778454 
0.00826138 -0.0146288 0.851087 
4.60449e-18 3.18657e-18 1 

-0.0996305 -0.0649468 0.394491 
0.0587225 0.00430584 -0.319607 
2.91486e-18 -9.44251e-19 1 

-0.0817682 -0.0232334 -0.0349743 
-0.0109339 -0.0967445 -0.0119521 
-4.54731e-18 9.17104e-19 1 

-0.166408 -0.00835832 -0.00875673 
0.0143793 -0.0700967 -0.0371733 
-2.59966e-18 3.33541e-18 1 

-0.205882 -0.189607 0.0401142 
-0.0324395 -0.0521407 -0.0985376 
-1.49688e-17 2.52598e-17 1 

-0.126172 0.0554393 0.157091 
-0.134131 -0.0426926 0.563365 
3.49577e-18 -5.93941e-20 1 

-0.1416 -0.025709 0.575095 
-0.00196605 0.0823712 -0.745003 
-2.55097e-18 3.21233e-18 1 

-0.175447 -0.2995 0.659101 
0.0141188 0.0511954 -0.0716467 
3.3544e-18 1.04825e-17 1 

-1.07005 -0.227762 -4.80613 
-0.437766 0.328871 1.29112 
-6.26575e-18 -5.88678e-18 1 

0.10216 0.562791 0.237203 
-0.728883 0.267735 0.105361 
-9.19167e-18 5.36671e-18 1 

-0.0801003 -0.0253355 -0.210373 
0.0630879 -0.0366415 0.158817 
1.14399e-17 -1.49612e-18 1 

-0.196332 0.134255 -0.0435358 
-0.103062 0.0673373 -0.00639288 
-1.45404e-17 -7.43927e-18 1 

-0.169148 -0.128086 1.64201 
0.0906781 0.0681701 1.87381 
-6.50264e-18 1.24542e-17 1 

-0.179238 0.11407 -0.108152 
-0.0049292 0.00549768 -0.320749 
5.52945e-18 1.98026e-18 1 

-0.0635406 0.0236212 -0.32213 
0.0392505 -0.0748665 -0.263747 
-1.23352e-18 5.94194e-18 1 

0.0397348 -0.338526 -0.931942 
0.215356 -0.0842172 -0.958452 
-4.2709e-18 -6.06192e-18 1 

-0.0808153 -0.00284586 -0.43991 
-0.058221 -0.163283 0.43388 
-1.4864e-17 3.30167e-18 1 

-0.0946423 0.123612 -0.382839 
0.0282554 -0.0563215 -0.100394 
9.07889e-19 1.03723e-17 1 

-0.229477 0.216162 -1.66265 
-0.243388 0.0632034 1.31122 
-1.29378e-17 -8.77136e-18 1 

-0.173164 0.0288647 0.227383 
-0.056226 0.00338048 -0.119864 
8.32384e-18 2.05685e-17 1 

-0.0794986 0.0513881 0.0427681 
-0.0507358 -0.0953235 0.266468 
1.07568e-18 -1.88244e-18 1 

-0.104621 0.0496292 -1.54705 
-0.0410361 -0.0191019 -1.20576 
-5.98764e-18 8.33155e-18 1 

-0.151392 0.0840226 -1.58094 
-0.00285954 -0.0366438 -1.22309 
5.78204e-18 1.60838e-18 1 

-0.0311194 0.096291 0.225265 
-0.00594519 -0.149157 0.151514 
9.22393e-18 -6.77677e-18 1 

-0.109707 0.0768944 0.325005 
0.147005 -0.00953743 0.0418938 
5.43493e-18 -1.12989e-17 1 

-0.125166 -0.0579185 -1.03398 
0.0149165 0.0107991 1.44151 
-2.29922e-18 1.65401e-18 1 

-0.129784 -0.0166864 -0.0536831 
-0.0558446 -0.0740187 -0.311322 
1.38753e-18 1.05665e-17 1 

-0.0698694 0.0218031 0.197475 
-0.0881792 -0.0297079 0.176586 
-7.10782e-18 -9.14265e-18 1 

-0.583628 0.451002 0.859867 
-0.32719 0.300789 0.280049 
1.8483e-18 -1.65485e-17 1 

-0.0767304 -0.0124943 0.387782 
-0.00851204 -0.0789373 0.00603796 
1.23926e-18 -3.49868e-18 1 

-0.0870832 0.0419596 -0.0679051 
-0.0364726 -0.0810924 0.149834 
-2.31798e-18 -3.75706e-18 1 

-0.0726596 -0.0127285 -0.0640063 
-0.0236755 -0.043972 -0.154644 
-7.84294e-18 2.3752e-18 1 

-0.382475 0.157333 0.502926 
-0.300688 0.191326 -0.627899 
1.15434e-17 2.88114e-18 1 

-0.0727493 0.0248648 0.031433 
-0.0707905 -0.109056 0.0108827 
1.04713e-17 4.21901e-18 1 

-0.12022 0.0500636 -0.166542 
-0.00965549 0.0158362 -0.100965 
9.36707e-18 4.88199e-18 1 

-0.142751 0.142633 0.629238 
-0.0646279 -0.0284605 0.132948 
1.93548e-18 -1.73326e-19 1 

-0.0296651 -0.149486 0.79041 
-0.0516879 -0.0400213 -0.186359 
2.54603e-18 1.19345e-17 1 

-0.579412 -0.21772 -3.14337 
-0.111229 0.164367 1.22573 
4.05771e-18 -7.91749e-19 1 

-0.11254 0.0133505 0.186984 
-0.0240436 0.00166196 0.0185272 
1.04993e-17 5.39218e-18 1 

-0.144993 0.0520378 0.117373 
-0.0157525 -0.041382 -0.0118745 
6.61545e-18 4.48977e-18 1 

-0.0978903 0.0209814 0.417653 
-0.0101743 -0.0673313 0.26327 
1.89209e-17 4.1626e-18 1 

-0.179069 -0.0442245 -5.96995 
0.116082 0.0496573 1.86772 
-1.60617e-18 -7.32115e-18 1 

-0.375608 -0.0515654 -0.249512 
0.149907 0.261561 -0.484276 
-2.94921e-18 -4.93993e-18 1 

-0.0962725 -0.0140186 -0.286381 
-0.000282638 -0.0682095 0.0546099 
1.12391e-18 -6.35028e-18 1 

-0.0455802 0.0189294 -0.00852006 
-0.00738593 -0.14403 0.025686 
-6.68804e-19 -1.02441e-17 1 

-0.0950244 0.0102018 -0.176558 
-0.0830919 -0.0345012 0.0113619 
-6.93398e-18 -6.91775e-18 1 

-0.393908 -0.287873 7.29454 
0.119635 0.507372 2.83253 
-6.58629e-18 2.05971e-17 1 

-0.0720739 -0.05075 -0.114883 
0.138038 -0.0023762 0.00335851 
-7.45111e-18 1.49777e-18 1 

-0.103628 -0.0821177 -0.279753 
-0.0107016 -0.0483672 -0.133934 
2.13383e-18 1.56964e-18 1 

-0.185702 -0.0798255 -0.0829455 
0.100706 0.0159467 0.552528 
-1.16077e-17 2.206e-17 1 

-0.141377 0.00755554 0.10502 
0.00222886 0.0550354 0.174211 
-8.37383e-20 6.95028e-18 1 

-0.124704 0.0300805 0.184839 
-0.0427485 -0.013102 0.0487428 
-5.47601e-18 2.64359e-18 1 

-0.364995 -0.126169 0.173148 
0.175965 0.0622522 0.444014 
-1.64451e-17 1.14861e-17 1 

-0.434673 -0.567308 -0.4278 
0.310754 0.195403 0.7905 
-1.36232e-17 5.2861e-18 1 

-0.131345 -0.000218961 -1.17602 
-0.0474553 -0.0821091 0.795614 
-7.19261e-19 1.09995e-19 1 

-0.244719 0.0882066 0.102223 
-0.19268 -0.0533635 -0.475414 
1.20259e-18 -7.11532e-18 1 

-1.62557 1.73614 15.362 
0.497149 0.234678 -7.96704 
-7.03935e-18 1.48486e-18 1 

-0.0781037 0.0521819 0.0430496 
-0.0409258 -0.0690825 -0.0844384 
-7.74537e-18 1.63433e-17 1 

-0.0151397 0.438107 0.831825 
-0.353069 0.0680855 0.762835 
5.2555e-18 1.0737e-18 1 

-0.0932105 -0.0596067 0.456133 
0.0165507 -0.074761 -0.505006 
-5.68701e-18 3.22066e-19 1 

-0.123357 0.00328281 -0.283867 
0.00285578 -0.0544319 0.231913 
-6.02065e-18 9.07622e-18 1 

-0.0949547 0.0574101 -0.00902575 
-0.0906644 -0.0691639 -0.0493823 
-4.70647e-18 1.76492e-18 1 

-2.09733 0.978906 -0.358279 
0.176834 0.510522 -0.0895835 
-7.36459e-18 4.33036e-18 1 

-0.103212 0.0554477 -0.280087 
-0.0609298 -0.0323326 0.2234 
-1.49918e-17 -1.05825e-17 1 

-0.171592 -0.112235 -0.196563 
0.0472929 -0.0368945 -0.390397 
2.11231e-17 1.07934e-17 1 

-0.476251 0.219396 1.2963 
-0.188857 0.144161 -0.793028 
5.95038e-18 7.65596e-19 1 

-0.250737 0.268087 0.0649701 
-0.150986 -0.0839195 0.328943 
-9.77841e-19 5.85528e-18 1 

-0.0462233 -0.0629348 0.045732 
0.0584558 -0.0240895 0.0489974 
-3.06419e-18 -5.47177e-18 1 

-0.0563627 0.0168251 -0.0399302 
0.0270288 -0.0187114 -0.0936683 
4.25306e-18 -8.75903e-18 1 

-0.878653 0.107727 0.193379 
0.0327586 0.256819 0.549906 
3.30816e-18 1.65408e-17 1 

-0.501552 -0.320118 0.454866 
0.245749 0.265189 0.554774 
-9.04957e-18 -4.80239e-18 1 

-0.567178 0.370367 1.37038 
-0.523564 0.485355 -0.286557 
-7.34059e-18 5.99654e-18 1 

-2.37463 16.0677 -2.84525 
0.0410314 0.424423 0.113594 
-5.53904e-18 -1.17803e-16 1 

-0.0442835 -0.136379 0.542652 
0.0464014 -0.147037 0.126472 
-9.26127e-18 -1.30099e-17 1 

-0.337146 0.0216411 -0.199767 
0.127699 0.0682628 0.0329388 
-1.43051e-17 1.01786e-17 1 

-0.111299 0.0114772 -5.78427 
-0.00368863 -0.056017 8.04271 
1.44191e-18 2.41526e-19 1 

-0.0994026 -0.118894 0.106712 
-0.0246776 -0.0625583 -0.136944 
8.16322e-18 6.43163e-18 1 

-0.240059 0.156255 0.0765615 
0.00174626 0.00477233 0.315028 
-2.98532e-18 -9.1692e-18 1 

-0.921011 0.00973026 -0.0543142 
-0.327886 0.370035 -1.49459 
-4.98153e-18 1.09944e-17 1 

-0.126251 -0.0476737 0.16146 
-0.0345032 -0.00318138 -0.0571725 
-4.36384e-19 7.55901e-19 1 

-0.0856392 -0.0079987 0.265576 
0.091087 0.0578194 -1.11005 
-1.37293e-17 2.17058e-17 1 

-0.149131 0.124219 -0.0271099 
0.00803322 -0.0402841 0.110229 
-2.74496e-18 -1.49505e-17 1 

-0.104379 0.0159963 -0.147126 
-0.0156001 -0.0353733 0.0389141 
1.043e-19 6.07025e-18 1 

-0.574096 -0.355906 0.467937 
0.522784 0.305403 0.289159 
-2.16026e-18 2.10266e-17 1 

-1.48482 0.493166 -2.60927 
0.12757 0.496577 0.0421706 
3.96488e-18 -3.74643e-18 1 

-0.0394345 -0.0638458 -0.00812601 
0.0199296 -0.0827075 0.117834 
-7.13532e-18 -8.54477e-18 1 

-0.0808062 -0.031853 -1.91414 
0.00856929 -0.0175464 -0.902727 
-3.9492e-18 -4.25479e-18 1 

-0.162556 -0.0171227 1.63224 
-0.025383 -0.0112607 2.87381 
7.78757e-18 -6.54064e-18 1 

-0.112997 -0.0141886 -0.532128 
0.00928742 -0.0345332 0.264714 
-9.56263e-18 -1.1929e-18 1 

-0.0991965 -0.0445048 -0.429826 
0.00961047 0.0682807 -0.0159697 
-1.86765e-19 4.07147e-18 1 

-0.109854 -0.0245968 0.131549 
0.00847074 -0.0780817 0.348284 
2.08521e-18 2.55912e-18 1 

-0.187369 0.175114 -0.0211051 
-0.219882 -0.0213481 -0.168809 
5.37128e-18 -3.41234e-18 1 

-0.514235 0.108848 0.167449 
-0.107614 0.0509778 -0.0972574 
1.08382e-17 5.66923e-18 1 

-0.111816 0.0181033 0.650094 
-0.103955 -0.0088104 0.957815 
-5.40078e-18 -2.10181e-17 1 

-0.123194 0.0549475 0.10696 
0.0520488 -0.105135 -0.0969282 
-1.47726e-18 8.18174e-18 1 

-0.148615 -0.0132838 -0.268317 
0.0504936 -0.0654512 -0.982838 
-8.39662e-18 -4.6766e-18 1 

-0.116323 0.0819899 -0.555992 
0.0526675 -0.119862 -1.39939 
9.28142e-18 8.9168e-18 1 

-0.12839 0.0350008 0.186033 
0.00516444 -0.0225129 -1.73135 
3.37768e-18 -1.8359e-18 1 

-0.0711621 0.0425161 -0.0244898 
-0.00626877 -0.130378 0.0297495 
1.47314e-17 -4.17913e-18 1 

-0.183877 -0.0641874 1.1236 
0.0362819 0.0170611 -1.63335 
-1.37565e-17 7.15433e-18 1 

-0.100497 0.163648 0.218447 
-0.342227 0.0400114 -0.141266 
-8.59762e-19 -6.70989e-18 1 

-0.0859722 -0.0237052 -0.316841 
0.0248924 -0.0163042 0.0189368 
6.27229e-18 8.48035e-18 1 

-0.0853335 0.0353603 -0.068786 
0.120971 -0.0423335 0.109779 
-8.73123e-18 6.39251e-18 1 

-0.0815377 0.0231448 -0.0338624 
0.0708095 -0.0573256 -0.151209 
-1.03705e-17 2.29116e-18 1 

-0.359497 0.049065 0.353195 
0.197222 0.0952594 -0.0213769 
3.84786e-18 1.14343e-17 1 

-0.0982344 -0.0853967 -0.155107 
0.101523 -0.00234543 0.0372076 
-2.42887e-18 -6.99988e-18 1 

-0.402279 -0.0316636 -0.242083 
0.162272 -0.161844 -0.0476231 
-1.13783e-17 2.32443e-17 1 

-0.441891 0.243237 -0.371742 
-0.310013 0.0485889 0.53322 
9.19254e-18 -2.53363e-18 1 

-0.0932853 0.0464605 0.0631767 
-0.0184833 0.0353001 0.197968 
1.01739e-19 -4.40022e-18 1 

-0.062378 0.290749 0.490733 
-0.397052 0.0752056 0.0308881 
-8.54154e-18 -9.27159e-18 1 

-0.1007 0.00247796 2.93096 
-0.00661059 -0.0384033 1.81893 
4.42689e-19 7.18245e-18 1 

-0.10222 -0.0240033 -0.050845 
-0.0304078 -0.105643 -0.0762389 
-6.46437e-18 -4.42765e-18 1 

-0.0623236 -0.092114 -0.223066 
-0.0396243 -0.0215289 0.126915 
5.19403e-18 2.58591e-18 1 

-0.214518 0.0612192 0.101104 
-0.0050962 0.108359 0.220603 
1.12006e-18 2.20443e-18 1 

-0.0865013 -0.0738396 0.0858993 
0.0407843 -0.0264581 -0.261482 
-4.84775e-18 7.94996e-19 1 

-0.109257 0.00657301 -1.0638 
0.00585735 -0.0356053 -0.236738 
2.98036e-18 -9.35092e-19 1 

-0.0352865 -0.118686 -0.00428787 
-0.016783 -0.0951135 -0.0529634 
1.42326e-17 2.43025e-18 1 

-0.176985 -0.629304 -0.0764926 
0.45883 0.288636 0.451832 
1.01106e-17 -6.5173e-18 1 

-0.135785 0.111288 -0.77448 
-0.00265658 0.0557556 0.0706228 
1.9512e-18 3.60449e-18 1 

-0.546749 0.215224 0.950192 
-0.342362 0.145712 0.552582 
6.00464e-18 2.7426e-18 1 

-0.180399 0.0566125 0.378775 
-0.206195 0.107712 -0.119015 
1.91099e-17 -2.7917e-17 1 

-0.155921 -0.0123341 0.284808 
-0.00619599 0.1003 -0.122638 
-1.63787e-18 7.71162e-18 1 

-0.846881 0.697685 1.75721 
-0.0828117 0.56768 -2.38387 
-1.55982e-19 -1.59394e-18 1 

-0.114226 0.0252629 0.182723 
0.0620821 0.00295603 -0.683771 
2.75007e-18 4.88076e-18 1 

-0.17178 0.0590897 0.200005 
0.0648005 -0.00157463 0.062001 
-9.23145e-18 3.65303e-18 1 

-0.0618032 -0.0171142 0.114204 
0.0184599 -0.0716261 -0.0429206 
1.29669e-19 5.81491e-18 1 

-0.193703 -0.0118933 1.28975 
0.00933024 -0.0175043 1.3456 
-6.14794e-18 -5.12328e-18 1 

-0.0553742 0.0891256 -0.298654 
-0.138292 -0.010734 0.0980933 
-3.39158e-18 -2.1803e-18 1 

-0.117998 -0.143106 0.000347223 
0.0926419 -0.017425 -0.0192026 
3.08577e-18 3.08577e-18 1 

-0.0850102 0.0100038 -0.91213 
-0.0575221 -0.0105919 -0.0151895 
-8.03984e-18 -1.60449e-17 1 

-0.0223199 -0.070364 -0.267429 
0.0133704 0.0261917 -0.135016 
-6.41498e-18 -7.45031e-18 1 

-0.323942 0.156128 0.73227 
-0.230108 0.210998 -0.670016 
-4.07238e-18 -7.50549e-18 1 

-0.655399 0.815168 0.172674 
-0.725807 0.572407 -1.3324 
-2.5896e-17 -1.19007e-17 1 

-0.10636 0.0158627 -1.1999 
-0.00949506 -0.0783344 -0.897834 
-5.17051e-18 3.39809e-18 1 

-0.0822595 -0.0256559 -0.512361 
0.0387574 -0.0599266 -0.144632 
-7.75353e-18 8.91947e-18 1 

-0.0684185 0.124224 0.23234 
-0.0301066 0.0282285 0.281028 
-1.22285e-18 3.32784e-18 1 

-0.080289 -0.0170558 -0.581342 
-0.0588065 0.00813925 -1.64241 
2.19275e-18 1.52539e-18 1 

-0.230706 0.0562967 0.232563 
0.0742737 0.0585968 -0.46365 
6.0087e-18 -2.75897e-19 1 

-0.142501 -0.0851664 -0.11897 
0.0364215 -0.0354008 0.0728872 
-3.54391e-18 -2.28024e-18 1 

-0.140999 0.0110531 2.53275 
-0.00831521 0.0344994 2.14588 
-3.04855e-18 -1.14411e-17 1 

-0.128501 -0.00747683 0.606451 
0.019554 -0.0319977 -0.0583871 
-9.83881e-19 2.92718e-18 1 

-0.370775 0.362475 -1.08395 
-0.600844 0.454561 -0.115249 
-2.71072e-17 -1.46236e-17 1 

-0.0952225 -0.0603371 -1.08454 
0.0457536 0.0192378 0.181223 
1.03042e-17 -5.94958e-18 1 

-0.105148 -0.051982 0.427155 
-0.0243235 0.000967914 -0.395653 
-2.18357e-18 -8.65901e-18 1 

-0.957901 0.0919005 -42.6235 
-0.509341 0.966057 21.7009 
-3.63097e-18 -5.08931e-18 1 

-1.50748 -0.856566 0.920402 
0.42748 0.466873 0.191143 
3.43799e-19 3.43799e-19 1 

-0.3278 -0.0475208 -0.628641 
-0.251197 0.143485 3.00903 
-3.92972e-18 -6.40827e-18 1 

-0.1433 -0.0888698 -0.282193 
0.00321564 -0.0846214 0.150942 
4.39734e-18 -1.01918e-18 1 

-0.49547 0.363713 -0.431846 
0.042724 0.22491 -1.87059 
-3.42774e-18 1.53809e-18 1 

-0.193131 -0.0164711 4.45893 
0.0892533 0.223987 3.21202 
-3.03986e-19 4.47393e-18 1 

-0.181267 0.0561715 -0.892903 
-0.0487277 0.00190088 1.38725 
2.5966e-18 4.5264e-18 1 

-0.639127 0.220106 -0.589165 
-0.442727 -0.00630043 0.214891 
1.00609e-17 3.09565e-18 1 

-0.200484 0.0762528 -0.126867 
-0.0658005 0.0857634 -0.36147 
4.74302e-18 1.33924e-17 1 

-0.100156 -0.0249141 0.0344544 
-0.0459984 -0.0328829 -0.0792717 
4.67502e-18 -7.16425e-18 1 

-0.0917712 -0.0455036 0.146702 
0.0240087 -0.0946267 0.277635 
1.27772e-17 1.70363e-18 1 

-0.166971 -0.0250382 0.296674 
0.0139067 -0.00861715 0.0651639 
1.44427e-17 -8.92155e-18 1 

-0.105088 -0.00623888 0.0406187 
-0.00211142 -0.0589037 -0.091686 
1.57215e-18 8.47593e-18 1 

-0.0631929 -0.0178393 0.00365847 
0.0892966 -0.0150941 -0.0987234 
9.94486e-19 -6.4802e-18 1 

-0.144138 -0.026896 0.119356 
0.00524929 0.0313969 0.00413312 
-1.25611e-18 1.26396e-17 1 

-0.257206 -0.141145 0.158443 
-0.0772461 0.0800291 0.0343762 
2.68034e-19 1.10189e-17 1 

-0.102124 -0.0268101 -0.0496294 
-0.0251153 -0.0443875 -0.0453878 
-2.27796e-17 -1.25163e-19 1 

-0.108315 0.0330963 0.0286114 
-0.0427517 -0.0442435 0.0430371 
3.95707e-18 6.77085e-18 1 

0.16795 -1.25225 0.096358 
0.762164 0.878777 -0.49418 
8.3946e-19 1.58016e-18 1 

-0.134103 -0.0213234 0.0488109 
0.0019256 -0.0435476 -0.112942 
-2.22327e-18 4.17454e-18 1 

-0.121838 0.136092 -0.192357 
-0.180414 -0.00633255 0.075637 
2.23066e-17 2.80541e-18 1 

-0.237303 0.001934 -0.243259 
0.010451 -0.0434013 -0.147972 
-1.51469e-17 -4.01279e-18 1 

-0.0823278 0.0422702 -0.778874 
-0.0352322 0.0161636 -0.132441 
-1.45834e-18 1.93156e-17 1 

-0.356911 0.0749819 -0.310597 
-0.154892 0.0533487 0.423262 
2.51236e-18 1.41723e-17 1 

-0.105385 -0.0660754 -0.152074 
-0.0406214 -0.0462807 0.140436 
9.94299e-18 6.76055e-18 1 

-0.100949 0.00235382 -0.272489 
0.0262815 -0.059076 -0.966592 
-5.46194e-18 4.11944e-18 1 

-0.264114 -0.0263686 -0.051732 
0.115998 0.0505461 -0.514635 
-8.66416e-19 -1.1081e-17 1 

-0.131742 -0.0219615 0.11041 
-0.0505774 -0.0487148 0.180843 
5.27106e-18 1.18451e-18 1 

-0.120789 0.0251673 0.741159 
-0.046896 -0.0629242 0.225657 
-4.3119e-18 -9.46991e-18 1 

0.426166 -1.12008 0.150027 
0.862458 0.678026 0.163597 
8.54181e-18 4.43644e-18 1 

-0.0913942 -0.0246554 0.371454 
-0.0510136 -0.031622 -0.233754 
2.0493e-17 -1.80114e-18 1 

-2.31477 -1.36624 -14.0178 
-0.0704614 0.584052 -1.61478 
-4.63566e-18 8.53858e-18 1 

0.365696 -0.903141 -0.211881 
0.879688 0.443996 -0.0325829 
-3.80677e-18 -4.75847e-18 1 

-0.116845 -0.0813265 -0.0731268 
0.0746704 -0.0570764 -0.0895371 
-3.153e-18 -1.59483e-18 1 

-0.646499 -0.160031 0.395495 
0.00717673 0.212433 2.81406 
5.27206e-19 4.04191e-18 1 

-0.456792 0.166059 0.697022 
-0.0959257 0.286429 2.03515 
5.92198e-19 -8.7053e-19 1 

-0.352683 -0.168907 0.0199725 
-0.0167328 -0.0838666 -0.174376 
-2.89189e-18 -6.88727e-18 1 

-0.0885889 0.0705584 0.431268 
-0.096366 -0.0287156 0.527863 
-2.00099e-18 -5.92334e-18 1 

-0.15952 0.0385656 -0.143827 
-0.0510941 -0.0253448 0.0545083 
8.53115e-18 1.14167e-17 1 

-0.145 -0.0485539 0.0784665 
0.0355484 0.0592056 0.367685 
-6.47188e-18 -1.20751e-17 1 

-0.117754 -0.028756 -0.068894 
-0.0664538 -0.0420671 0.0932203 
8.02255e-18 1.99356e-18 1 

-0.159501 -0.215239 -0.561758 
0.158077 0.0206642 -0.345556 
1.29529e-17 -5.4262e-18 1 

-0.0059683 -0.0376078 0.0209349 
0.191214 -0.17193 -0.368473 
-6.0614e-18 -6.44504e-18 1 

-0.0948925 -0.0350292 0.0510351 
-0.00498724 -0.0264388 0.183155 
-9.51678e-19 5.56732e-18 1 

-0.416312 0.373243 -0.513102 
-0.189832 0.169163 0.490807 
5.43393e-19 -8.47693e-18 1 

-0.216577 -0.316401 0.266301 
0.0515582 0.122395 -0.153789 
-3.84817e-18 1.98615e-18 1 

-0.154944 0.0410744 -0.110039 
-0.00874961 -0.0639717 0.138112 
1.15343e-18 3.56515e-18 1 

-0.109208 -0.072558 -0.355212 
0.0719631 0.038908 -0.261 
3.16827e-18 -5.21705e-19 1 

-0.164107 0.00658891 -0.301779 
0.0101527 0.0549503 -0.45121 
-9.13094e-18 4.85225e-18 1 

-0.067601 -0.0100928 0.0312219 
0.0721394 0.00765585 -0.148984 
-1.35112e-18 -2.95513e-18 1 

-0.289555 -0.0327566 -1.75552 
-0.287136 0.0131611 -0.543465 
-3.16705e-18 6.92792e-18 1 

-0.569156 -0.197589 -0.383785 
-0.197059 0.426779 -0.952988 
1.09293e-17 7.18355e-19 1 

-0.0422124 -0.0820634 0.286856 
-0.0306045 0.0277948 0.316575 
5.78224e-18 -4.09269e-19 1 

-0.164501 -0.0189047 -0.44863 
0.0480712 -0.0375302 -0.56483 
1.03451e-17 -3.80324e-18 1 

-0.0832417 0.0343403 0.153067 
0.0464067 0.0044262 0.383172 
-9.88458e-18 -8.58954e-18 1 

-0.0797575 0.0105371 -0.187295 
-0.0197153 -0.00844856 -1.59948 
9.0576e-18 2.01567e-18 1 

-0.250517 -0.0130805 -0.920316 
-0.0279396 0.123483 -1.33598 
2.38942e-18 -6.89813e-19 1 

-0.17821 -0.0292473 0.0165114 
0.05498 0.061439 -1.63714 
6.41708e-18 -1.33988e-18 1 

-0.113953 -0.0301925 0.069571 
-0.00415014 -0.13087 0.0410271 
1.2664e-17 9.43516e-17 1 

-0.115475 -0.0894715 -0.679312 
0.062552 0.0163803 -0.0361548 
-5.73827e-18 4.60872e-18 1 

-0.192006 -0.101843 -1.83172 
0.05831 0.00827301 6.43934 
-6.26176e-18 -1.12185e-18 1 

-0.115066 -0.0606382 -0.61877 
0.0554387 0.0263712 0.0661115 
3.0717e-18 -1.14055e-18 1 

-0.143196 0.0496737 83.7041 