# vtk DataFile Version 3.0
Output file generated by Yade's KinematicLocalisationAnalyser
ASCII
DATASET UNSTRUCTURED_GRID

POINTS 13483 float
661.291 27.7482 -0.443365
867.317 45.3423 -0.553543
129.406 6.20155 -0.380092
914.895 4.26503 0.376889
538.228 7.53877 -0.303963
337.854 34.3821 -0.461428
168.501 6.78553 0.408949
617.402 9.98631 0.137838
535.091 22.4788 0.142813
802.098 12.4044 0.349246
226.284 8.76612 -0.122226
275.916 6.28203 -0.267554
716.097 27.5548 0.15435
691.989 13.8734 -0.0805039
147.736 16.9062 0.436145
237.975 34.0368 0.397483
233.89 12.8649 -0.264701
310.016 9.4332 0.383886
366.003 32.1879 0.425265
566.456 8.49908 0.347255
441.707 36.0391 -0.101968
642.774 43.4888 -0.274611
910.692 31.985 -0.438022
773.098 41.5719 0.435902
494.065 15.9152 0.294217
258.616 43.4673 -0.122333
529.843 26.8429 -0.495539
636.469 18.8996 0.212737
48.4063 15.2311 0.467791
797.712 29.9583 -0.314499
519.682 4.88371 0.313406
17.9693 22.644 -0.288229
882.091 42.768 0.253016
533.724 2.47418 0.479951
84.1689 43.4751 0.101126
563.6 30.1787 0.31889
573.255 16.4481 -0.413526
369.136 21.5983 -0.191562
576.673 25.089 -0.32132
376.774 32.689 0.422127
258.996 14.3267 -0.341693
467.3 34.7825 -0.0621446
746.545 6.84052 0.111259
207.523 6.13545 0.377497
59.7555 6.84022 -0.126215
73.7171 8.72507 -0.266468
765.473 8.5502 -0.515403
25.3737 11.4795 0.291834
665.927 43.2725 0.356379
748.816 22.2604 0.345188
185.515 32.0225 -0.296195
861.958 32.7131 -0.128153
38.0766 27.667 -0.120754
577.452 2.94412 0.319541
153.211 7.41315 -0.465184
645.59 32.9139 0.388653
544.58 25.7309 -0.118503
188.082 0.931524 -0.256761
35.3214 2.43256 0.27979
374.763 17.5239 0.28283
678.141 43.8936 -0.132764
498.212 32.7939 0.189258
429.614 1.03163 0.187257
778.064 7.58217 0.351179
28.4162 42.0067 0.235809
275.763 30.0613 -0.299715
802.238 7.6084 0.232305
739.598 42.8081 0.360103
449.473 8.54473 -0.470924
618.272 3.48372 -0.343069
837.182 28.3816 0.386228
141.046 7.50406 -0.27905
538.19 24.7737 -0.130303
515.079 14.6756 -0.132162
316.762 16.4911 -0.257607
22.413 13.3845 -0.248877
889.287 33.2284 -0.316504
357.737 37.9192 -0.28359
746.071 19.2519 0.313986
765.057 12.2324 -0.241865
898.263 10.8493 -0.204868
501.861 33.9979 -0.164331
99.6878 37.5008 -0.273633
759.208 33.6561 0.220423
712.052 37.0791 0.102468
918.57 35.3951 0.151342
891.032 0.768962 -0.508978
313.259 28.8868 0.417372
680.048 6.31178 -0.101306
26.2422 5.17024 0.454246
143.286 37.3322 0.141339
554.772 14.0435 0.198846
879.082 23.9092 -0.452712
210.924 28.0869 0.259074
47.9809 33.8449 -0.268933
532.579 1.15952 0.109115
253.985 8.80202 -0.353016
841.865 38.8717 -0.253639
865.692 24.5355 0.225268
389.48 20.3062 -0.257237
177.107 26.5135 -0.438419
597.003 37.2751 -0.408981
410.156 15.1054 -0.406463
446.32 29.0416 -0.104365
408.114 4.44171 0.406669
594.847 10.7627 -0.0910671
919.555 11.2323 0.224145
86.8503 38.5579 -0.392404
361.746 4.75832 -0.174503
610.47 9.31199 -0.3254
388.27 43.2709 0.439911
28.1843 24.0127 -0.472467
32.9816 5.66227 0.329008
619.261 31.5918 0.398777
547.869 23.4127 0.141247
28.5603 36.1473 0.408916
100.626 29.9755 0.213156
350.913 15.6041 -0.312558
656.357 18.5685 0.118622
514.813 37.2326 0.30535
822 7.4216 -0.381395
812.546 6.12852 -0.199983
417.963 36.3254 -0.0922584
698.944 24.3886 -0.0987257
257.6 16.8347 0.498347
356.651 3.67016 0.463249
112.041 30.8302 -0.320685
126.042 23.5367 0.2689
592.054 37.8128 0.0763947
330.671 18.4809 0.470372
791.669 33.3214 -0.10232
744.062 42.4456 0.110619
521.38 20.1506 -0.384118
870.049 9.1407 0.356169
464.514 22.9475 0.229008
299.677 23.7783 -0.29817
747.599 30.2889 0.283474
301.641 28.3598 0.38102
629.904 11.3838 -0.186852
359.019 34.6583 0.192595
548.622 11.3089 0.436339
396.918 30.8736 0.0897371
467.003 16.3146 -0.101996
344.295 41.0942 0.341783
206.721 29.3933 0.117734
871.549 43.1223 -0.145782
915.282 11.6553 -0.326096
6.50986 11.8237 0.416217
471.135 22.0171 -0.392852
41.8227 22.1035 0.0956888
407.585 30.5751 -0.465055
428.455 24.3348 -0.261635
81.1831 11.8191 -0.467365
56.4169 32.7228 0.419061
244.99 13.2893 0.395886
679.626 37.4018 -0.408471
632.733 19.9702 -0.475426
81.3501 20.6526 -0.469117
776.277 44.7661 -0.404907
855.436 2.55209 0.415664
731.652 38.8275 0.474739
772.987 2.29155 0.394241
601.473 25.8174 0.38279
644.388 43.6802 0.438293
558.789 17.495 -0.417102
912.121 2.98216 0.357117
242.75 24.3205 -0.111335
138.645 34.3965 0.191794
268.393 6.51265 0.364205
102.823 4.143 -0.244217
69.8419 9.88174 0.199769
299.482 35.2282 -0.30535
18.2338 24.4915 -0.362176
607.967 18.8377 -0.381607
665.569 38.3242 0.218647
503.87 20.7794 -0.356664
902.812 38.7477 -0.347228
442.24 8.4546 0.0842836
474.383 35.316 -0.191678
586.503 3.42297 -0.179224
24.9789 23.4224 0.374509
632.789 4.24976 -0.37012
597.06 4.32983 -0.283914
224.371 11.2433 0.473266
462.703 16.1321 -0.190047
338.373 6.27314 0.31833
421.776 18.6485 -0.338655
827.708 41.2346 -0.118074
209.239 25.0683 -0.434503
882.828 6.44726 -0.349943
826.804 37.42 -0.333044
417.082 10.0535 -0.182608
799.283 2.30975 -0.394165
665.455 24.6816 -0.399852
830.488 17.6419 -0.401016
469.176 41.6703 -0.267247
542.363 12.2384 0.33843
507.623 43.3639 0.219798
485.616 8.54745 0.136201
735.245 37.8304 -0.297673
732.756 34.2425 0.332413
208.85 38.3165 0.343478
896.092 10.9147 -0.147137
647.043 44.2785 0.241628
12.3723 16.6873 0.193173
443.532 25.0025 0.333251
204.144 22.6248 -0.397481
101.377 38.4561 -0.200659
877.012 21.1862 -0.422083
728.005 42.3498 -0.231923
347.08 24.972 0.350996
583.125 10.1042 0.318804
89.6963 43.3048 0.161307
269.535 25.5026 -0.46169
611.027 22.9396 0.356353
531.508 18.2443 0.397318
285.95 0.890916 -0.342385
606.975 39.0094 0.361152
585.009 40.0906 -0.439663
526.696 32.2499 0.380862
545.611 0.769387 -0.483093
784.437 18.027 0.33667
195.853 11.8051 -0.171713
547.392 35.4964 0.43331
620.264 38.5859 0.114445
79.4198 0.945622 0.273065
274.03 4.68848 0.169352
914.402 13.4152 0.246198
898.769 12.7538 -0.409413
921.927 15.7329 -0.533648
330.408 8.42653 -0.227836
837.661 21.7337 -0.397408
443.945 40.5012 -0.315606
489.979 0.812353 -0.398872
719.388 34.4336 -0.497441
29.5863 29.7296 0.301272
359.968 40.3888 0.487602
274.93 2.8317 0.308855
885.139 39.6592 0.189751
796.543 45.275 -0.230506
312.912 10.7787 0.185727
740.428 28.0315 -0.0846406
612.119 2.65201 0.257178
594.73 6.37808 0.412444
105.645 17.8146 0.461623
330.237 1.0321 -0.220567
374.289 2.25945 -0.365442
15.2202 7.61351 0.293479
4.77705 30.3423 0.240987
176.972 18.8782 0.368047
74.5301 40.8605 -0.210373
72.8593 28.1831 0.324185
462.284 14.3157 -0.405572
400.169 34.4453 -0.465572
859.789 34.4864 0.121991
21.3269 3.95537 -0.281268
76.9947 6.78895 0.1287
690.924 36.8076 -0.151754
321.263 0.932322 0.318338
397.902 15.6723 -0.111684
256.954 4.61558 -0.380759
724.253 20.5527 0.181759
493.372 8.25813 0.399633
840.805 19.55 -0.334697
698.239 27.9396 -0.30272
744.966 17.4487 0.0873449
458.631 26.0145 0.497242
111.311 43.8173 -0.308659
595.952 41.1259 -0.0677323
827.709 13.1332 -0.164635
259.363 29.6925 0.242792
35.1623 16.7812 0.16039
366.845 13.592 0.480007
117.682 39.562 0.46131
291.796 41.5499 -0.187237
464.547 1.06786 0.172558
886.239 28.214 0.39182
765.119 0.764003 -0.519416
362.368 3.07335 0.470932
327.11 26.1069 0.134658
506.3 40.2939 0.205437
89.077 7.8867 -0.320286
216.155 44.0534 -0.377745
868.66 26.8899 0.368304
542.337 37.9881 0.0726228
218.432 40.5608 -0.248704
175.586 41.6775 -0.277344
921.362 31.4126 0.436492
917.858 11.219 -0.501637
669.033 3.60961 -0.510894
207.785 24.0672 0.100051
603.686 27.0707 0.101008
605.746 26.675 0.261722
447.025 5.56584 -0.134581
527.24 0.936225 -0.277549
857.55 36.7202 -0.482504
92.9148 30.2054 0.216302
730.323 17.8925 -0.438774
299.434 15.3639 -0.330905
10.7781 2.33458 -0.336096
137.181 36.0889 0.187962
73.2433 22.7368 0.458192
784.104 35.2252 -0.308075
891.469 44.2661 -0.176963
202.988 27.7725 0.17704
909.894 11.3655 -0.294657
49.2135 35.844 -0.245636
99.3612 28.417 0.15916
702.657 12.7975 0.41547
451.763 18.0261 -0.472812
569.847 16.3541 0.117086
260.07 27.7915 0.189803
687.724 4.47813 -0.410443
922.483 10.8129 0.345075
32.8891 30.8553 -0.261219
294.795 7.68742 0.185178
242.548 14.95 0.238739
1.10951 34.8473 0.147594
245.994 14.3694 -0.363163
231.33 10.9061 0.128687
234.27 25.9545 -0.271761
145.604 27.331 -0.13634
601.899 14.7004 -0.328442
182.994 14.1013 0.333867
879.232 41.1181 -0.233104
190.326 3.80652 0.46286
51.8986 37.2836 -0.348682
834.583 47.2474 0.426572
306.803 31.2715 -0.390105
755.352 22.3923 0.428037
895.39 28.8944 -0.462182
328.401 9.04353 -0.113476
824.022 29.0626 0.332901
359.065 2.62847 -0.35575
454.755 23.531 0.37302
751.842 15.5618 -0.245593
115.65 11.7579 0.408926
528.993 3.97011 -0.455147
844.916 17.29 -0.214348
96.6542 7.61886 0.185549
307.525 14.5005 0.20007
463.101 11.5336 -0.193001
910.39 2.60776 0.391296
434.925 1.85691 -0.468692
193.377 38.1187 0.287361
830.508 10.565 -0.274507
140.528 35.4439 0.179121
287.391 30.9916 -0.38122
437.847 21.3105 0.208446
632.498 13.1347 -0.324619
423.37 9.79262 -0.437399
499.927 27.1785 -0.399157
868.181 44.6612 0.421351
52.1239 10.7524 -0.113949
326.861 37.6386 -0.25497
414.972 25.9907 -0.37829
447.767 20.7693 0.243199
572.883 43.9292 0.356527
850.108 35.94 0.212162
739.201 33.6417 0.362162
246.438 33.7994 -0.376871
15.26 30.6262 0.152687
730.98 35.0622 -0.136181
558.736 40.623 0.186561
250.639 38.5807 0.0974687
763.713 30.9985 -0.11024
165.626 9.10089 0.196176
400.773 20.6012 0.272519
508.178 41.2507 0.0977896
452.905 19.3088 0.202594
864.118 46.9856 0.29146
466.018 3.34734 0.41149
54.5883 24.8484 -0.289188
515.225 30.9393 0.345617
475.821 40.5712 0.376124
882.391 34.6074 -0.225901
821.053 27.8397 -0.240308
595.134 18.063 -0.166591
873.018 35.683 -0.0012189
320.329 2.04851 -0.427805
413.66 28.4059 0.453085
31.8582 37.8999 0.2949
828.137 30.1884 -0.132203
674.58 19.3272 -0.462936
507.376 0.781772 -0.477524
138.363 4.43573 -0.283942
467.276 39.1182 -0.111928
13.3385 0.917875 0.308936
909.339 5.31752 0.187909
404.654 38.4182 -0.335858
675.527 7.26936 0.366098
[...]
POINT_DATA 13483
TENSORS Strain_matrix float
-0.130334 -0.194603 -0.863597 
0.0858136 0.035539 1.55988 
-5.39627e-18 -3.56908e-18 1 

-0.18498 -0.211314 15.8213 
0.0566898 0.0842251 -4.08476 
-4.58291e-19 6.05595e-18 1 

-0.0587654 -0.00127171 0.0896659 
0.0076119 -0.0587628 0.34405 
2.87101e-18 -3.55544e-20 1 

-0.310906 -0.0417254 0.324924 
-0.0428414 0.0683631 0.763773 
-8.65765e-18 1.46649e-17 1 

-0.0765385 -0.0189171 0.0250198 
0.0122076 -0.0691977 0.0560451 
8.39285e-18 5.14557e-18 1 

-0.0475342 -0.00516844 -0.844976 
-0.0032786 -0.0441643 0.1798 
-7.06984e-18 -2.5476e-18 1 

-0.0302621 -0.024812 0.00236376 
0.0038357 -0.102088 -0.00308765 
-3.75348e-18 -5.87501e-18 1 

-0.0584423 0.021276 -0.0772492 
0.00909885 -0.0624349 -0.0316432 
4.68849e-18 7.70584e-18 1 

-0.0384906 0.0438515 -0.0917974 
0.023508 -0.0312557 -0.13283 
-7.52679e-19 2.50893e-19 1 

-0.1505 0.0241355 -0.187893 
0.0101444 -0.0570033 0.0659825 
7.53352e-18 -1.90722e-18 1 

-0.0363617 0.0027161 0.0966567 
-0.00685428 -0.0738104 -0.239928 
1.40721e-17 -1.47662e-18 1 

-0.0500282 -0.0410091 0.170236 
-0.0604814 -0.0922237 0.0213994 
2.3184e-18 -3.52219e-18 1 

-0.152697 0.0646129 -0.122304 
-0.046417 0.0972459 0.285764 
8.50742e-18 3.46822e-18 1 

-0.105518 0.0239693 -0.114268 
0.0142066 -0.0268756 0.182446 
-9.05399e-18 7.44908e-19 1 

-0.0631546 -0.0178813 0.835334 
0.015492 -0.0677803 0.412795 
-4.09069e-18 -7.85844e-18 1 

-0.0396416 -0.0143681 0.457959 
-0.0180803 -0.0287736 0.428119 
-1.06892e-18 3.07494e-18 1 

-0.0441655 -0.025309 -0.0109084 
0.00893215 -0.100895 0.0205688 
5.04945e-18 -4.47127e-18 1 

-0.0851261 0.0045655 0.0793979 
0.0169552 -0.0851304 0.00749728 
1.49511e-18 1.19141e-18 1 

-0.117854 -0.102036 0.0896749 
-0.0476953 -0.0588861 -0.043997 
4.38319e-18 4.38319e-18 1 

-0.0586125 0.035058 0.17762 
-0.0547628 -0.0955846 0.0173833 
0 -5.56771e-18 1 

-0.0634519 0.0122573 0.119 
0.0248256 -0.0158339 0.0676237 
4.08331e-18 -5.11664e-18 1 

-0.0524585 -0.134764 0.392507 
0.037346 -0.0376518 0.00933933 
5.47786e-18 -1.58778e-19 1 

-0.485489 0.2012 -1.83138 
-0.176596 0.267362 1.53075 
-5.67186e-18 5.04995e-18 1 

-0.106306 0.00905521 0.191194 
-0.113683 -0.053786 -0.498245 
9.18673e-18 3.02859e-19 1 

-0.0303443 -0.0152342 -0.203728 
0.0819644 -0.05271 0.00608634 
6.87187e-18 -1.75887e-18 1 

-0.0492177 0.071163 -0.00733061 
-0.100196 -0.0160235 0.0226427 
7.04481e-18 -1.50518e-17 1 

-0.0572728 -0.0111304 2.63165 
-0.00224289 -0.0359331 -6.37935 
-1.03752e-18 -9.1496e-19 1 

-0.106457 -0.0218635 0.0365358 
-0.0458688 -0.000559634 0.0244022 
-1.2737e-17 -1.10627e-17 1 

-0.0413937 0.00954528 -0.0857954 
0.0315561 -0.0832219 -0.529328 
1.25522e-17 -8.64805e-18 1 

-0.119529 -0.0185883 0.19888 
-0.00469501 0.0211209 -0.0116281 
-2.08092e-18 -1.13295e-17 1 

-0.0486339 -0.0214421 -0.255654 
0.0118607 -0.151041 0.420812 
3.71854e-18 -6.32152e-18 1 

-0.060835 0.0408152 -0.210754 
0.121842 -0.0794552 -0.168711 
-1.74462e-18 -4.54895e-18 1 

-0.111726 -0.0996203 -0.621685 
0.113552 -0.00826699 -0.420542 
2.90511e-18 5.96474e-18 1 

-0.0684404 0.0262141 -1.82186 
-0.0127629 0.0161466 -1.41539 
-1.31735e-19 7.88304e-18 1 

-0.0642115 0.0361521 -0.00857552 
-0.0624121 -0.0848167 0.222847 
1.71779e-18 -2.29038e-18 1 

-0.0796962 -0.0412909 -0.934006 
-0.0430217 -0.0213507 -1.60261 
-2.9672e-18 4.64155e-18 1 

-0.0541773 -0.0038637 -0.0154322 
0.00977635 -0.0590846 -0.258652 
-7.73395e-18 2.61379e-18 1 

0.0196256 -0.10235 -0.29937 
-0.0168114 -0.205225 0.0467886 
-8.96049e-19 7.69895e-18 1 

-0.0508696 -0.0279461 -0.193374 
0.0917652 -0.0451027 0.205037 
3.9661e-18 3.39951e-18 1 

-0.0408775 -0.0398601 0.950949 
0.0114448 -0.0120828 1.14536 
5.44767e-19 1.16217e-19 1 

-0.0794543 0.0193646 -0.085859 
-0.0906162 -0.0850243 -0.302032 
-8.27098e-18 -3.46276e-18 1 

-0.00138342 -0.0331668 -0.136696 
-0.0755144 -0.0290557 -0.206785 
3.65953e-18 -6.87547e-18 1 

-0.10825 -0.0204931 0.207419 
-0.0189711 -0.0272727 0.142697 
5.65957e-18 4.57119e-18 1 

-0.0298179 -0.0313434 0.28612 
0.0022283 -0.0939493 0.011159 
-1.237e-18 -8.9985e-18 1 

-0.0343542 0.0128419 -0.0242353 
-0.0180755 -0.115769 0.14994 
4.22636e-18 2.19635e-18 1 

-0.0341474 0.00333167 -0.0480075 
-0.0240897 -0.0640239 -0.0826047 
1.97968e-18 3.18075e-18 1 

-0.108224 -0.00567643 -0.0833386 
0.00864249 -0.081575 2.12058 
2.71815e-18 -5.54516e-18 1 

-0.0309454 0.0141782 0.0199566 
-0.0403655 -0.136269 0.00438478 
-1.36267e-17 3.97019e-19 1 

-0.120063 0.0390232 -0.256632 
0.0198093 0.0202988 -0.149365 
-1.36972e-17 -2.43506e-18 1 

-0.0764127 0.0514112 0.445703 
-0.00808533 -0.0108671 -0.245003 
1.23705e-18 5.13374e-18 1 

-0.00816023 -0.0879773 0.468961 
-0.0782374 -0.0481784 -0.101012 
-5.16615e-18 8.26584e-18 1 

-0.0633546 0.0103596 0.651771 
0.0755565 -0.0171763 0.147006 
4.1392e-18 -8.66153e-18 1 

-0.0789329 -0.0239383 0.187172 
-0.0124693 -0.0123908 -0.0748928 
-1.47086e-18 6.0487e-18 1 

-0.0796335 0.0184379 0.0677454 
0.00070459 -0.0605243 -0.0763822 
-7.60523e-18 1.63115e-19 1 

-0.0649877 -0.0117265 0.34647 
-0.00478372 -0.0970305 -0.653589 
6.7858e-18 -5.98202e-18 1 

-0.0766624 -0.0156711 -2.57401 
0.022222 -0.00689115 0.605718 
1.37685e-17 -6.42532e-18 1 

-0.0444242 -0.0281804 0.100506 
0.0929513 -0.0125354 0.191338 
1.71108e-18 1.94635e-17 1 

-0.0452358 -0.0461341 -0.244804 
-0.00535785 -0.111057 0.0217473 
-7.89318e-20 -5.80938e-18 1 

-0.0215915 0.0280722 -0.0442801 
0.00800118 -0.149191 0.0971312 
4.49253e-18 -8.59441e-18 1 

-0.0384046 0.0459503 0.358389 
-0.0329209 -0.0914033 -0.578598 
7.44213e-18 1.16504e-17 1 

-0.0468035 0.254975 0.123924 
0.0280233 0.00940685 0.194474 
4.51202e-19 -3.78046e-17 1 

-0.0430358 -0.0071418 0.0944332 
0.0614627 -0.00880783 0.173053 
2.68429e-18 -4.48365e-18 1 

-0.0575567 -0.0352233 -0.148666 
-0.000223033 -0.0389058 -0.036791 
-1.36902e-17 -1.78957e-17 1 

-0.0912838 -0.0174667 -0.368941 
0.0294064 -0.0543363 0.0280509 
-7.84027e-18 -1.94307e-18 1 

-0.0349841 0.0205599 0.083494 
0.0237139 -0.0222384 0.0304907 
-1.17709e-18 1.80579e-17 1 

-0.101306 -0.00646041 0.0993511 
-0.0225369 -0.0238886 -0.0256384 
5.27154e-18 1.28813e-18 1 

-0.14415 0.056097 -0.0808306 
-0.0120775 -0.0687897 -0.0566805 
-6.99079e-18 7.08277e-18 1 

-0.114035 -0.0989935 -1.01849 
0.0938047 0.00674468 -0.124387 
2.54272e-18 -7.78175e-18 1 

-0.0695081 -0.000587356 0.371235 
-0.0443029 -0.0867415 0.19917 
-1.96721e-18 4.15545e-18 1 

-0.108358 -0.0117151 0.0962935 
-0.0201766 -0.0961456 0.0972667 
2.50216e-17 1.80661e-19 1 

-0.21427 0.209338 0.695186 
-0.0615571 0.105574 0.471821 
6.35681e-18 -2.75574e-18 1 

-0.0267609 0.0205556 0.0333675 
-0.0101698 -0.0847045 -0.110756 
3.05099e-18 8.41652e-18 1 

-0.0400736 -0.0248058 -0.123712 
-0.0574433 -0.0557794 0.159381 
5.08207e-18 4.64352e-19 1 

-0.0424206 -0.0274231 0.0190077 
-0.0133794 -0.0665345 -0.128425 
-6.05141e-18 -9.76034e-18 1 

-0.0567482 -0.00892108 0.0430897 
-0.00997824 -0.0432866 -0.184641 
6.44565e-18 -5.7631e-18 1 

-0.0157336 0.0108356 -0.0572346 
-0.0625422 -0.119588 -0.0781593 
-1.07122e-17 3.31198e-18 1 

-0.265369 -0.0611187 -0.185581 
-0.0055146 0.160992 -0.795632 
-1.40298e-17 7.11856e-18 1 

-0.0597885 0.00779652 -0.0956401 
-0.0129958 -0.0482423 0.229425 
-8.64195e-18 -4.22277e-18 1 

-0.131908 -0.0463178 -0.135612 
0.0310208 -0.0427188 -0.39074 
-1.49689e-17 -1.64336e-18 1 

-0.097327 0.00728819 -0.0226984 
0.00876497 -0.0472194 -0.0684778 
1.84507e-17 -1.14777e-17 1 

-0.187406 0.0923198 -0.0933923 
-0.0942851 -0.0589819 0.195548 
-1.40302e-17 -9.48695e-18 1 

-0.028428 -0.0172052 0.0281139 
0.0146826 -0.0234468 0.0784221 
3.91736e-18 -5.38636e-18 1 

-0.0359034 0.0243238 0.105715 
-0.0136786 -0.0283122 -0.238588 
-4.25071e-19 5.10085e-18 1 

-0.0780824 -0.0748148 0.0139903 
0.0108642 -0.00519941 0.0660993 
1.21001e-17 2.93434e-18 1 

-0.0885157 -0.015268 0.00225099 
0.0682166 -0.0549257 -0.0537402 
2.45361e-18 1.98626e-18 1 

-0.278285 0.328361 0.256831 
-0.255677 0.195344 -0.209622 
-8.49862e-19 -5.64551e-18 1 

-0.258225 2.41118 -0.586315 
0.00203401 0.356147 0.65613 
5.03045e-18 -1.03788e-16 1 

-0.00964597 -0.0222747 -0.00758446 
0.000191979 -0.0800107 0.00568643 
3.01149e-18 -7.57578e-18 1 

-0.0689279 -0.0331537 0.0534746 
0.0243934 -0.0670574 -0.102899 
6.47255e-18 -9.70883e-18 1 

-0.0553467 0.0103717 -0.158363 
4.02706e-05 -0.0778963 -1.64586 
-9.06263e-19 5.08155e-18 1 

-0.0391183 0.0100932 0.0722961 
0.00474723 -0.0434539 -0.0157437 
-1.00949e-17 -5.8927e-18 1 

-0.0465807 0.0266267 -0.00766805 
0.00407053 -0.0713101 0.246463 
8.58391e-18 -3.58244e-18 1 

-0.176857 0.0644225 0.425495 
0.0336333 0.0607338 -1.68388 
-6.38738e-18 -5.11978e-18 1 

-0.0786499 -0.0357677 0.0658753 
-0.00983572 -0.0448286 0.182007 
-9.05363e-18 2.16259e-18 1 

-0.0463684 0.0106726 -0.20299 
0.0385634 -0.000327617 -0.180004 
-3.26451e-18 -1.58146e-18 1 

-0.0681852 0.0186085 0.0209751 
-0.01029 0.110121 -0.377635 
-2.90323e-18 1.93627e-17 1 

-0.0621945 0.013524 -0.0901775 
-0.00813135 -0.0442566 0.0697003 
1.09588e-18 -1.06778e-17 1 

-0.353616 0.276154 0.0117996 
0.143791 0.0880947 0.155322 
1.63203e-17 -4.89077e-18 1 

-0.153475 0.00684187 0.0731825 
-0.089698 0.0955177 0.0567911 
8.82446e-18 1.12924e-17 1 

-0.0272595 0.0125072 0.0123644 
-0.0391514 -0.0761459 0.0494077 
6.15749e-18 -7.08533e-18 1 

-0.0460892 -0.0283835 -1.85753 
0.0252996 -0.0428992 0.437891 
2.96321e-18 3.69142e-19 1 

-0.0800942 -0.0288576 -0.00314146 
-0.0118969 -0.0363656 -0.0812515 
7.90346e-19 -1.77993e-17 1 

-0.0712579 -0.00217395 -0.0243421 
0.0320398 -0.0549446 0.418032 
-1.99293e-18 1.20208e-18 1 

-0.0836715 -0.0127763 -0.109562 
-0.0369591 0.0116488 -0.139587 
4.26518e-18 -9.79364e-18 1 

-0.047767 -0.0213679 1.13654 
0.0127027 -0.0863663 0.165392 
2.23781e-18 4.2461e-19 1 

-0.0714262 0.0061693 0.219939 
0.0339434 -0.0620402 0.0463199 
9.90523e-18 -9.80205e-19 1 

-0.270769 0.0783596 0.0877342 
-0.0149396 -0.0237848 0.0716175 
2.18955e-17 -5.3952e-18 1 

-0.0239112 0.00984014 -0.577589 
-0.0624757 -0.0622419 0.30863 
-1.06986e-18 -9.183e-18 1 

-0.0692943 -0.000529507 0.012875 
0.00757722 -0.0914096 0.0356124 
7.41973e-18 3.06122e-18 1 

-0.0803577 0.0288035 0.261085 
0.0288668 -0.0926114 -0.340989 
1.79568e-18 1.22705e-18 1 

-0.0643724 0.0549998 -0.28451 
0.0339017 -0.0868289 -0.0438208 
-2.67766e-18 -8.85382e-18 1 

-0.0228349 0.0629819 0.674943 
0.0484929 -0.106321 -0.936963 
-2.44502e-18 -4.83911e-18 1 

-0.0381818 0.0175481 0.0456977 
0.00449713 -0.127679 0.00479271 
-4.28722e-18 -6.48658e-19 1 

-0.0300601 -0.0552774 0.365946 
0.123025 -0.0313575 0.568263 
2.58817e-18 -7.49748e-18 1 

-0.0495571 0.0446101 -0.141032 
-0.0394213 -0.00641165 -0.0926319 
-7.0673e-18 1.19688e-18 1 

-0.0421679 -0.026696 -0.798203 
0.0172749 -0.0298257 1.29042 
-2.17857e-20 -3.65999e-18 1 

-0.0750704 0.0365522 0.0383274 
0.0696083 -0.0447584 0.208107 
2.12222e-17 -1.39927e-17 1 

-0.0428803 -0.000572316 -0.0150715 
0.0564918 -0.0704229 -0.138914 
-4.69925e-18 1.64001e-18 1 

-0.0771214 0.0840162 0.0309471 
-0.0148561 -0.0230501 0.15229 
-3.96126e-18 2.08946e-18 1 

-0.0545126 0.0284556 -0.0972271 
-0.0410335 -0.0208386 0.183467 
1.05078e-17 1.95624e-18 1 

-0.14083 0.0347034 -0.139008 
0.0476716 -0.115102 -0.16647 
1.1011e-17 -4.89289e-18 1 

-0.132452 0.0580919 -0.0168697 
-0.0937986 -0.0313581 0.234559 
9.21428e-19 -2.92904e-18 1 

-0.05396 0.0192635 0.0874939 
-0.0258667 -0.0127215 -0.0552174 
7.75283e-18 -6.33808e-18 1 

-0.075645 -0.0155601 -0.127212 
-0.0148995 -0.0148888 -0.0301517 
-3.14821e-18 -1.32225e-17 1 

-0.0482628 0.00963222 2.6611 
-0.00450627 -0.0726991 -0.257206 
1.64183e-18 -4.40343e-18 1 

-0.0539678 0.0136205 -0.315827 
-0.0205061 -0.127977 0.152175 
1.00594e-18 3.19975e-18 1 

-0.0493095 -0.0256204 -0.0164081 
0.0084641 -0.0423429 0.0283485 
-4.30693e-19 -2.12715e-18 1 

-0.112244 0.0654029 -0.136185 
-0.0196953 -0.0114617 0.579364 
1.95615e-18 4.86763e-18 1 

-0.0448594 -0.0155253 -0.0718357 
-0.0106983 -0.0467675 -0.1866 
5.87491e-18 -6.48688e-18 1 

-0.0462861 -0.0120963 -0.246112 
-0.00395226 -0.0702395 1.93717 
-3.47218e-18 -3.96635e-19 1 

-0.0634709 0.00938228 0.1049 
-0.041838 -0.00410226 0.00843669 
-8.97143e-18 -3.975e-18 1 

-0.149723 -0.00483507 0.168488 
0.0315494 0.0772168 0.0100205 
-1.96894e-18 -9.28051e-18 1 

-0.0390421 0.0187144 -0.0905089 
0.0128044 -0.0362727 0.575076 
7.06241e-18 1.73992e-18 1 

-0.298381 0.199552 0.338996 
0.0713065 -0.0390633 -0.077113 
-6.10621e-18 -1.91226e-18 1 

-0.0868714 0.0197675 0.133698 
-0.1101 0.0177631 -0.152234 
5.4593e-18 -6.42984e-18 1 

-0.0656707 0.00788532 -0.0991329 
-0.00591924 0.0204392 -0.184148 
-4.39497e-18 1.13537e-17 1 

-0.171717 0.0436338 -0.563558 
0.152804 0.0682629 -0.038162 
-5.28231e-18 -1.27386e-17 1 

-0.0475304 0.0098181 -0.287991 
0.0510364 -0.0443615 -0.412442 
5.78586e-19 3.85724e-18 1 

-0.0728037 -0.0231689 -0.0396732 
0.0169488 -0.0553038 0.126414 
5.76093e-18 -5.43098e-18 1 

-0.0318124 -0.0297419 0.152267 
0.0044222 -0.0721612 0.197532 
6.41565e-18 1.06388e-17 1 

-0.073392 -0.0103372 0.0950167 
0.00691814 -0.046045 -0.225926 
-2.2389e-18 -1.59554e-18 1 

-0.0448873 -0.00758638 -0.130942 
0.0499384 -0.0458083 0.0106521 
1.01814e-17 -3.88314e-18 1 

-0.032778 -0.015578 -0.0222959 
0.0154906 -0.0508132 -0.0843564 
1.76569e-17 6.68897e-18 1 

-0.0416104 0.00258794 -0.192875 
0.00266952 -0.0303566 0.0696682 
-7.98104e-18 1.90147e-17 1 

0.0111749 -0.0702767 -0.123653 
0.0366554 -0.00455233 -0.160353 
1.21617e-17 -2.54886e-18 1 

-0.238351 -0.308098 -0.00746932 
-0.00346376 0.217336 -0.239574 
-1.94494e-17 1.61916e-17 1 

-0.189455 -0.0115567 0.246436 
0.0567199 -0.104021 0.0272785 
-1.09608e-17 -1.80981e-17 1 

-0.0420369 -2.51169e-05 -0.582492 
0.0236328 -0.0885724 -0.0856038 
-1.7127e-19 3.12568e-18 1 

-0.0484388 -0.00301345 -0.0181075 
0.0301151 -0.0637404 0.16999 
-7.74838e-19 -1.00729e-17 1 

-0.00707427 0.0677685 0.0459939 
0.0544095 -0.0384638 0.243349 
-1.12273e-17 -1.5172e-19 1 

-0.0406259 -0.00555251 -5.50145 
-0.00476634 -0.0363626 1.32871 
6.21892e-18 -3.06525e-18 1 

-0.135445 0.0262566 0.210717 
0.0228275 -0.00997009 -0.259442 
-9.00741e-18 3.42146e-19 1 

-0.0570442 -0.05257 0.418309 
0.0165197 -0.0638552 0.0681129 
3.65292e-18 2.63033e-18 1 

-0.0481213 0.00475322 0.366569 
-0.00151247 -0.037041 -1.13433 
1.03376e-17 -2.42277e-18 1 

-0.0504355 -0.0245287 0.0798087 
0.00655807 -0.0730058 0.0101101 
4.04538e-18 4.6859e-18 1 

-0.0984124 -0.0647299 0.0988178 
0.00421491 -0.0141659 -0.0684326 
-3.71572e-18 9.94777e-18 1 

-0.0898422 -0.0557225 -2.89161 
0.0120338 0.00592301 -2.21821 
6.52618e-18 -5.9682e-18 1 

-0.0510609 -0.0187652 -0.522625 
-0.0197334 -0.0508609 -0.238292 
3.1597e-18 1.99644e-18 1 

-0.108063 -0.0015751 0.358476 
-0.0296152 0.0613469 -0.513497 
-1.39245e-18 4.85379e-18 1 

-0.174864 0.048692 -0.0885538 
0.054384 -0.072195 -0.177012 
-2.63751e-18 9.41969e-20 1 

-0.101535 -0.0128015 -0.866318 
-0.0161396 0.0214215 7.04641 
-7.62349e-19 7.84131e-19 1 

-0.0773821 -0.044254 -0.119388 
-0.00875383 -0.0885474 0.176557 
7.25041e-18 1.19509e-17 1 

-0.0360727 -0.0415527 0.372011 
-0.00188424 -0.000811292 0.334054 
6.18078e-18 5.97501e-18 1 

-0.0781384 -0.0666094 -3.68924 
0.00959366 -0.0304683 2.43743 
-2.64083e-18 3.01478e-18 1 

-0.120846 0.0417412 -0.469099 
0.0414938 -0.0317537 -0.467893 
3.66191e-19 -4.91742e-18 1 

-0.350212 0.104737 0.00586242 
-0.0334157 -0.0732167 0.19731 
1.40848e-17 -9.71362e-19 1 

-0.016256 0.00132052 0.0127119 
0.0169177 -0.070015 0.0536489 
-2.00266e-19 -6.55155e-18 1 

-0.0668643 -0.0169418 -0.00989226 
-0.029259 -0.0380117 -0.0815766 
-1.08084e-17 -1.95827e-18 1 

-0.0369278 -0.0572051 0.0826548 
0.0119158 -0.115209 0.348136 
-4.01865e-18 -1.72426e-18 1 

-0.0502705 0.0150846 0.127584 
-0.00926769 -0.0931315 0.294129 
1.18447e-17 5.04817e-18 1 

-0.0295783 -6.70942e-05 0.00539707 
0.00786263 -0.0741436 -0.0441285 
4.5281e-18 2.96577e-18 1 

-0.032311 0.00214782 0.22432 
0.0244877 -0.0446599 -0.0398588 
4.14893e-18 -4.01465e-18 1 

-0.0589203 0.0386143 -0.183007 
0.0833848 -0.0711644 -0.482983 
-5.39359e-18 -3.04254e-18 1 

-0.0959407 -0.016463 -0.496003 
-0.00957214 -0.0176233 0.443353 
1.09623e-17 3.47009e-18 1 

-0.0977724 0.0555332 -0.112051 
-0.0556889 -0.0273813 -0.0194087 
-5.83414e-18 1.02443e-17 1 

-0.0888103 0.0125503 0.0654383 
-0.0399592 -0.0632676 0.0498221 
-1.24148e-17 3.0128e-18 1 

-0.118186 -8.87746e-05 0.081059 
0.0449328 -0.0109681 -0.279003 
-6.05368e-18 7.61034e-18 1 

-0.0656148 -0.00603802 0.0443594 
-0.00486182 -0.0601717 -0.132403 
6.03694e-18 -8.02418e-19 1 

-0.057909 0.0100044 -0.223397 
-0.00752484 -0.0215035 0.0474952 
-8.7687e-18 -6.29582e-18 1 

-0.0760435 0.0577346 -0.0130926 
-0.0363103 -0.0866743 -0.0493907 
5.30273e-18 -2.09378e-18 1 

-0.0214457 0.0842712 -0.382339 
-0.131472 -0.0574403 0.506207 
2.48792e-18 1.20801e-18 1 

-0.07308 -0.00904242 0.0600386 
5.52638e-05 -0.126513 0.0108166 
2.30218e-18 3.55981e-18 1 

-0.0415991 -0.00710242 -0.04497 
-0.0370174 -0.0673889 0.0211151 
7.06328e-18 -4.04239e-18 1 

-0.0477218 -0.0107559 1.27375 
0.0240616 -0.0913394 -0.390559 
-1.80285e-18 7.21141e-18 1 

-0.10384 -0.0413183 0.145536 
0.0936231 0.00264163 -0.178001 
8.62726e-18 -1.17371e-17 1 

-0.066458 0.0119266 0.0504783 
-0.0738378 -0.0621311 0.140676 
4.04976e-18 2.0902e-18 1 

-0.0737469 0.0228174 0.401165 
-0.0283799 -0.0737374 -0.109495 
5.08635e-18 -1.47236e-19 1 

-0.108256 -0.10783 0.120051 
0.0775014 -0.00699286 0.0192231 
-1.78778e-18 -1.8206e-17 1 

-0.0853555 -0.0200515 0.397519 
0.0236487 -0.0758024 0.180381 
-6.58681e-18 -1.38836e-17 1 

-0.167572 0.0745895 0.301663 
0.0252495 -0.0502054 -0.343405 
-1.35971e-17 -7.62577e-18 1 

-0.0856032 -0.0859973 -0.212957 
0.077706 -0.0258232 -0.124922 
-8.00887e-18 -2.66333e-18 1 

-0.0613723 -0.0707613 -0.0994237 
0.024007 -0.0682344 -0.0407569 
-6.74578e-18 -6.1694e-18 1 

-0.212815 -0.0818548 0.36698 
0.0676517 -0.00475563 0.0959621 
-2.19307e-18 -2.37943e-17 1 

-0.158941 -0.0973711 -0.168836 
0.00148903 0.0575687 1.03063 
-4.04085e-18 -4.48983e-19 1 

-0.125786 0.0556293 -0.153408 
-0.0498125 -0.0896266 0.288988 
-1.10952e-17 1.22735e-17 1 

-0.0679727 0.00270378 0.0672521 
0.00314856 -0.0293648 -0.30518 
-3.33198e-18 -3.64194e-18 1 

-0.0527308 0.0093521 -0.218124 
0.00759589 -0.0875487 -0.192796 
3.17713e-18 -5.86546e-18 1 

-0.0375664 0.00619569 0.246118 
-0.0246026 0.0134433 0.0227909 
-6.88375e-18 1.54517e-19 1 

-0.0529987 -0.0284649 -0.0204714 
-0.0373142 -0.0815004 0.25078 
-5.11232e-18 1.22009e-17 1 

-0.105336 0.0166701 -0.241068 
0.0228212 -0.0112934 -0.478598 
-1.2828e-17 -6.50768e-18 1 

-0.0326422 -0.0390756 0.0463998 
-0.000327859 -0.0974848 -0.203181 
5.58602e-18 -3.36833e-18 1 

-0.0340957 -0.0200361 0.0438845 
-0.0266401 -0.0490048 0.0282701 
-1.09304e-17 -4.73233e-18 1 

-0.200201 0.0413517 -0.125233 
-0.0399246 -0.00860239 0.0956496 
-1.15863e-17 2.96738e-18 1 

-0.0710465 -0.0830038 0.031766 
0.0026077 0.0201241 -0.175253 
-3.21741e-19 1.86609e-17 1 

-0.0554917 -0.00460924 0.201787 
0.0322584 -0.0761543 -0.0304196 
-5.12547e-18 -1.59459e-18 1 

-0.0367905 0.00944721 -0.0759947 
-0.0546191 -0.0332727 -0.22874 
4.57954e-18 2.34811e-18 1 

-0.0845091 -0.0141252 -0.336326 
0.0280847 -0.0285048 -0.398134 
4.07231e-18 -1.6793e-18 1 

-0.0519899 0.00891435 0.0014829 
0.0386307 -0.000949741 -0.138582 
-3.97981e-18 -8.67395e-19 1 

-0.172816 -0.00770859 0.396774 
0.0403821 0.00583258 -0.0368817 
3.10495e-18 -2.8268e-18 1 

-0.0530468 -0.0179079 -0.037803 
-0.0512444 -0.00418497 0.0127391 
-1.05731e-19 -4.96937e-18 1 

-0.0350534 -2.65405e-05 0.202456 
-0.0638079 -0.0322211 -0.126763 
6.3577e-18 1.84817e-19 1 

-0.0888291 -0.0130681 -0.0135771 
0.0202789 -0.0568134 -0.505807 
2.56777e-18 -1.07113e-17 1 

-0.0119079 0.0221995 0.150499 
0.0830057 0.0216551 0.258056 
8.0399e-18 6.00515e-18 1 

-0.0462614 0.000648966 2.26495 
-0.0223027 -0.0359898 -2.49251 
2.65441e-18 -4.37978e-19 1 

-0.0828214 0.04411 0.119828 
-0.00182986 -0.0175632 -0.19346 