# vtk DataFile Version 3.0
Output file generated by Yade's KinematicLocalisationAnalyser
ASCII
DATASET UNSTRUCTURED_GRID

POINTS 13483 float
577.312 44.7422 -0.470671
691.53 80.0969 0.453399
118.119 6.08476 -0.439882
714.434 4.24475 0.340692
492.77 8.23021 -0.43242
312.001 39.4653 0.545482
154.232 7.03285 0.444832
547.59 18.3503 0.148394
487.52 27.22 0.139719
655.594 16.4607 0.610305
207.859 8.95019 -0.0958584
254.314 6.39582 -0.250811
606.017 44.7216 0.170786
596.389 15.6673 -0.201614
135.242 17.906 0.558713
218.642 35.3521 0.205585
215.224 12.9842 -0.295228
286.169 9.60306 0.417948
336.167 34.4858 0.452159
516.489 8.35355 0.363116
406.729 38.7083 -0.123312
567.631 62.9268 -0.276403
709.616 52.124 -0.459489
647.9 69.4846 0.463314
453.625 16.7174 0.326156
238.795 44.8082 0.13308
482.304 30.2951 -0.448134
561.885 30.244 -0.261607
44.1925 16.0946 0.46491
651.881 38.8315 -0.344644
477.015 4.66657 0.404191
16.2661 23.9527 -0.297467
700.635 69.4949 0.266838
489.467 2.2537 0.629431
76.8623 45.1149 -0.101201
506.432 33.8338 0.343269
521.963 16.5593 -0.537179
339.345 22.7409 0.176868
517.43 33.8094 -0.317605
346.185 34.7856 0.525093
238.471 14.6731 -0.369341
429.11 38.261 0.0771805
627.071 23.2853 -0.145299
190.024 6.25843 0.34286
54.3482 7.14714 -0.105588
67.3267 8.8226 -0.265016
630.267 10.7898 -0.691306
22.9981 11.4542 0.307864
588.527 72.2238 0.0264217
628.541 43.8013 0.359632
170.221 33.1755 -0.312426
681.813 70.2415 -0.113724
34.4315 28.9206 -0.107667
526.657 2.91011 0.368965
140.343 7.39973 -0.495356
574.605 54.0428 0.376256
489.791 35.3866 -0.1226
172.674 0.950474 -0.269534
32.3798 2.35006 0.334443
344.767 18.0073 0.274128
602.219 75.539 0.132134
458.503 33.0984 0.197032
395.404 1.03065 0.20113
639.192 8.13619 0.362312
26.0662 43.7212 0.237881
254.487 30.8251 -0.314981
656.981 9.4156 0.566595
617.077 72.2781 0.347163
413.628 8.86378 -0.498872
545.602 6.37998 -0.351957
673.636 58.6766 0.35676
129.069 7.74069 -0.269964
489.658 28.5971 -0.138625
472.669 14.6611 -0.142689
292.186 16.4972 -0.38668
20.4482 13.6281 -0.303475
698.608 58.2541 0.371403
328.725 40.2484 -0.321099
627.117 40.3154 0.348888
631.146 18.0138 0.265374
705.263 22.3207 -0.320516
460.678 36.2926 0.188829
91.2629 38.8991 -0.282069
634.612 68.5938 0.242776
599.597 57.0226 -0.116317
713.57 56.2431 0.109022
708.152 0.590447 -0.502555
289.412 30.0472 0.422294
587.473 6.36884 -0.226464
24.025 5.20282 0.562022
132.023 39.628 -0.151213
506.791 15.0514 0.226796
695.011 45.5738 -0.529956
193.525 29.2342 0.259452
44.0856 35.9535 -0.275237
488.301 1.20502 0.122593
233.859 8.75295 -0.421661
665.9 79.383 -0.24179
687.945 52.8938 0.237211
357.787 20.8338 -0.279053
162.141 27.5659 -0.443856
529.696 54.3572 -0.423236
377.46 15.8162 -0.425465
410.23 31.2252 -0.0993585
375.334 4.84658 0.4991
529.556 20.212 0.150264
717.182 13.9046 0.258352
79.1779 39.8665 -0.413822
332.711 4.95602 -0.226715
542.348 19.1912 -0.466793
357.363 45.4795 0.453491
24.6931 25.5277 -0.449013
30.1173 5.69484 0.346677
549.379 45.8941 0.400227
496.81 25.1859 -0.144326
25.5404 37.5213 0.422041
92.2379 31.3645 0.213891
323.361 16.4324 -0.27839
571.142 21.7722 0.184741
472.189 40.9187 -0.170257
671.054 7.40559 -0.569051
663.549 8.21225 -0.304977
384.735 37.1779 0.0958294
597.663 30.8485 0.116187
237.068 17.0401 0.562188
328.186 3.88158 0.464472
102.724 31.812 -0.355472
115.42 24.8598 0.287018
524.76 54.3119 0.0742304
304.424 18.9477 0.475575
644.238 45.7416 0.130618
621.251 74.0708 0.106209
476.688 21.1312 -0.375497
684.433 29.2717 0.320997
425.721 25.6975 0.22056
277.068 24.3616 0.316466
625.97 59.7284 0.271078
278.491 29.1475 0.389875
556.801 21.611 -0.239005
329.554 36.843 0.198287
500.731 12.439 0.535633
364.438 32.5415 0.0889465
428.823 17.0813 -0.0970916
316.677 45.7163 0.457909
189.66 30.8446 0.11655
692.699 75.6035 0.143779
714.18 16.3077 -0.309648
6.00261 12.4054 0.417622
432.656 23.0954 -0.446738
37.7099 23.179 0.0828012
374.978 31.5344 -0.469149
395.381 25.1657 -0.242207
73.9804 11.827 -0.503643
50.8051 36.0698 0.548883
225.385 13.6326 0.41193
580.501 38.2761 -0.494923
557.887 33.9302 -0.446456
73.7979 21.0535 -0.492187
650.498 67.6284 0.42155
695.023 4.08771 -0.534527
613.764 64.5595 0.461322
634.525 1.98599 0.595844
535.185 40.284 0.393721
569.114 63.5526 0.438811
510.777 18.8324 -0.348753
711.788 3.50413 0.408553
223.766 26.206 -0.105578
127.6 36.6157 0.189412
247.246 6.82748 0.406344
93.7691 4.55558 -0.251597
63.6486 10.0898 0.242219
276.519 37.3264 -0.367189
17.1021 26.1599 -0.357312
541.489 30.575 -0.396092
589.944 67.4301 -0.214228
462.989 21.483 -0.364947
717.68 77.2468 0.345332
406.853 8.7431 -0.143466
435.494 37.7855 -0.373759
534.912 3.63798 -0.362533
22.7869 24.5236 0.413431
553.753 8.22239 0.596244
542.56 5.71481 0.298041
206.224 11.365 0.47951
424.96 16.3907 -0.271213
312.063 6.58884 0.341451
388.495 18.918 -0.350074
662.719 67.7276 0.114239
192.295 26.1341 -0.417732
697.882 16.0948 -0.535795
666.265 66.2547 -0.315461
383.669 10.5349 0.188068
655.863 2.39281 -0.512298
574.501 32.7448 -0.512656
676.454 18.1212 -0.44797
431.614 44.9959 -0.283057
495.416 13.2336 0.441366
464.444 46.1667 0.220112
446.09 9.19975 -0.189823
617.433 65.4197 -0.272707
616.63 61.0542 -0.371208
192.228 39.7967 0.353847
703.087 22.6486 -0.155752
571.098 64.8378 -0.24491
11.5607 17.1022 0.29507
408.755 25.9607 0.325197
187.508 23.5543 -0.416317
92.932 39.8526 -0.209819
693.217 43.7379 -0.395716
609.103 69.4457 -0.333103
319.985 26.8739 0.354457
532.169 9.8882 0.330213
81.9547 44.8398 -0.179124
248.405 26.1313 -0.473528
542.484 36.2945 0.373942
486.672 19.3405 -0.445217
263.711 0.881866 -0.341893
539.383 55.7866 0.36371
517.481 54.75 -0.450887
484.275 39.6359 0.399657
499.177 1.93882 -0.665586
643.309 20.3619 0.370884
179.435 12.5805 -0.203229
501.435 51.7374 0.444104
549.946 53.522 0.111237
72.7931 0.954063 0.27171
252.537 4.82834 0.179089
714.178 19.862 0.201749
705.57 24.3145 -0.451163
719.09 19.1929 -0.667341
304.645 8.72514 -0.233767
670.022 34.4118 -0.39243
408.153 44.3337 -0.359054
450.281 0.858499 0.517338
605.283 57.0573 -0.541881
26.259 31.0788 0.303321
330.988 42.8054 0.621114
253.386 2.96601 0.357932
703.43 66.1816 0.228397
653.438 61.2538 0.240024
288.623 10.9368 0.271799
620.69 53.2993 0.0864276
545.146 4.04852 -0.4945
540.402 8.60928 0.537213
96.6333 18.7321 0.494211
304.59 1.11293 -0.234264
343.871 2.26078 -0.365539
13.8153 7.67807 0.457944
3.95767 32.2909 0.252193
161.951 19.3085 0.416056
68.186 43.0343 0.223194
65.4369 30.1933 0.334707
424.788 14.5132 -0.43843
367.777 35.7827 -0.479535
678.853 75.0556 -0.111666
19.36 3.96643 -0.277176
70.4033 6.89188 0.138433
588.282 43.1641 -0.167037
296.049 0.922951 0.387228
365.983 16.1696 -0.134864
236.522 4.73707 -0.342934
608.389 34.234 0.182988
453.101 8.79752 0.448152
680.783 22.2365 -0.417292
597.454 34.9897 -0.367231
626.211 38.4889 0.0785482
420.439 27.7807 0.458576
102.2 45.6714 -0.314139
528.244 58.1234 0.0608524
674.93 12.9444 0.344805
238.537 30.943 0.242166
31.6245 17.7305 0.199923
337.186 14.0064 0.504044
107.918 41.2971 -0.469792
269.41 42.9953 -0.221777
427.479 1.67994 -0.362127
695.848 49.5551 0.417344
628.115 2.24284 0.600477
333.203 3.4347 0.58489
301.653 28.2769 0.152368
463.689 43.0493 0.261001
81.4536 8.29308 -0.468747
198.708 45.8595 -0.384876
688.616 57.527 0.353517
495.977 51.459 0.0797101
200.888 41.6095 -0.278755
161.365 43.3733 0.394589
720.434 48.0011 0.440996
715.931 15.0886 -0.4545
579.883 3.2246 -0.680922
190.998 24.8418 0.0903832
537.053 40.9066 0.110376
539.1 41.3106 0.262962
411.431 5.88038 -0.147345
483.374 0.947857 0.411096
679.901 80.1896 -0.511272
84.5624 31.2218 0.210193
612.636 34.3873 -0.473581
276.149 15.7722 -0.362883
9.27149 2.40433 -0.321186
126.244 38.3665 0.183434
65.3964 23.8193 0.441138
640.824 56.1714 0.317279
708.232 73.6319 -0.21327
186.264 29.3932 0.173988
714.07 22.2365 -0.334024
45.1414 38.1192 0.239376
91.0207 29.6956 0.165997
605.077 15.4492 0.381831
416.177 17.6532 -0.556633
520.219 16.6576 0.134158
238.946 28.9864 -0.178109
594.558 4.45971 -0.486293
719.091 14.3947 0.422876
29.5153 32.2122 -0.264965
271.889 7.71568 0.205213
223.085 15.4026 0.264626
1.08868 37.3285 0.0363139
226.391 14.7074 -0.366887
212.73 11.0964 0.116588
215.319 26.4826 -0.291003
132.966 29.7197 -0.120853
535.143 26.5506 -0.321712
167.351 14.6235 -0.333639
697.943 69.3739 0.244856
174.596 3.86719 0.505971
46.7924 40.8337 -0.354654
656.476 75.2302 -0.435045
283.149 32.8763 -0.405465
634.138 42.2434 0.519459
700.36 51.5959 -0.50859
302.693 9.34263 -0.0971818
666.562 45.9813 -0.387343
330.184 2.4901 -0.444045
418.503 24.2565 0.369037
632.906 36.5306 0.462687
105.602 11.991 0.441259
485.374 3.85868 -0.514759
679.693 26.9801 0.1891
88.283 7.73709 0.243625
283.861 14.7683 0.216076
425.791 11.8548 -0.200261
711.144 5.25104 0.61237
400.365 1.99804 -0.532894
177.454 40.0825 0.341587
677.96 10.868 -0.349168
129.481 37.6135 0.184902
265.74 31.765 -0.373465
402.933 22.2778 0.211061
559.182 24.1268 0.353141
389.418 9.88333 -0.530295
459.838 27.8759 -0.447513
690.842 78.6881 0.428213
47.5369 11.7546 -0.187173
301.51 40.4382 -0.280657
382.001 26.3682 -0.426474
412.286 21.0517 -0.270052
506.036 51.1124 0.366539
673.308 80.6531 0.235212
622.388 62.7533 0.34371
226.726 35.9631 -0.385609
11.8634 33.137 0.151503
614.833 60.4111 0.164603
510.648 57.8168 0.401615
230.943 40.4903 0.112773
631.527 60.6151 -0.102061
151.489 9.39442 0.243721
368.617 21.2868 0.285345
465.349 44.1984 -0.123179
416.243 19.5232 -0.212254
690.369 84.1486 0.290995
428.839 3.92136 0.543952
49.6053 26.3549 -0.305859
473.773 34.8188 0.323838
437.911 42.6165 0.356972
699.238 62.6332 -0.218771
665 39.4339 0.246188
529.92 30.575 -0.127458
690.219 68.6606 -0.433789
295.666 2.19495 -0.476578
380.963 29.0149 0.441513
28.6979 39.3047 0.303558
670.509 51.1023 0.183504
582.442 21.4412 -0.542902
465.251 0.769622 -0.495774
126.286 4.66991 0.342692
429.464 42.6358 -0.114568
11.6456 0.920739 0.315113
710.328 7.94366 -0.129914
372.096 39.6381 -0.402377
584.443 7.8805 0.57329
[...]
POINT_DATA 13483
TENSORS Strain_matrix float
-2.96794 0.967112 8.48602 
-1.76398 1.20931 5.36005 
1.06929e-17 -3.65707e-18 1 

-1.88557 0.303138 42.9442 
-0.089419 0.578089 0.825127 
-5.20992e-18 -2.43933e-18 1 

-0.192584 -0.00669009 -0.112122 
0.0576231 0.0447938 -1.22723 
6.52071e-18 4.05079e-18 1 

-1.25857 -0.432444 0.423271 
0.109718 0.361265 0.113283 
1.83635e-17 6.4899e-18 1 

-0.49859 -0.207931 0.216289 
-0.011212 0.0739211 0.199619 
-1.12118e-19 3.50622e-18 1 

-0.349956 0.0999596 7.78895 
-0.0703533 0.165678 3.87708 
6.19909e-18 1.11491e-17 1 

-0.120445 -0.00580965 -0.0622881 
-0.0125242 -0.0786584 -0.124954 
3.44763e-18 3.76654e-18 1 

-0.261524 -0.00507155 -0.172064 
0.116595 0.110702 0.241512 
-8.20492e-18 -1.76175e-17 1 

-0.666003 -0.317272 1.37888 
0.118162 0.439174 -0.294466 
-1.12974e-17 -6.73167e-18 1 

-0.609576 -0.183887 1.53526 
0.462712 0.181779 -1.51703 
-2.51666e-17 -8.94215e-19 1 

-0.0956719 0.00307895 0.0920974 
0.0240217 -0.0672909 -0.0379178 
-1.6571e-17 9.80884e-19 1 

-0.115993 -0.0498423 0.203091 
-0.0673842 -0.0821309 0.0770925 
-3.47176e-18 9.89365e-18 1 

-0.794694 0.977414 1.97824 
0.41336 -0.0660002 -0.641044 
-1.40073e-17 -8.47501e-18 1 

-0.398815 -0.129783 0.332071 
0.124805 0.0287517 0.0228851 
5.71003e-18 -4.13838e-18 1 

-0.175476 -0.00726002 0.259062 
-0.00150859 0.00233107 3.14361 
-8.11177e-18 -3.81949e-18 1 

-0.119999 -0.0689695 0.539572 
0.15174 0.0230036 -0.329478 
1.0021e-18 1.20252e-18 1 

-0.0973294 -0.0176033 -0.0352007 
-0.0171703 -0.101545 -0.0221194 
1.87492e-17 -3.71129e-18 1 

-0.194893 -0.0061466 0.0280842 
-0.00522528 -0.0786824 0.0262907 
-9.97339e-18 8.25071e-18 1 

-0.197368 -0.159294 0.0141183 
-0.0317052 -0.0709365 -0.20919 
4.21347e-19 5.05616e-18 1 

-0.11948 0.104397 0.212849 
-0.210965 -0.0726033 0.502291 
8.34231e-19 1.90309e-18 1 

-0.200956 -0.0160451 0.187762 
-0.00045759 0.0485321 -0.0263381 
-1.14208e-17 6.46593e-18 1 

-0.188085 -0.159102 -2.09262 
0.191297 0.350325 -1.40918 
-1.16534e-18 1.64207e-18 1 

-0.93378 -0.324563 0.251499 
-0.425156 0.309386 1.29982 
6.5265e-18 1.65768e-18 1 

-1.41683 1.2767 -69.5866 
-0.536457 0.989815 27.4564 
-2.49387e-18 -3.8605e-18 1 

-0.122142 0.0223614 -0.0713508 
-0.0271242 0.00972578 0.151853 
7.19824e-18 -7.50686e-18 1 

-0.220297 0.136056 -0.028748 
-0.11574 0.0700263 -0.0457567 
3.58018e-18 2.29499e-18 1 

-0.549806 0.210837 -6.74166 
0.00824397 0.305702 0.714096 
2.88045e-18 1.8488e-18 1 

-0.42174 -0.480899 0.583631 
-0.255426 0.153801 0.562713 
2.52394e-18 1.44852e-17 1 

-0.0781934 0.00913338 0.0897397 
0.084078 -0.0914252 1.14281 
1.2766e-17 -7.88851e-19 1 

-0.585923 -0.821033 0.484254 
0.213906 0.238106 0.101729 
-1.80752e-17 1.81262e-18 1 

-0.116943 -0.0257151 -0.246761 
-0.0205222 -0.177699 0.263086 
3.88604e-18 8.09404e-18 1 

-0.234965 0.209455 -0.727858 
0.0664083 0.0858421 -0.316247 
-8.36388e-18 7.95918e-19 1 

-0.155514 0.396163 -1.76269 
-0.396601 0.134172 1.2882 
-1.33147e-17 8.69665e-18 1 

-0.265817 0.0369548 -1.93218 
0.0243178 0.072146 -1.57486 
-1.75821e-17 8.15039e-18 1 

-0.105328 0.0704873 0.0898498 
-0.102365 -0.0963945 0.389501 
8.86881e-18 -1.78072e-17 1 

-0.0751153 -0.700906 -0.619756 
0.415084 0.18738 -0.674661 
9.43397e-18 5.3989e-18 1 

-0.405437 -0.0450048 0.772249 
-0.0387916 0.157871 -2.608 
-2.76734e-18 -2.81226e-18 1 

-0.0865149 0.12491 0.684397 
-0.078234 -0.0561048 -0.0519303 
-9.87951e-18 2.04503e-19 1 

-0.208312 0.197501 -2.21815 
-0.168156 -0.0648931 0.252294 
1.19955e-18 4.20524e-18 1 

-0.153371 -0.0224059 0.919504 
-0.0243759 0.0281442 2.50525 
-2.57238e-18 -1.25979e-18 1 

-0.14229 -0.0116414 -0.130477 
-0.0625081 -0.0733976 -0.376829 
1.90031e-18 7.42149e-18 1 

-0.0804997 0.0984895 0.145246 
-0.13776 -0.0114718 0.166815 
1.20345e-18 4.36252e-18 1 

-0.905253 -0.00619193 -0.183604 
-0.618859 0.267143 -0.264739 
1.30854e-17 -2.3951e-18 1 

-0.124759 0.0129149 0.34085 
-0.0473246 -0.063103 0.930364 
9.71649e-19 1.30339e-17 1 

-0.107815 0.0833148 -0.0574736 
-0.0774495 -0.0594601 0.160938 
-4.73765e-18 1.67869e-18 1 

-0.0896127 -0.0144345 -0.0533995 
-0.0297257 -0.0403738 -0.163877 
-6.25549e-18 8.26997e-18 1 

-0.878442 0.081336 -105.634 
-0.365939 0.258259 31.2893 
2.60135e-18 1.13125e-17 1 

-0.0856191 0.0297058 0.040818 
-0.0883132 -0.154026 0.00197878 
2.01534e-17 -7.93369e-18 1 

-0.0222496 -0.252095 -0.03022 
0.276837 0.0236737 0.0917725 
-4.9692e-18 2.92306e-18 1 

-0.281944 -0.516696 -2.57095 
-0.0471178 0.00778787 -0.858948 
-9.13569e-18 6.04664e-19 1 

-0.0277628 -0.172905 0.655813 
-0.0181804 -0.0340419 -0.255631 
1.02498e-17 9.85251e-18 1 

-2.96106 -1.48497 -12.5962 
-0.106629 0.590092 0.175509 
-6.04832e-18 3.8306e-18 1 

-0.0783393 0.0584097 0.242682 
-0.00584665 -0.00255098 0.0657358 
-1.42709e-18 3.15691e-18 1 

-0.15869 0.0683221 0.107183 
-0.0402172 -0.0516369 0.0028439 
9.82405e-18 6.03367e-18 1 

-0.163361 0.024685 0.253877 
-0.00248922 -0.0613164 0.230717 
-9.18884e-18 -5.0697e-18 1 

-0.612264 0.109318 -11.475 
0.318598 -0.0212045 -1.71849 
-2.95308e-18 -1.11859e-18 1 

-1.16091 1.47504 1.2401 
0.104064 0.634361 0.516832 
6.06703e-18 3.50474e-18 1 

-0.0973505 -0.0469352 -0.214258 
0.00354689 -0.0943022 -0.190012 
1.23781e-17 3.02242e-17 1 

-0.0561079 0.0155635 0.0903993 
-0.0206466 -0.133525 0.0511165 
2.20584e-18 8.2584e-18 1 

-0.105656 -0.00697576 -0.162191 
-0.0665626 -0.0220331 0.0229256 
8.87228e-18 -2.89229e-18 1 

-0.112135 -6.88157 17.1754 
0.0733748 0.309716 -0.55685 
2.04943e-18 5.83029e-19 1 

-0.154317 -0.202727 -1.67894 
0.234636 0.141045 0.90573 
8.07835e-19 -1.13097e-18 1 

-0.116671 -0.0731538 -0.270708 
-0.013347 -0.0498725 -0.134396 
-2.20568e-18 -1.47991e-17 1 

-0.208984 0.0793525 -0.119797 
0.0212609 0.00527862 0.740974 
2.34882e-17 7.78306e-19 1 

-0.244273 0.0460971 -0.0530482 
-0.0281097 0.0852223 0.248473 
2.58035e-18 -1.93526e-18 1 

-0.130288 0.0252931 0.190533 
-0.0383664 -0.0128764 0.0415026 
-2.30253e-18 -3.9472e-18 1 

-0.515261 -0.0455879 0.462485 
0.353083 0.110348 -1.30574 
8.92731e-18 -1.47574e-17 1 

-0.762328 -0.0166352 21.0353 
0.414323 0.541044 1.18494 
-1.05918e-17 1.31532e-17 1 

-0.163058 0.0171467 -0.101353 
-0.0674796 -0.0484731 0.407448 
9.19755e-18 4.0387e-18 1 

-0.61968 -1.55796 0.428 
0.0402954 0.128141 0.549536 
2.0378e-18 1.35854e-18 1 

-4.17182 0.401018 1.7459 
0.782316 0.481284 -1.96142 
9.10931e-18 1.70265e-17 1 

-0.0970395 0.0645031 0.0479672 
-0.0548509 -0.056532 -0.0942064 
-5.52455e-18 8.10944e-18 1 

-0.719503 -0.674034 2.64731 
-0.314189 0.301672 -0.0188867 
2.78646e-18 5.31768e-19 1 

-0.117745 -0.113173 0.035624 
-0.0806074 -0.0466335 0.0688453 
-3.83601e-19 -1.35459e-18 1 

-0.13292 -0.00673737 -0.20473 
0.0171487 -0.0708914 0.272422 
1.183e-17 -7.80855e-18 1 

-0.143046 0.0996559 -0.0164596 
-0.162481 -0.0882172 -0.135538 
1.34422e-17 1.22631e-18 1 

-2.29298 0.363772 -1.21204 
0.109171 0.669674 -0.107879 
8.28259e-18 -7.26293e-19 1 

-0.135682 0.125928 -0.0312858 
-0.126431 -0.0244392 0.372153 
1.57215e-17 -1.0535e-17 1 

-0.214836 -0.329486 0.331661 
0.172249 0.0142311 0.0850697 
-2.97119e-18 4.69522e-18 1 

-0.92972 0.608384 -0.694835 
-0.426925 0.421802 -0.369599 
3.46796e-18 -3.75695e-18 1 

-0.306236 0.0452095 0.447967 
-0.0225423 -0.0416742 0.263243 
-1.49946e-17 -3.74952e-18 1 

-0.117419 -0.282562 -0.373053 
0.309555 0.168974 -0.911459 
1.04767e-17 1.85157e-17 1 

-0.0648349 0.0277901 -0.0631261 
0.0151305 -0.0179246 -0.0854735 
-1.30217e-18 -2.83924e-18 1 

-1.02342 0.704636 0.0825418 
-0.0595186 0.383424 0.118379 
2.08574e-17 -2.30045e-18 1 

-0.132214 -0.985146 0.293042 
0.545058 0.470394 0.552339 
3.18637e-18 -3.98296e-18 1 

-0.556906 0.30267 1.363 
-0.499681 0.463318 -0.219781 
-1.16315e-17 -5.91736e-18 1 

-3.09635 4.9974 0.212832 
-0.00693435 -0.139984 0.0344403 
2.40035e-18 -2.61292e-16 1 

-0.00544128 -0.174545 0.533978 
0.0803026 -0.157451 0.0921578 
3.98325e-18 -8.59544e-18 1 

-0.352994 0.0595122 -0.186265 
0.0650346 -0.010474 -0.110729 
1.36625e-17 -2.61194e-18 1 

-0.146432 0.0365729 -2.0809 
-0.00136516 -0.087958 2.94749 
-1.21114e-18 -9.59564e-18 1 

-0.0853848 -0.114799 0.267069 
0.029622 -0.0933509 -0.355897 
3.98842e-18 -1.12305e-17 1 

-0.23565 0.162681 0.047277 
-0.0117578 -0.0165564 0.357224 
1.70356e-18 -3.30388e-18 1 

-1.06665 -0.268586 6.49775 
-0.314484 0.371246 -3.55283 
-9.81488e-18 7.90289e-18 1 

-0.141606 -0.000989652 0.36293 
-0.0992917 0.0206904 -0.287509 
5.70173e-18 8.89659e-18 1 

-0.0838832 -0.0948104 0.124188 
0.145366 0.0631185 -1.11933 
8.60111e-18 -1.15653e-17 1 

-0.265784 0.34288 -0.108304 
0.00108493 0.173649 -0.114858 
1.02942e-18 2.26998e-17 1 

-0.149882 -0.0155734 -0.438208 
0.0501355 -0.0268282 0.213506 
6.67647e-18 -4.41174e-18 1 

-0.271711 -0.921828 0.171935 
0.74885 0.542958 0.452826 
4.26911e-18 1.04429e-17 1 

-1.89452 0.131042 -3.71003 
-0.00800112 0.619062 0.288273 
4.46677e-18 -9.25754e-18 1 

-0.0355018 -0.120762 -0.0180704 
0.0607951 -0.0770511 0.23426 
2.62712e-17 -5.94332e-18 1 

-0.0864573 -0.0400415 -1.46424 
0.0308531 -0.0193344 -0.807829 
5.68944e-18 -4.84307e-18 1 

-0.115397 -0.11767 0.0510769 
-0.0233401 -0.049291 0.565516 
3.13572e-18 2.97603e-18 1 

-0.133041 -0.00593662 -0.25036 
-0.00441561 -0.032766 0.621585 
1.30234e-17 1.06578e-18 1 

-0.199654 0.0793446 -1.36731 
0.114095 0.240349 -0.212209 
-6.08365e-18 1.04774e-18 1 

-0.196812 0.0406454 0.628523 
0.0105066 -0.0346566 -0.353989 
8.09731e-18 -1.96281e-17 1 

-2.0015 -1.60694 -3.47072 
1.40005 1.05504 2.32743 
8.91871e-18 6.77822e-18 1 

-0.743815 -0.260669 0.236645 
-0.140078 0.172989 0.344464 
-1.31574e-19 9.47332e-19 1 

-0.126303 0.0428813 0.0766427 
-0.134068 -0.00040717 0.611821 
4.62471e-18 7.83048e-18 1 

-0.162063 0.0548996 0.095923 
0.0800193 -0.127146 -0.0942702 
9.91501e-18 1.10211e-17 1 

-0.306021 0.32485 -0.96954 
-0.228998 0.0231727 -1.20871 
1.09233e-17 5.92083e-18 1 

-0.182644 0.0765363 -0.084349 
0.0418553 -0.0619703 -1.18019 
8.26491e-20 -1.28567e-17 1 

-0.187528 -0.0901126 -1.01746 
-0.00945327 0.008494 0.0806735 
-4.95358e-18 3.61628e-18 1 

-0.0720044 0.0499193 -0.000870531 
-0.00495034 -0.131229 0.00653792 
-6.6118e-18 5.82468e-18 1 

-0.179355 0.00116577 1.3373 
-0.028648 0.0288269 -2.7776 
-3.31937e-18 6.1199e-18 1 

-0.339482 -0.975902 1.84313 
-0.455148 -0.288886 -0.106364 
6.38114e-18 -7.1342e-19 1 

-0.100607 0.0166897 -2.1407 
-0.0146843 -0.0286644 3.49692 
6.29251e-18 -2.48015e-19 1 

-0.0835921 0.0527211 -0.0815718 
0.0982302 -0.0520356 0.0832267 
-6.24687e-19 1.95215e-18 1 

-0.149224 0.0293632 -0.283524 
0.0904215 0.00173623 -0.148482 
7.73537e-18 4.51578e-18 1 

-2.53383 0.0313057 0.558153 
-0.139673 0.608622 0.00608417 
-9.1933e-18 -9.48986e-19 1 

-0.13693 -0.150226 0.0969552 
0.230733 0.0492548 -0.265167 
-8.94172e-18 -5.15043e-18 1 

-0.630448 -0.0643293 -0.231086 
0.284598 -0.0999283 0.13702 
8.06487e-19 8.87136e-18 1 

-0.425531 0.433522 0.367068 
-0.754407 0.149971 0.451573 
4.80562e-19 6.27798e-18 1 

-0.0994757 0.0321417 0.0690099 
-0.012269 0.0352365 0.196636 
2.12914e-17 4.32403e-18 1 

-0.38841 -0.112411 -0.032512 
-0.0616347 0.18592 0.0181262 
6.32929e-19 -8.93221e-18 1 

-0.120574 -0.00141972 -4.19898 
-0.0132035 -0.00281704 8.82934 
5.1607e-19 -1.6243e-18 1 

-0.127626 -0.0342589 0.0177054 
-0.0550787 -0.131825 -0.0469017 
2.79641e-17 1.0653e-17 1 

-0.0554949 -0.120412 -0.230828 
-0.00660664 -0.0157955 0.128606 
9.13066e-18 -1.71458e-18 1 

-0.238845 0.286805 -1.01617 
-0.0662245 0.171274 0.657123 
1.74198e-18 -1.11432e-17 1 

-0.0299958 -0.21767 -0.0618964 
0.154584 -0.0171938 -0.240501 
-9.98321e-18 1.25644e-17 1 

-0.281018 -0.0231197 -0.704382 
0.151955 0.0623984 -0.30154 
-1.42982e-18 -1.23067e-17 1 

-1.15548 -1.41975 4.37751 
-0.811331 -0.46072 0.430967 
3.29154e-18 5.56427e-18 1 

0.0325737 -0.730494 -0.373426 
0.594851 0.297676 -0.214288 
5.32615e-18 1.75106e-18 1 

-0.321765 0.217728 -0.86302 
0.0940725 0.0841269 0.256713 
-1.31952e-18 7.7732e-18 1 

-0.601197 0.446935 0.770223 
-0.42115 0.193914 0.769774 
1.4739e-17 -1.4739e-17 1 

-0.316463 -0.0608457 -0.0648514 
-0.104367 0.229875 0.604623 
-6.75604e-18 -2.84465e-18 1 

-0.113287 -0.0445946 0.337934 
-0.00325991 0.0633533 0.407393 
1.06802e-17 -3.64945e-18 1 

-1.82569 1.35385 -0.745487 
-0.108196 0.820025 -1.53782 
6.91571e-19 -7.7456e-19 1 

-0.15834 -0.0575126 -0.365671 
0.0229053 0.0792729 0.461805 
-4.93135e-18 -7.07595e-18 1 

-0.889804 0.693784 1.59471 
-0.0112828 0.273043 -0.14293 
4.65439e-18 1.37426e-17 1 

-0.0736085 0.0219798 0.0875651 
-0.0176269 -0.0694385 -0.0428289 
-7.46855e-19 3.31366e-18 1 

-0.223469 -0.0120632 1.4877 
0.0206338 -0.00797956 2.44495 
9.23425e-18 -8.57357e-18 1 

-0.0686856 0.123033 -0.312367 
-0.102412 -0.0725564 0.0369577 
5.93473e-18 -2.17607e-18 1 

-0.121392 -0.160231 0.112801 
0.139214 -0.00709351 -0.122386 
4.64198e-19 1.0555e-17 1 

-0.13896 0.0999214 0.0972116 
-0.200363 0.0357086 0.500962 
-1.66899e-18 2.34871e-18 1 

-0.0487172 -0.115047 -0.515115 
0.0349635 0.0740919 -0.0279795 
1.47525e-17 -8.13162e-18 1 

-0.286442 0.393179 0.459996 
-0.396683 0.307745 -0.345878 
-7.87005e-18 -5.43033e-18 1 

-0.848845 0.190692 0.261254 
-0.531254 0.344706 -0.451868 
2.12173e-17 -7.07244e-19 1 

-0.124504 0.0521497 -0.388823 
-0.0617475 -0.0669576 -0.383917 
5.34913e-18 6.07627e-18 1 

-0.00414373 -0.17693 -0.396761 
0.0143813 -0.0923962 -1.90222 
1.60433e-18 -4.20333e-18 1 

-0.0567976 0.0627344 0.0611106 
0.0238337 -0.0109229 0.209327 
-7.61883e-18 4.9662e-18 1 

-0.0868242 -0.0321653 -0.295768 
-0.0530135 0.00902515 -1.78333 
-1.06799e-17 8.41764e-18 1 

-0.285678 -0.0280403 -0.193222 
0.16142 0.0962276 -0.859647 
-4.86238e-18 5.38013e-18 1 

-0.165461 -0.0857907 -0.508143 
0.0371641 -0.0317396 0.529792 
-8.71988e-19 9.66541e-19 1 

-0.148493 -0.00793799 -5.21696 
-0.00366381 0.061908 22.4106 
-6.41536e-19 -5.64134e-18 1 

-0.142003 -0.0171422 0.595904 
-0.00521599 -0.0401778 -0.166477 
7.02397e-19 1.03988e-17 1 

-0.751351 -0.445984 -4.12274 
-0.558585 0.37274 -5.95815 
-2.97025e-18 -5.89649e-18 1 

-0.402476 0.0826557 2.46334 
0.0122002 0.14915 1.51345 
-2.91641e-18 5.39992e-18 1 

-0.137916 -0.0540766 -3.3941 
-0.0254127 0.0275539 -1.57723 
-3.98911e-18 2.20059e-18 1 

-3.61989 1.24998 -3.2124 
-0.340025 0.982135 4.4671 
-9.14566e-18 -4.71484e-18 1 

-1.62685 -0.670564 0.0415629 
0.406309 0.415546 0.388278 
1.90401e-17 7.48006e-18 1 

-0.0655743 0.369702 57.7014 
0.265672 0.264649 9.61638 
5.36544e-18 -4.05222e-18 1 

-0.246134 0.140254 -0.898738 
0.0148794 -0.267401 0.927091 
1.10407e-17 1.17975e-18 1 

-0.369141 0.413921 -2.86671 
-0.114894 0.211937 -0.269234 
1.34548e-18 1.36978e-17 1 

-0.235665 0.059859 -6.04474 
0.231923 0.511932 5.10084 
-4.047e-18 -4.82396e-18 1 

-0.0470305 -0.119201 2.71778 
-0.0302146 0.0308313 -1.7003 
9.44492e-18 3.33578e-18 1 

-1.28151 0.528665 -0.600989 
-0.606608 0.280373 0.0727795 
-2.88865e-17 -1.64292e-17 1 

-0.247777 0.157051 0.297598 
-0.131347 0.150779 -0.295936 
6.29976e-18 -1.10246e-17 1 

-0.10399 0.00032172 0.060284 
-0.0262776 -0.0245897 -0.01758 
6.31195e-18 -1.31857e-18 1 

-0.111678 -0.0253332 0.148158 
0.023528 -0.0870575 0.335726 
-2.87891e-18 -7.99074e-18 1 

-0.182418 -0.0309699 0.296118 
0.0122383 0.000561087 0.0530539 
-6.41537e-18 -2.12917e-17 1 

-0.125491 -0.00344976 0.104881 
-0.0199661 -0.0619285 -0.262163 
-7.59709e-18 -1.53197e-17 1 

-0.10674 -0.0403457 0.305149 
0.106711 0.030527 0.508352 
4.41403e-18 -9.39287e-18 1 

-0.343021 -0.251291 0.579804 
0.0544121 0.207897 -0.111275 
-7.62505e-18 -1.172e-17 1 

-0.295391 -0.699792 1.70663 
-0.215171 0.101419 -0.206324 
7.1664e-18 -5.05123e-18 1 

-0.00301705 -0.347175 0.0610212 
0.445825 0.0350082 -0.0637664 
-2.87999e-18 4.42285e-18 1 

-0.202588 0.143952 0.0404139 
-0.0107739 0.0482217 0.788252 
-1.57086e-17 -1.66016e-19 1 

0.0664013 -1.20563 0.0799839 
0.771003 0.920747 -0.50956 
-8.61997e-19 -9.57774e-18 1 

-0.16244 -0.0463765 0.0741634 
0.0237793 -0.031906 -0.118028 
1.09874e-17 1.97773e-17 1 

-0.107533 0.198842 0.182311 
-0.217506 -0.0145245 0.55314 
1.54281e-18 -9.64474e-18 1 

-0.458933 -0.0836976 0.131623 
0.266463 -0.0524066 -0.0810659 
-1.00514e-17 1.20616e-17 1 

-0.183937 -0.0493361 -1.28738 
-0.0735073 0.0358284 0.770235 
1.23441e-17 -6.52651e-18 1 

-1.00013 -0.178226 -0.165556 
0.0702416 0.366534 -0.649068 
-6.38421e-18 1.42295e-17 1 

-5.29389 -0.745529 -1.71406 
0.646795 0.608706 0.0989428 
-1.19928e-17 2.71837e-17 1 

-0.107313 0.0137693 -0.205277 
0.0365499 -0.0430279 -0.734122 
-6.39041e-18 -8.04127e-18 1 

-0.294389 -0.000220108 0.0896531 
0.0751474 0.0418184 -0.571776 
-3.2949e-18 -7.48601e-18 1 

-0.183902 -0.0228423 -0.357081 
-0.018594 -0.0262865 0.205754 
4.88855e-18 -1.64618e-17 1 

-0.135672 0.0331086 0.298156 
-0.0803787 -0.0440578 0.0898269 
-1.17762e-18 -1.13382e-17 1 

1.01523 -1.17863 0.0658092 
0.953093 1.199 -0.302535 
-4.72065e-18 0 1 

-0.196062 -0.076091 0.0840947 
-0.0430664 0.025417 -0.191646 
2.11178e-18 -3.7387e-19 1 

-2.74084 -2.27869 -3.84445 
0.30823 0.678152 1.40343 
1.00044e-17 -2.14047e-18 1 

0.963806 -1.06408 -0.236129 
1.05403 1.00515 -0.079742 
-3.63118e-18 -1.07574e-17 1 

-0.17655 -0.0326266 -0.159397 
0.0837618 -0.00888013 -0.0221072 
1.54088e-19 -2.46541e-18 1 

-1.07781 -0.731413 -0.0862754 
0.0429982 0.402124 1.24905 
-8.8556e-20 1.53202e-17 1 

-2.02164 0.0885055 -12.1794 
-1.22085 0.591017 -1.02315 
-4.53111e-18 2.32763e-18 1 

-0.41592 -0.0611384 0.818718 
0.0273424 -0.0765047 0.252982 
-9.4702e-20 9.61226e-18 1 

-0.103041 0.124216 0.535247 
-0.157998 -0.0183827 0.653426 
1.32722e-18 1.09743e-17 1 

-0.211764 0.0446329 -0.318883 
-0.130813 -0.0153693 0.155487 
-1.93484e-17 -1.65398e-17 1 

-0.24041 -0.0662439 -0.0370445 
0.0977603 0.0508995 0.270071 
8.22122e-18 1.57428e-18 1 

-0.215983 0.0561071 0.131333 
-0.10993 -0.00592057 0.155372 
-6.27596e-18 7.02723e-18 1 

0.0420869 -0.706003 0.0285602 
0.591203 0.248695 -0.324298 
-6.14106e-18 2.475e-18 1 

-0.145412 -0.30643 -0.442675 
0.5173 0.0802046 -0.896666 
8.15318e-18 4.41631e-18 1 

-0.109125 -0.0132331 0.0646698 
-0.0392123 -0.0249609 0.191318 
4.77058e-18 -1.41209e-17 1 

-0.448016 0.180479 -0.497476 
-0.0998205 0.134796 0.425329 
-1.57937e-17 -4.23093e-18 1 

-0.164935 -0.349027 -2.92968 
0.181427 0.367427 -2.96003 
-1.13793e-18 -8.17887e-18 1 

-0.17642 0.0510508 -0.512547 
-0.0671065 -0.0805035 -0.355664 
1.01001e-18 -1.72544e-18 1 

-0.0958626 0.00963315 -0.287948 
0.0910581 0.0421367 -0.425334 
-8.00277e-18 -6.14845e-19 1 

-0.189469 0.0279245 -0.728247 
-0.0394977 0.0617807 -0.691339 
7.19915e-18 -1.41412e-18 1 

-0.0816418 7.892e-05 0.0401262 
0.0642721 0.0114526 -0.159954 
-1.88493e-18 -3.86762e-18 1 

-0.487366 -0.185143 -0.000129313 
-0.0744951 0.237588 -0.666351 
-7.44313e-18 1.23424e-17 1 

-1.72426 3.98783 -10.269 
0.0363655 0.698968 -2.64173 
-1.4084e-18 1.04005e-18 1 

-0.169944 -0.231724 0.484043 
0.133049 0.16834 -0.802508 
-3.96904e-18 -1.45008e-18 1 

-0.420534 -0.127928 -1.54612 
0.273528 0.128188 -0.436183 
7.99111e-18 5.37289e-18 1 

-0.100869 0.0485177 0.339838 
0.0398973 0.00717494 0.368988 
1.49081e-18 -9.21589e-18 1 

-0.101047 0.0148898 -2.0978 
-0.0210932 -0.0258223 -0.107906 
-7.61118e-18 -2.62655e-18 1 

-0.466647 0.0189458 3.53641 
-0.0245047 0.151624 -0.93421 
-1.5229e-20 5.60017e-18 1 

-0.320886 -0.154621 1.41177 
0.050782 0.0734647 2.28306 
-2.08183e-18 4.95876e-18 1 

-0.144033 -0.0470061 0.0742938 
0.000736584 -0.102738 -0.206338 
1.55097e-17 8.58493e-17 1 

-0.138282 -0.0345653 -1.24746 
0.00760267 0.0254297 -0.0839591 
4.9887e-18 -5.64333e-19 1 

-0.789823 0.194695 -21.4816 
0.236792 0.239072 -6.37796 
3.35419e-18 -9.98382e-18 1 

-0.114759 -0.0172628 -2.90268 
0.327052 0.0159075 0.282514 
8.40745e-18 1.57301e-17 1 

-0.284719 0.931979 63.5855 
-8.76572e-05 -0.144257 -10.0794 
-9.23643e-20 3.06269e-18 1 

-0.526959 0.47656 -0.249167 
0.310087 0.194621 0.22975 
-8.72561e-19 -2.78492e-18 1 

-0.107885 -0.00234212 0.163189 
0.0383599 -0.0328356 -0.027821 
6.58763e-18 -6.40464e-18 1 
