# vtk DataFile Version 3.0
Output file generated by Yade's KinematicLocalisationAnalyser
ASCII
DATASET UNSTRUCTURED_GRID

POINTS 13483 float
399.82 41.9089 -0.463035
486.748 84.3898 0.470122
102.647 5.90167 -0.457439
515.735 8.46078 0.654421
342.387 9.78776 0.335998
247.697 38.3754 -0.610154
132.515 8.80567 0.451706
390.258 12.4017 -0.240379
343.989 35.7771 -0.156118
465.087 20.1282 0.42957
175.995 9.70683 -0.120984
210.242 6.79147 0.448864
417.801 82.1995 -0.153534
430.55 18.4689 0.11482
116.577 20.0715 0.440696
182.534 39.6117 -0.395178
181.209 16.1989 -0.352647
229.668 16.1726 0.717773
259.124 42.7737 0.609522
362.333 8.37629 0.576297
306.741 79.0154 -0.107858
399.081 86.2313 0.262643
503.208 69.037 -0.48094
453.366 88.3911 -0.492186
321.456 44.1664 -0.379657
188.747 58.4733 -0.121818
337.802 49.9108 0.556889
398.438 29.6362 -0.267931
39.3592 16.5414 0.522103
476.741 88.5797 0.375472
330.407 11.1567 -0.456085
15.6458 26.5329 -0.301033
497.005 92.0494 0.28345
339.15 2.93567 0.649432
69.9005 49.6594 0.113201
356.168 40.4995 -0.336021
360.586 24.3749 -0.543771
266.255 30.1592 -0.179071
365.202 36.6253 0.330306
264.464 46.1747 0.500814
200.824 17.4181 0.387198
324.339 70.6937 -0.0709414
437.322 36.3622 0.138226
161.053 6.58179 0.452273
47.7814 8.16961 -0.077955
58.2266 11.2387 0.264492
449.751 23.1921 0.637528
21.0294 13.2018 0.273796
401.071 64.3239 0.456998
435.659 64.5411 0.32396
136.139 40.5358 -0.336527
490.546 71.7953 -0.152958
28.9549 33.6714 0.115142
369.68 4.42575 0.599508
122.386 10.7448 -0.724234
394.896 61.7798 -0.482366
339.76 43.1317 0.190075
147.3 0.976612 -0.34688
28.7455 2.42439 0.416799
276.959 20.0309 0.28161
401.027 73.4576 -0.183646
347.793 66.0396 0.186315
301.814 1.01711 0.361715
457.024 17.6683 0.555988
21.2832 49.7954 0.237691
206.87 53.7954 -0.32208
466.673 12.7945 0.335733
432.892 95.7407 -0.355673
311.207 16.106 -0.559012
388.138 4.15344 -0.426385
470.807 59.3316 0.399676
113.16 7.71873 -0.273942
345.455 34.0888 -0.15565
333.775 30.7127 -0.203845
235.995 18.6485 -0.513342
18.767 15.3742 -0.342568
509.253 91.5958 0.281889
251.679 59.2047 -0.334175
436.652 55.374 0.385047
448.481 35.9212 -0.27703
506.541 14.3206 -0.364033
349.915 68.4317 0.140805
82.9389 41.9875 -0.273539
443.016 76.601 -0.204444
408.632 82.3751 0.114193
509.386 74.567 0.112174
500.839 0.747433 -0.581139
228.614 36.2602 0.521172
426.528 5.6212 -0.150577
22.4595 6.84361 0.655763
100.474 55.6813 -0.15272
355.082 14.7541 0.271251
500.537 58.9735 -0.500514
158.08 32.2485 0.263969
38.3322 40.2171 0.298498
337.797 2.47987 0.144865
195.915 11.0813 -0.401282
470.181 68.7504 0.264347
493.53 58.3642 -0.273476
272.014 37.7432 -0.241141
126.927 38.8164 -0.478751
375.159 54.0681 -0.529685
289.166 36.6669 0.580757
306.944 64.216 -0.106832
288.395 23.6151 0.416101
375.348 17.8575 0.185717
511.605 28.1959 0.175111
71.2251 44.041 0.440158
267.564 5.6857 -0.279383
384.817 11.889 -0.533279
265.706 63.2587 0.490774
22.3539 28.19 -0.487184
27.5177 6.89637 0.598405
385.815 70.836 0.411731
347.013 32.6014 -0.196414
20.9746 43.4951 0.429501
80.9166 32.8897 -0.232648
259.796 16.4044 -0.436723
410.483 24.9582 0.151299
355.365 80.1839 0.0390509
481.701 18.5419 -0.39876
474.898 12.5486 -0.231429
291.441 67.3365 -0.124422
422.877 37.9435 0.151711
199.368 20.3539 0.576018
264.76 4.21717 -0.628871
90.9472 32.8883 -0.421452
102.084 25.4726 0.2968
372.773 58.3934 -0.069821
244.238 20.9052 0.571069
472.072 89.9353 0.10039
435.499 92.905 -0.124037
336.805 32.4412 -0.400757
498.431 32.7577 0.326622
315.021 56.2247 0.232941
220.183 40.0212 -0.308679
431.571 79.4467 -0.283945
221.719 43.3818 -0.405657
393.135 20.4565 0.227399
252.703 56.156 -0.243344
349.233 11.8095 0.690301
278.444 53.9138 0.0959116
308.51 43.3162 -0.122751
239.5 62.7999 0.465267
154.392 34.0449 -0.123901
490.904 86.7553 0.151025
509.726 30.6347 -0.389466
5.87895 12.7879 0.458335
311.723 50.973 -0.445128
33.2274 26.0686 0.0702108
287.32 57.113 -0.48061
298.869 57.0291 -0.256237
63.7682 13.9642 -0.570115
45.6417 39.1347 0.428556
190.198 18.8286 0.446879
410.247 48.8558 0.476056
396.102 32.2934 -0.487425
64.679 24.9481 -0.476639
452.827 93.0212 -0.408857
485.267 2.31304 0.635457
424.25 98.591 0.45106
461.679 4.70066 -0.652791
380.137 42.7353 0.488928
399.263 84.4078 0.443237
358.054 17.4335 -0.670185
514.112 7.22593 0.45251
187.657 29.8344 0.13031
112.694 37.9337 0.200491
204.819 8.66697 0.643446
79.8629 4.88592 0.273258
54.8421 13.2308 0.269961
224.359 50.652 -0.310839
16.7087 28.3595 0.388681
384.902 27.1037 -0.518538
403.847 53.8179 0.256807
328.915 46.0379 -0.3669
511.794 105.514 0.375641
307.047 13.9522 0.177856
328.604 70.5554 0.507202
374.405 3.60671 0.181883
20.8871 25.6823 0.415242
398.301 3.77545 0.647623
378.309 7.51504 0.43457
174.386 12.1884 0.557161
306.599 46.192 -0.193245
250.786 6.95072 0.521561
296.106 38.8934 -0.379649
456.554 68.0645 -0.100437
157.429 29.2373 -0.434627
494.026 6.09579 -0.519686
457.448 63.3453 0.369159
293.766 29.964 0.217599
473.549 2.68851 -0.558231
410.461 34.4299 -0.539861
479.05 33.1524 -0.412395
328.554 79.5311 -0.29185
345.922 13.9287 0.519918
346.443 81.9681 0.225417
319.519 27.0097 -0.18962
426.085 94.8933 0.252655
422.745 96.4529 0.29845
158.709 45.6875 0.360187
504.17 13.0143 -0.273383
396.435 69.8773 0.250827
10.6742 18.9067 0.25636
303.537 52.8111 -0.361746
153.906 28.2329 -0.413032
84.5678 42.8567 0.214549
504.793 55.4159 -0.404797
408.959 99.0314 -0.221971
255.651 28.8802 0.357498
368.92 16.4102 0.5107
74.7965 48.6204 0.181333
207.615 45.4648 -0.487966
381.668 38.2853 0.446923
341.028 23.3124 -0.490414
218.043 0.903386 -0.496729
375.302 63.7522 -0.405689
369.747 53.4793 -0.603049
365.626 80.4269 -0.444291
347.267 2.30387 -0.650037
456.969 35.5865 -0.438797
152.291 14.3777 0.259657
345.292 49.8008 0.528986
380.605 75.9677 -0.112256
62.673 2.24227 0.589304
208.188 4.36384 0.208901
507.991 31.5909 -0.183125
505.389 16.0543 -0.448136
513.637 33.9548 -0.549943
243.519 8.37583 -0.316173
474.87 50.0356 -0.509869
307.879 85.7801 -0.311996
319.224 2.4204 -0.638621
412.694 87.5609 -0.42205
22.7469 37.4944 -0.434366
252.509 63.0481 0.465693
209.58 2.86273 0.585452
502.04 93.5356 0.171221
471.813 102.625 -0.216738
231.488 16.1635 0.321903
426.347 78.565 0.078762
385.45 2.53013 0.361237
375.973 12.111 0.669802
83.1973 19.0544 -0.569592
244.166 0.973807 -0.279094
275.792 2.20056 -0.4002
12.8726 8.32832 0.617464
4.32454 31.8127 0.313753
138.516 20.7752 0.370946
60.7843 49.1103 -0.208337
57.7835 35.9385 -0.354949
309.741 32.6478 -0.564439
279.172 58.5073 -0.49467
488.193 71.9696 0.119229
18.5297 5.00339 -0.289545
59.3509 8.10489 0.121528
414.391 60.3293 0.154567
235.994 0.896119 0.413299
277.259 33.995 -0.0900854
196.74 5.82932 0.436358
423.294 56.2217 -0.191544
325.389 24.724 0.512729
474.722 48.3044 -0.421929
421.767 64.7611 -0.445214
437.877 51.3314 0.0817025
314.077 62.5505 0.472765
92.4044 49.449 -0.313545
368.634 64.0582 0.0674134
482.733 26.8556 0.296359
200.18 42.3163 0.253757
28.9892 20.0436 -0.240091
271.042 15.1715 0.64455
95.4377 42.1325 0.577821
221.729 62.0658 -0.191043
315.871 3.84006 0.253731
503.986 77.3452 -0.490862
458.917 0.754383 -0.631114
267.845 4.07783 0.573577
240.03 29.6921 0.157454
347.941 78.8146 -0.19828
69.8163 9.10205 0.562753
164.16 50.9025 0.37988
492.937 65.5379 0.367402
380.588 87.6783 0.0684415
164.591 46.205 -0.281513
131.605 54.5017 0.435101
512.097 69.7154 -0.396439
509.952 28.8186 -0.60939
417.704 4.53528 -0.630655
158.401 27.8013 0.102188
385.528 54.8305 -0.116658
387.403 55.3503 0.313268
309.346 11.4076 -0.159473
336.471 0.954084 0.537387
485.247 72.668 -0.540437
74.8234 34.5379 -0.28585
427.033 52.7361 -0.517275
221.281 23.2171 -0.455444
8.96101 2.42233 -0.306739
99.8698 51.1553 0.201706
57.6687 26.8305 -0.450373
464.809 88.2727 0.344206
499.058 101.502 -0.196876
150.468 32.8266 0.170379
507.478 25.1111 -0.462731
39.9714 42.3601 -0.269537
79.5562 31.425 0.15177
438.829 17.5558 0.510989
302.974 31.0701 -0.623433
358.901 24.5804 0.160527
202.039 41.5691 -0.154094
431.682 5.19968 0.742223
514.215 29.3032 0.415686
25.3055 38.2461 -0.269682
217.467 15.3201 0.381777
188.035 20.3694 0.367524
1.04699 36.2847 0.158894
191.207 19.8806 -0.386824
179.064 14.1145 0.146674
179.49 31.4697 -0.297236
120.895 32.7039 -0.133032
380.139 23.1477 0.514276
143.969 17.1056 -0.433413
496.935 90.2332 -0.30722
149.674 3.60263 0.511124
41.4464 45.1229 0.331894
475.887 81.788 0.430224
227.232 42.4062 -0.506738
438.76 61.2432 0.456274
498.921 64.2765 -0.589847
241.844 9.22287 0.158153
462.054 54.649 0.335428
265.724 2.80574 -0.492287
307.707 53.4314 0.372374
441.454 46.6947 -0.653413
91.6119 12.8129 0.562611
334.791 6.17632 0.494461
477.402 41.9894 -0.227393
75.1745 7.77368 0.233644
228.311 21.0702 0.239169
312.961 31.0915 0.210472
514.333 3.26059 0.578477
305.972 1.88529 -0.563589
144.315 45.3017 -0.304241
486.661 24.4413 -0.490656
114.111 39.4938 -0.174189
215.271 51.0204 0.482237
299.092 44.4051 -0.238795
395.769 22.0473 -0.392107
294.665 10.0044 -0.533593
351.488 61.3418 -0.450646
487.79 85.044 -0.413855
42.2016 12.6437 -0.15413
241.123 41.631 -0.402809
294.155 57.3063 0.357583
302.368 39.8781 -0.260127
363.198 58.8472 0.435212
479.156 67.7564 0.243665
427.004 87.6467 -0.344134
190.55 40.0806 -0.453596
12.5225 34.7532 0.197173
420.86 97.4036 0.121319
355.062 52.7762 -0.525614
192.395 47.7098 0.10674
447.832 74.8561 -0.106382
130.396 11.9063 -0.387932
280.661 41.0149 -0.26239
348.351 80.9503 -0.126521
301.983 34.1258 -0.196798
483.114 84.5191 0.323803
315.857 14.2516 0.583028
43.0382 30.0006 -0.312429
358.687 74.0435 -0.26685
332.542 76.0414 0.377306
503.942 87.2582 0.265281
465.561 50.0695 -0.252742
376.031 29.6756 -0.178424
496.48 82.0002 -0.45629
236.374 2.3175 -0.461719
291.209 58.496 0.491385
23.9335 45.5021 -0.304547
462.519 56.5129 -0.24516
419.626 24.0296 -0.612916
327.071 1.02324 0.684979
110.528 4.57331 -0.363728
324.629 76.2225 0.124707
11.3512 0.849063 0.32262
512.038 11.2718 0.194766
278.903 65.8431 0.410832
[...]
POINT_DATA 13483
TENSORS Strain_matrix float
-0.652993 -0.395212 -1.87533 
-0.494887 0.332389 0.442588 
0 -9.27226e-18 1 

-1.53549 1.08333 3.8883 
0.4305 0.865798 5.86543 
-3.77398e-18 -1.26238e-18 1 

-0.177892 -0.127602 0.154015 
0.0710801 -0.0636845 0.379297 
-9.41352e-18 -1.06972e-17 1 

-4.28377 -0.370827 -5.41632 
-0.255255 0.930429 -1.36437 
-3.2743e-17 1.13712e-17 1 

-0.92262 0.562267 -0.879539 
-0.173536 0.378258 -0.159284 
3.4946e-18 1.62717e-17 1 

-0.848195 -0.4435 50.0621 
0.0798982 0.460767 -27.8197 
-9.97001e-19 3.43356e-18 1 

-0.266668 0.0844436 0.49565 
-0.0626529 -0.0311626 -0.12709 
4.6803e-18 6.13281e-18 1 

-0.490006 -0.330227 0.821175 
0.349136 0.0294833 -0.154181 
1.00733e-17 4.99098e-18 1 

-3.69425 -2.9678 -4.93887 
-0.407792 0.620182 0.737873 
-9.36593e-19 2.90734e-18 1 

-0.779247 -0.0711584 1.32118 
-0.555276 0.202138 0.661308 
1.57606e-17 -5.85792e-18 1 

-0.283704 -0.0625029 -0.911983 
0.169467 0.0275772 0.534341 
5.52166e-18 -5.65787e-19 1 

-0.434025 0.116061 0.0189115 
-0.00731688 0.0790143 -0.138806 
1.0062e-18 9.76606e-19 1 

-2.86373 -2.67389 1.90842 
0.522425 0.902595 -0.0948622 
-1.28245e-19 2.13742e-18 1 

-0.602458 -0.226646 0.377798 
0.133622 0.12425 -0.0532775 
5.55474e-18 4.20359e-18 1 

-0.489649 -0.0580326 0.533749 
0.25141 0.175079 -0.286675 
2.86581e-18 2.13592e-17 1 

-0.103939 -0.142238 -0.356103 
0.0449639 -0.0289951 0.266305 
-7.18826e-18 3.94034e-18 1 

-0.104563 -0.253198 0.115335 
0.218982 -0.0808985 -0.0722569 
-8.96404e-18 2.68921e-18 1 

-0.672041 -0.309892 -15.6471 
-0.0600889 0.544002 74.7504 
-5.18761e-19 3.47779e-18 1 

-0.894394 -0.385855 3.16705 
0.0797446 0.525627 45.7248 
-1.46613e-18 -7.86001e-18 1 

-0.330065 0.206356 0.488521 
-0.174659 -0.063121 -0.733571 
-8.58618e-20 -5.68835e-18 1 

-0.351787 -0.352722 -0.473762 
0.124334 0.25043 -0.672411 
-5.17476e-18 -8.50765e-18 1 

-19.9932 3.37781 34.1886 
-0.797681 0.807596 0.0357962 
6.25073e-18 5.57819e-18 1 

-0.984844 -0.498556 -7.48051 
0.0334322 0.619291 2.88886 
1.37537e-17 -1.5784e-17 1 

-0.579501 -0.165958 59.2523 
0.258059 0.273472 21.0152 
-4.62561e-18 1.98963e-17 1 

-0.844801 -0.111857 -1.80137 
0.185488 0.336639 2.29401 
-4.10022e-18 -1.12832e-19 1 

-0.306755 -0.616919 -5.2144 
0.562038 0.690163 -1.61868 
4.18517e-18 -8.29818e-18 1 

-2.08739 2.08405 -7.42727 
-0.869286 0.870424 -6.38076 
-3.34091e-18 7.51263e-18 1 

-1.16788 -0.0345555 -1.41693 
-0.229284 0.373208 -0.210103 
3.8231e-18 -1.22037e-18 1 

-0.429131 -0.164731 -0.945572 
0.239352 0.180145 -0.797686 
-5.98572e-18 7.27993e-18 1 

-0.370728 -0.26276 -0.939154 
0.499703 0.1505 -0.274934 
3.67623e-18 1.69842e-17 1 

-1.10506 0.272263 -3.42485 
-0.174115 0.0873147 0.161002 
1.19026e-17 6.10389e-18 1 

-0.408552 0.0215726 0.753051 
0.226458 0.215266 0.703285 
2.08903e-17 -3.83876e-18 1 

0.426152 -1.03378 -0.000311303 
0.768158 0.304882 0.619287 
-8.70189e-18 6.27614e-18 1 

-0.986641 -0.469725 9.07053 
-0.259985 0.395726 -4.19908 
2.36774e-17 -5.01454e-18 1 

-0.0708159 0.226059 -0.0561914 
-0.298835 -0.0568903 -0.352833 
-4.22031e-18 6.49278e-19 1 

-0.369473 -0.147539 -0.691558 
-0.11343 0.0878761 -1.12043 
9.9923e-20 3.19754e-18 1 

-0.920252 -0.271342 -11.2553 
0.110911 0.491903 7.57799 
6.68389e-19 6.43392e-18 1 

-1.8115 -2.19895 1.21603 
0.264209 1.13813 0.340732 
-1.1654e-18 1.34827e-17 1 

-0.238446 1.93919 -2.54238 
0.124851 0.391529 0.387058 
2.28437e-17 -6.56165e-18 1 

-0.183828 -0.717775 2.66861 
0.634815 0.297173 -0.696845 
-4.50072e-19 4.50072e-18 1 

-0.6828 -0.303046 -3.16006 
0.198853 0.139494 -0.408564 
-4.44286e-18 -5.97009e-18 1 

-0.194427 0.177795 0.426912 
-0.134214 0.130896 0.54648 
-3.99891e-18 -1.2232e-18 1 

-0.764092 0.0616249 -0.102952 
-0.587231 0.505841 0.198834 
1.20506e-17 -1.93906e-17 1 

-0.553819 0.204469 -0.547628 
-0.326836 0.120694 -0.390085 
1.57763e-17 -1.517e-17 1 

-0.287743 -0.070847 -0.0136141 
0.283582 0.0371633 -0.0411354 
1.75807e-18 8.53921e-18 1 

-0.726985 0.384644 -0.0668325 
-0.2427 0.223285 -0.563499 
-8.48654e-18 -4.89506e-18 1 

-1.68524 -0.925142 11.9893 
-0.729224 0.489154 4.76454 
-9.0894e-18 -1.37266e-17 1 

-0.149338 -0.0621824 -0.0225902 
0.0245316 -0.0914146 -0.0619571 
-1.02506e-17 1.51837e-17 1 

-2.55395 -0.913668 -2.4869 
-0.042312 0.521276 2.33543 
6.3647e-18 -5.87511e-19 1 

-2.54152 -0.520106 -17.8674 
-0.127319 0.712217 -1.28116 
-1.3185e-18 -9.46433e-18 1 

-0.214562 0.275895 0.426083 
-0.165461 0.134685 -0.1048 
6.05549e-18 1.01976e-17 1 

0.112452 -0.58861 -0.417801 
0.719577 0.232986 -0.641463 
-2.91364e-18 -9.16481e-18 1 

-0.381481 0.282478 -0.114113 
-0.245302 0.247819 -0.638727 
1.79396e-17 6.10987e-18 1 

-0.741944 0.0862268 1.64023 
-0.0267929 0.110275 -0.336426 
5.82873e-18 8.2034e-18 1 

-0.44733 -0.197187 6.26743 
0.0505199 0.118243 3.30086 
-3.20064e-18 -3.05942e-18 1 

-1.60251 -1.27202 1.82745 
-1.86551 -0.0300109 -0.329529 
-1.2006e-17 3.90343e-18 1 

-2.21413 -1.61004 8.71794 
-0.740122 0.257056 -0.183064 
-3.89392e-20 -7.26216e-18 1 

-0.238027 -0.0652602 -0.463211 
-0.0213532 -0.034986 0.341635 
-3.19025e-18 -4.46929e-18 1 

-0.307236 0.15748 0.533335 
0.032007 -0.0270429 0.67036 
-1.66513e-17 3.30636e-18 1 

-0.419155 -0.511504 3.0041 
-0.223807 -0.183049 0.683843 
-1.46512e-19 -3.907e-18 1 

-11.956 1.98351 5.04528 
-0.859591 0.674478 0.193798 
-5.83098e-18 -6.85396e-18 1 

0.0940983 -0.647337 -0.552593 
0.52645 0.238734 0.833165 
-1.51693e-18 -2.50022e-17 1 

-0.334895 -0.38557 -0.873115 
-0.0159399 -0.0602822 0.312797 
-1.56519e-18 5.34779e-17 1 

-2.01465 -1.00687 -1.02089 
-0.300454 0.149601 1.74661 
-4.25838e-18 6.57561e-18 1 

-0.277869 0.0268213 0.263388 
-0.0127451 0.101935 0.524769 
-1.32317e-17 1.28009e-17 1 

-0.21767 -0.735228 0.510056 
0.377896 0.174917 -0.567386 
3.63768e-18 1.81884e-17 1 

-0.430282 -0.512361 0.302024 
-0.089261 0.0589528 -0.0638142 
7.76641e-18 -5.73993e-18 1 

-0.0125386 0.715533 -1.47197 
-0.560543 0.235322 -2.25613 
6.06258e-18 -9.58285e-18 1 

-1.2476 -0.823587 16.8594 
0.564797 0.745089 -3.56291 
1.33382e-17 -6.1236e-18 1 

-0.680483 0.364521 -0.210572 
-0.545285 0.0565438 -0.0433403 
-1.1628e-17 1.88681e-18 1 

-0.538902 -0.974386 -2.65128 
0.0616695 0.252216 -1.6018 
-4.47593e-19 -1.56658e-18 1 

-0.20006 -0.069669 0.212529 
0.0866073 -0.0468674 0.019031 
3.90027e-18 -8.2111e-18 1 

-3.11806 -0.0410105 -2.4336 
-0.256965 0.789839 1.0616 
-8.53677e-18 -2.25875e-18 1 

-0.077567 0.962044 0.33273 
-1.08914 0.630524 -0.252677 
-1.42643e-17 -1.03704e-17 1 

-0.380729 0.433249 1.91118 
-0.443133 0.175065 -1.19534 
-3.6467e-18 -8.45029e-18 1 

-0.229882 0.0184779 0.0775504 
0.00509455 -0.0238014 0.477246 
-3.32495e-18 5.93741e-19 1 

0.209636 -0.914683 -0.623905 
0.762627 0.281817 0.416781 
5.8323e-18 3.46293e-18 1 

-0.73816 -0.176546 1.18872 
0.000748509 0.254312 0.535137 
-2.62239e-18 1.05945e-17 1 

-1.27128 -1.46175 1.50943 
-0.234786 0.493249 1.23562 
2.46345e-18 -1.97076e-18 1 

-0.635456 0.241899 -1.41213 
-0.696566 0.369418 -0.502689 
9.91256e-18 5.76168e-18 1 

-1.76755 -0.362573 0.51914 
0.405417 0.372884 -0.51887 
9.69537e-18 -9.17729e-18 1 

0.115864 -0.646953 0.457981 
0.539538 0.269979 1.03855 
2.74031e-17 7.51628e-18 1 

-0.198931 0.135699 1.22032 
0.0555787 0.0613624 0.0172462 
-1.27284e-18 -4.4414e-18 1 

-0.032631 -0.154372 -0.0995097 
0.0268459 -0.112244 0.107149 
-8.80544e-19 -2.34524e-18 1 

0.698454 -1.22948 -0.411106 
0.999963 1.04252 -0.641591 
-4.79163e-18 -1.62428e-18 1 

-0.68809 0.170263 0.669141 
-0.0696351 0.294725 0.436021 
-7.25037e-18 9.30271e-18 1 

-0.598848 -40.1138 1.16281 
0.019082 -0.0726729 0.753701 
2.86239e-18 -1.45854e-17 1 

0.0402945 0.671886 0.0139591 
-0.693157 0.0859226 0.0483551 
-2.57473e-18 4.02595e-18 1 

-0.460154 -0.22217 -0.984181 
0.460503 0.0512566 0.114386 
-1.26476e-18 -4.06983e-18 1 

-0.313896 0.0491222 -0.500586 
-0.00788404 0.0065911 -1.76681 
1.70209e-18 5.24379e-18 1 

-0.437309 -0.316711 -0.222388 
0.503313 0.200911 0.376451 
-8.87232e-18 -4.76979e-18 1 

-0.634101 0.598957 0.175047 
-0.216736 0.162803 0.0186052 
2.73818e-18 3.61831e-18 1 

-1.81664 -3.65443 0.663397 
-0.468012 0.403791 1.68108 
6.39623e-18 2.73975e-18 1 

-0.0766866 -0.240009 1.20669 
-0.132719 -0.0639235 -0.199322 
3.27659e-18 -1.14646e-17 1 

-0.147342 0.140591 -0.103563 
-0.0641493 0.112148 1.07556 
-3.48614e-18 -9.45138e-18 1 

-0.723839 -0.654724 0.651544 
-0.124767 0.320248 0.216959 
5.53258e-19 -1.27249e-17 1 

-0.186203 0.448668 0.350182 
-0.423917 0.0628532 0.146527 
-7.41846e-20 -4.45108e-18 1 

-0.109187 -0.318783 0.0903486 
0.0993761 -0.0106737 0.188494 
6.34896e-19 4.12683e-18 1 

-2.13484 -1.39536 -2.82177 
-0.398952 0.182876 -0.730334 
-6.38408e-18 -3.24826e-18 1 

-1.20812 0.875488 0.578942 
0.806198 -0.108185 1.15792 
1.37857e-18 4.84771e-19 1 

-0.797631 -1.45246 -6.98823 
-0.162571 0.376444 -3.48973 
-4.98829e-18 -4.212e-19 1 

-0.742276 -0.759103 -15.5808 
0.861831 0.587579 -4.3236 
2.97748e-18 1.67483e-18 1 

-0.54172 -0.0782346 -0.0360644 
0.305832 0.14436 0.653651 
9.14158e-19 1.32553e-17 1 

-2.31304 2.11449 0.0161172 
-0.760443 1.06088 0.315245 
6.49228e-18 -3.78716e-18 1 

-0.905219 -0.602034 -0.522205 
-0.00686403 0.168295 0.375796 
2.10821e-18 -4.69677e-18 1 

-0.73024 -0.476892 0.13894 
0.0576836 0.227323 -0.782977 
1.43079e-17 7.35719e-18 1 

-0.755074 -0.179079 0.797083 
0.329273 0.1762 -0.622668 
-2.58712e-18 -8.91507e-18 1 

-0.14711 0.219126 -0.0416014 
-0.284859 0.0103902 -0.448021 
1.1828e-17 -1.569e-17 1 

-0.381936 0.199834 -0.327703 
-0.214829 -0.0984121 0.00857809 
-2.503e-17 1.60851e-17 1 

-0.33458 0.272897 -0.459323 
-0.194533 -0.0294285 -1.21579 
1.48156e-17 2.89501e-18 1 

-0.81902 0.29844 13.3647 
0.235698 0.630255 13.4315 
-5.36196e-18 7.11647e-18 1 

-0.51028 0.107627 -0.375187 
0.0705485 0.279743 -0.911917 
-1.9951e-17 -7.66747e-18 1 

-0.36005 0.139043 1.1734 
-0.0956886 0.054718 0.696749 
-5.30358e-18 -5.98148e-18 1 

-0.130583 -0.941585 -0.107935 
0.61085 0.424101 -1.29151 
-2.3821e-17 6.26868e-18 1 

-2.85611 0.0654128 -15.8101 
-0.0219073 0.53562 0.369281 
-8.33877e-18 1.10562e-18 1 

-0.131137 -0.138504 -0.0269363 
0.0847942 0.0355297 -0.632275 
-6.01552e-19 9.98576e-18 1 

-0.279508 0.230051 -0.104853 
-0.330378 0.134284 -0.278512 
-6.82393e-19 -6.92891e-18 1 

-0.462711 -0.176531 -0.230286 
0.289527 0.111171 0.0398467 
3.38495e-18 5.94931e-18 1 

-1.67007 -0.763361 0.856781 
-0.121425 0.582273 0.244312 
1.38593e-17 4.44123e-18 1 

0.0297765 -0.535668 0.40635 
0.605433 0.195909 -0.0977141 
0 1.47691e-17 1 

-0.926659 -0.261387 -1.12046 
0.816669 0.447766 0.653305 
-6.0183e-18 1.44036e-17 1 

-0.467408 0.0734787 0.323972 
-0.217028 0.0881521 0.204848 
1.15401e-17 -2.12692e-18 1 

0.0321808 -0.706308 0.288721 
0.489814 0.243056 -0.613266 
-5.13416e-18 -2.2946e-19 1 

-6.41159 -2.52655 6.42762 
1.29171 1.07692 -0.519763 
-2.06028e-17 1.20711e-17 1 

-0.766147 -0.200235 -5.39395 
0.017672 0.352898 5.87045 
-9.05135e-19 -4.04526e-18 1 

-0.545266 -0.0298492 -1.42063 
0.266386 0.00226827 -0.563333 
-4.91345e-18 2.35964e-17 1 

-0.1575 -0.0327175 -0.122753 
-0.100533 -0.0446212 0.11425 
-3.03095e-18 4.84579e-18 1 

-0.318556 0.237831 0.263885 
-0.00500786 0.196285 1.61355 
1.2843e-17 -9.70466e-18 1 

-2.11378 -0.801497 3.09339 
0.145882 0.679712 1.00915 
1.16423e-17 3.07049e-18 1 

-0.419998 -0.260209 0.647263 
0.18622 0.0968985 0.154945 
1.67277e-18 -1.29704e-17 1 

-0.155026 -0.407624 1.02307 
0.345699 0.12587 -0.346265 
3.54393e-18 5.69541e-18 1 

0.0414117 0.925999 0.218123 
-0.586723 0.456589 0.119055 
8.04666e-18 -1.3277e-17 1 

-1.38664 0.0865561 -1.13396 
-0.92697 0.453366 -0.544899 
-1.01554e-17 -9.16387e-18 1 

-7.8697 2.12838 -4.52323 
-2.73221 1.04379 -0.204474 
8.40282e-19 -2.37256e-18 1 

-1.75212 1.36297 2.73677 
-0.252179 0.611551 -1.67456 
2.97155e-18 -5.13551e-18 1 

-0.691872 -0.526948 0.268209 
-0.423764 0.581348 -0.186588 
-3.24503e-18 3.98253e-18 1 

-0.0818995 0.728665 -0.727753 
-0.455699 0.228088 1.0822 
9.00534e-18 1.65872e-17 1 

0.206587 0.76266 -0.0962262 
-0.75348 0.217305 0.0187245 
-6.00323e-18 4.91173e-19 1 

-0.755151 0.03821 0.174356 
0.579778 0.100843 0.372789 
-1.13431e-18 -1.32336e-18 1 

-0.84225 -0.184108 1.56298 
-0.165621 0.151614 2.04858 
5.88322e-18 2.3076e-18 1 

-0.451095 0.270151 -3.19981 
-0.0496119 0.0279249 3.22058 
1.85516e-17 -1.50101e-17 1 

0.0152832 -0.621192 -0.0750837 
0.545273 0.146155 0.0172644 
3.11971e-18 -7.45769e-18 1 

0.141035 0.745053 0.0564937 
-0.754126 0.295541 0.224571 
3.90779e-18 -8.74878e-19 1 

-1.14753 -0.903664 -17.1411 
0.102412 0.709466 24.5597 
-1.87578e-18 -1.48934e-18 1 

-0.0607791 0.0859168 -0.10075 
-0.088483 -0.0403541 -0.0181071 
4.76586e-19 1.03657e-17 1 

0.416281 -1.04433 -0.924145 
0.625691 0.414862 0.160196 
-1.24094e-17 -1.25424e-17 1 

-1.26198 0.196368 0.0130248 
-0.0893112 0.429565 -0.247682 
-8.9713e-19 6.9079e-18 1 

-0.189947 0.00441922 -0.590092 
0.0180464 -0.0676633 -0.653225 
1.76281e-18 -5.93991e-18 1 

-0.584446 1.05402 -4.18673 
-0.267953 0.707028 1.32799 
1.73587e-17 -8.89761e-18 1 

-0.751236 -0.156732 1.23091 
-0.388152 0.318805 0.100665 
-5.45309e-18 4.47153e-18 1 

-0.260539 -0.409658 16.7605 
0.467276 0.265861 2.45468 
-9.34221e-20 -1.01289e-18 1 

-2.12264 0.74148 -4.13882 
0.283173 0.479909 0.756837 
-1.51299e-17 -3.22677e-18 1 

-0.295037 0.155476 0.388543 
-0.118514 0.0965764 -0.0777973 
-5.11847e-18 -1.43071e-17 1 

-0.364789 -0.157072 -0.366958 
0.28287 0.157206 -0.150668 
2.48899e-17 6.15095e-18 1 

-0.310075 0.272947 1.19661 
-0.264276 0.139886 0.850946 
-6.38044e-19 2.5123e-18 1 

-0.651838 -1.51855 0.700066 
0.395113 0.430628 1.89058 
-2.33517e-17 -6.56491e-18 1 

-0.134273 -1.95511 4.23639 
0.405855 0.185909 -0.682803 
-1.4841e-18 -9.89683e-18 1 

-0.282667 0.0222184 -8.103 
-0.0567177 0.123208 1.49049 
7.4541e-18 -4.87075e-18 1 

-0.769346 0.969029 -7.75554 
0.22719 0.607828 -1.99521 
-7.65865e-18 5.11287e-18 1 

-4.85325 -0.00470898 -3.75366 
-0.176216 0.597907 0.667397 
2.93646e-17 7.64032e-18 1 

0.29728 0.681399 -2.12372 
-0.929045 0.318808 1.34456 
-5.75864e-18 4.98453e-18 1 

-2.71533 -0.383247 4.29875 
-0.169711 0.731221 -1.81527 
1.02871e-17 1.13849e-17 1 

-3.67873 0.542594 -15.9628 
0.478144 0.236458 -0.258882 
-1.01866e-17 8.97805e-18 1 

-8.92057 -2.21381 -112.722 
-0.735282 0.952645 15.6586 
1.12387e-17 -7.47069e-18 1 

-1.03258 -0.682397 -5.40399 
0.137692 0.527994 3.87634 
-5.93255e-18 4.3042e-18 1 

-2.69388 0.920141 -0.914852 
0.847232 0.24117 0.363475 
-3.46113e-17 1.2314e-17 1 

-0.0893468 0.0244714 -0.217295 
0.407854 0.0325049 -0.158669 
5.57824e-18 -1.55775e-17 1 

-0.498827 -1.69424 1.98114 
0.468799 1.0998 2.05888 
-2.16125e-17 3.85938e-19 1 

-0.505285 0.253586 -0.557982 
0.0860253 0.0686616 -1.24243 
2.53114e-18 1.96594e-19 1 

-0.271431 -0.103514 0.409334 
0.0745561 0.014756 -0.338755 
3.83921e-18 -1.16845e-17 1 

-0.284435 -0.196895 -0.475014 
0.072101 0.146152 -0.847171 
2.20203e-18 2.23376e-18 1 

-0.119433 0.429156 0.18258 
-0.690168 0.211098 0.340801 
4.50774e-18 -6.86894e-18 1 

-0.31996 -0.044031 0.42463 
0.0463024 0.201296 0.320657 
7.41463e-18 5.72559e-19 1 

-1.97031 -1.19016 0.81353 
-0.0396443 0.685739 -0.441893 
-6.60352e-18 5.77808e-18 1 

-1.1732 -0.834685 0.574307 
-0.163826 0.527296 0.927236 
1.03105e-17 -7.30642e-18 1 

-0.0932134 0.19134 1.82134 
-0.489022 0.243009 0.29363 
-1.36704e-17 -6.47754e-18 1 

0.315469 -1.04117 0.0357487 
0.864419 0.689918 0.731517 
1.16212e-18 -4.86302e-18 1 

-0.691065 0.0904618 0.574611 
0.37776 0.321273 0.902457 
1.54173e-18 -4.88216e-18 1 

-0.312487 0.479249 -6.83832 
-0.36692 0.310516 6.30628 
2.04682e-18 2.4075e-19 1 

-1.5709 -0.747486 0.238176 
1.06469 0.790445 0.320687 
-1.05882e-17 1.98529e-18 1 

-0.64164 0.171533 -1.13957 
-0.06 0.330313 0.61735 
-1.01937e-17 6.25974e-18 1 

-0.87768 -0.402188 0.0313106 
0.213165 0.299231 -0.36425 
-1.2075e-17 -3.60302e-17 1 

-1.09592 -0.0478807 1.74638 
-0.262306 0.334063 0.28353 
1.15073e-17 -5.70088e-18 1 

-0.335166 -0.122274 -1.07844 
0.240641 0.0125342 0.672912 
8.91637e-19 4.45819e-18 1 

-0.65302 1.29628 3.16173 
0.382124 -0.253353 -1.66654 
-2.01937e-17 2.42325e-17 1 

-0.396716 0.00991518 -0.838105 
-0.159167 -0.0957462 0.167781 
6.81482e-18 -1.96332e-17 1 

-0.730121 -1.004 -0.281804 
0.0966845 0.43622 -0.614023 
-1.20626e-17 -3.83166e-18 1 

-0.101673 -0.613442 0.0891491 
0.561668 0.279352 -0.646912 
-4.66e-19 -1.34266e-17 1 

-0.210132 -0.711662 0.545754 
-0.212052 -0.0762983 -1.69299 
-7.65697e-18 -1.10477e-17 1 

-0.507513 0.112612 0.529129 
-0.453322 -0.0212945 -1.23987 
1.21151e-17 -6.92753e-18 1 

-0.100589 -0.671033 -0.259984 
0.50628 0.234838 -0.335305 
-1.67369e-17 6.82344e-18 1 

-0.9993 0.123158 -0.538879 
-0.374857 0.491682 -1.87902 
2.51743e-17 -1.42901e-17 1 

-5.35945 -0.674473 11.951 
0.367585 0.763427 0.12917 
-9.33559e-19 1.65082e-17 1 

-1.34622 -1.96698 -2.49123 
-0.225372 0.151978 0.686562 
-2.33892e-18 -2.33892e-18 1 

0.527295 -1.75036 0.475331 
0.88592 1.03795 0.275326 
-1.02162e-17 -5.63079e-18 1 

-0.455156 0.517539 2.26267 
-0.389343 0.433754 -0.20531 
4.80669e-18 -6.61252e-18 1 

-0.281816 0.666026 -0.196794 
-0.572938 0.122951 -0.0164783 
-1.59622e-17 -2.02447e-17 1 

0.0398521 -0.89766 -0.197538 
0.653307 0.34194 0.405368 
1.0051e-17 -1.35377e-17 1 

-1.87975 -0.852779 1.32835 
0.131838 0.629746 -0.872149 
-4.70388e-18 2.91193e-18 1 

0.15898 0.630997 -0.583929 
-0.629265 0.308444 0.625067 
-1.10807e-17 1.30361e-19 1 

0.268373 0.284753 0.550414 
-1.10496 0.14093 0.763305 
-1.24515e-18 -3.12735e-18 1 

-0.605907 0.222241 0.433439 
-0.143921 0.380584 0.632377 
-4.0947e-18 -4.0362e-18 1 

-0.259563 -0.576678 0.284992 
0.524197 0.15203 -0.396246 
-1.33764e-17 -2.40136e-17 1 

-5.1078 -0.648905 -22.2318 
-1.62349 1.13382 2.52152 
1.71078e-18 -4.64486e-18 1 

-0.212408 0.0947924 -0.253735 
-0.0245986 0.0456417 -0.765975 
-1.66751e-18 -7.21519e-20 1 

-2.05273 1.99538 2.09919 
0.314734 0.738826 0.942658 
2.28869e-18 -9.63658e-18 1 

-0.111084 -1.32359 -0.708442 
0.215117 0.24522 0.595745 
-4.74257e-18 -3.24237e-18 1 

-0.247257 0.150646 -0.301536 
0.148837 0.114376 -0.869735 
-8.08952e-19 -4.04476e-18 1 

-2.39499 -1.09784 3.21402 
0.421656 0.641122 0.0610333 
-5.91382e-18 5.43549e-18 1 

0.586452 -0.912302 -0.0818382 
0.938229 0.519391 0.101925 
4.5949e-18 -2.43896e-18 1 

-0.547376 -0.0865662 0.399532 
0.303921 0.392697 -0.0860982 
-5.53532e-18 1.9758e-18 1 

-0.644863 -0.521292 3.69321 
0.119588 0.179607 -3.35088 
1.82026e-17 3.91528e-18 1 

-0.233109 -0.108301 -0.371543 
-0.0984611 0.0691913 0.0215312 
-2.31408e-18 8.22388e-18 1 

-1.54759 -0.180141 17.2288 
0.190802 0.615053 4.22258 
6.44247e-18 -2.37834e-17 1 

-2.19766 -0.16179 -18.2717 
0.23381 0.480959 0.0062469 
-1.42586e-18 2.16918e-18 1 

-0.719128 0.63906 -1.52408 
-0.476987 0.465278 -2.65933 
-5.96257e-18 -1.2952e-17 1 

-0.489892 1.93377 6.48993 
-0.00354787 -0.0743669 -0.423971 
-1.60639e-18 -5.60958e-17 1 

-0.286389 -0.843243 -4.95726 
0.735573 1.07264 -3.48867 
-4.63623e-18 3.7279e-18 1 

-1.6988 0.538443 -99.6584 
0.0315109 0.673404 -8.49116 
-9.57203e-19 1.89401e-18 1 

-1.34839 0.332218 116.494 
0.137449 0.238101 22.9264 
-1.73501e-18 2.17652e-18 1 

-0.55781 0.0376972 -7.65453 
-0.0729341 0.0393477 -1.09081 
4.30739e-18 -6.91679e-18 1 

-1.61308 1.0688 -0.0153795 
-0.40396 0.321392 0.195044 
3.7109e-18 4.45308e-18 1 

-0.498964 0.459846 0.239117 
-0.252752 0.157929 0.0557416 
-1.00711e-17 3.28635e-17 1 

-1.58108 3.30827 -73.6114 
-0.648305 1.19268 -10.7954 
2.21571e-18 -3.94974e-18 1 

0.223356 -0.872085 0.0867371 
0.946104 0.695767 -0.596097 
-1.31082e-18 -4.34699e-18 1 

-0.503952 -0.123723 1.2519 
0.0182788 0.149634 -2.82764 
-7.54489e-18 4.15585e-18 1 

-0.263783 -0.217386 -0.489455 
0.094047 0.0215536 0.602901 
1.08635e-18 -8.08242e-18 1 

-0.94999 0.146456 -0.061171 
0.495171 0.382996 -0.374722 
1.06589e-17 1.39462e-18 1 

-0.861995 -0.66822 2.4191 
0.7256 0.288279 -1.8574 
3.29849e-18 2.04282e-18 1 

-1.24696 0.365338 -0.504732 
-0.156716 0.415562 0.404898 