# vtk DataFile Version 3.0
Output file generated by Yade's KinematicLocalisationAnalyser
ASCII
DATASET UNSTRUCTURED_GRID

POINTS 13483 float
476.55 41.6888 -0.501841
570.017 80.1651 0.466089
108.908 6.09782 -0.437987
597.354 8.07292 0.548113
415.172 9.23346 0.380463
284.649 38.3102 -0.644699
142.933 7.54284 0.475703
465.798 12.3205 -0.214041
411.753 31.3795 -0.171732
544.174 18.9184 0.536378
191.974 8.80127 -0.130686
234.243 6.6679 0.400627
500.575 75.0366 -0.159101
507.721 18.6649 0.0959312
124.964 18.5304 0.436057
201.504 35.749 -0.409955
198.934 13.1038 -0.294455
262.067 11.1326 0.511338
308.364 35.6644 0.545083
435.611 8.47512 0.561236
365.874 57.7757 -0.127451
475.564 79.4747 0.253942
585.381 64.5224 -0.452539
537.784 84.8544 -0.551904
388.205 30.7719 -0.348613
217.4 48.5892 0.134345
408.3 39.7124 0.504194
474.266 29.3738 -0.268416
40.7002 16.5783 0.511438
560.718 84.9867 0.376205
400.726 7.69038 -0.461403
15.8943 25.8594 -0.280184
579.986 87.8962 0.28893
410.55 2.18354 0.642612
71.3656 47.0998 0.112257
429.792 38.6583 -0.3745
434.774 22.9521 -0.511183
310.096 25.4046 0.224961
438.379 34.8113 0.33174
315.532 38.4518 0.561632
221.298 15.2494 0.310251
385.087 54.7811 -0.0752672
516.39 35.7802 0.132168
175.226 6.30441 0.366022
49.5577 8.15124 -0.088012
60.7122 9.49365 0.301039
528.338 22.1405 0.685835
21.4959 12.515 0.299202
477.254 63.9288 0.396161
517.426 62.5183 0.330542
155.156 34.7327 -0.314611
573.618 67.5284 -0.161542
29.2583 32.5904 0.115342
443.528 4.51955 0.613973
130.242 7.89065 -0.568542
470.945 58.2783 -0.38499
413.644 36.0022 -0.126464
159.393 0.995889 -0.314644
29.8129 2.38943 0.340563
315.002 19.6178 0.331711
479.47 72.2473 -0.147905
409.129 55.5162 0.17805
352.765 1.02069 0.216368
535.866 16.2181 0.630809
22.1897 48.9615 0.236246
232.859 36.7844 -0.369996
545.6 11.7938 0.382073
516.623 90.6691 -0.361117
368.81 11.3819 -0.584201
463.747 4.03407 -0.348354
554.115 55.8211 0.423713
119.586 7.69119 0.282372
413.972 31.1305 -0.137228
400.792 22.2454 -0.200957
268.405 17.3643 -0.356204
19.047 14.6167 -0.353752
591.776 87.5813 0.310885
302.158 44.5142 -0.391808
516.669 54.481 0.389025
527.615 34.7079 -0.266252
587.627 13.3055 -0.222182
410.058 57.5086 -0.17735
84.8031 40.4888 -0.288022
527.117 72.6406 -0.232363
490.24 79.3074 0.114684
591.671 69.803 0.113283
582.191 0.749779 -0.584783
265.118 30.5318 0.468054
503.519 5.80982 -0.151954
22.8328 6.35581 0.650239
119.548 45.5438 -0.197325
427.084 15.5036 0.229842
582.271 54.1011 -0.582572
177.551 29.9421 0.280606
38.897 38.3915 0.288704
409.366 1.17637 0.121927
216.724 9.90004 -0.345068
553.885 65.1113 0.288226
575.842 53.5137 -0.231742
324.796 25.6064 -0.270187
146.955 30.0166 -0.438331
449.048 51.7286 -0.577616
342.186 21.9434 0.564784
368.571 44.8366 0.106988
338.618 9.43418 0.454963
451.013 17.4815 0.235672
593.845 25.6844 0.199358
73.1227 41.6894 0.424746
304.223 5.74771 -0.205296
460.18 11.7274 -0.54005
324.236 51.1393 0.530632
22.6839 27.2982 -0.469949
28.3943 6.12998 0.29983
460.635 67.3009 0.41084
416.831 30.9412 -0.16775
21.6675 42.6344 0.423565
84.1094 31.5007 -0.244436
295.64 16.6804 -0.407615
486.963 25.0152 0.14486
417.218 67.8503 0.274821
560.217 15.7607 -0.415214
553.762 10.6045 -0.245779
349.978 46.9834 -0.140873
500.522 38.1249 0.106561
219.841 17.0557 0.558487
301.141 3.85731 0.062679
94.3083 32.2078 -0.421826
106.254 25.7629 0.273465
447.145 56.493 0.0681802
279.603 20.0385 0.491392
556.068 86.3753 0.102687
519.28 88.24 -0.124676
405.944 26.6335 -0.399024
580.009 27.8492 0.325133
377.651 39.8861 0.24563
253.812 27.6497 -0.309527
516.132 74.5633 -0.32361
255.643 32.1612 -0.39504
468.721 20.3704 0.214046
303.22 41.3721 0.191383
421.819 11.8925 0.685909
333.023 38.5236 -0.0987027
373.369 30.4833 0.117472
290.387 49.2223 0.45374
174.111 32.1595 -0.131726
574.134 82.5473 0.15928
592.127 28.1653 -0.472673
5.93399 12.705 0.457972
376.815 35.0886 -0.428194
33.9508 25.0237 0.0756193
342.644 38.9673 -0.498493
357.671 36.8433 -0.276377
67.3157 12.32 -0.520478
46.0632 37.0634 0.517936
208.552 14.9162 0.438622
487.278 47.9544 0.49079
471.869 32.0133 -0.458419
67.1045 22.6321 -0.517483
537.302 89.5278 -0.407095
566.902 2.32688 0.638222
506.799 91.5412 0.443969
538.72 5.27185 -0.684906
457.543 43.1095 0.463753
476.509 77.9221 0.433507
430.816 18.2211 -0.565033
595.829 6.70175 0.462413
206.243 26.0329 0.130321
116.047 38.0376 0.216263
227.716 7.45904 0.467599
85.3616 4.81487 0.262237
57.5219 11.8727 0.244724
253.88 39.764 -0.391575
17.0059 27.5213 0.361339
460.081 27.1599 -0.494147
480.9 53.313 0.271122
397.12 34.9056 -0.35684
593.771 101.868 0.37151
363.106 8.69939 -0.138459
389.079 56.2056 0.54365
448.482 4.08135 0.174973
21.2269 24.7832 0.415062
474.216 3.80904 0.633756
452.969 7.13504 0.442983
190.373 11.3639 0.515716
370.395 32.2147 -0.22243
285.768 6.68709 0.410375
349.94 23.5484 -0.397632
540.507 64.7532 -0.105176
175.582 27.123 -0.460762
575.436 6.11386 -0.532088
541.307 60.1089 0.391079
345.23 14.2793 0.315338
551.467 2.19552 -0.468378
486.865 33.8017 -0.422997
558.696 30.5364 -0.435745
386.112 64.88 -0.310864
418.216 13.807 0.527641
408.351 69.4671 0.224789
384.73 15.4945 0.161389
510.226 89.5048 0.143404
507.201 87.3245 0.324353
177.772 42.6005 0.354941
585.681 12.2182 -0.209063
474.769 68.7902 -0.244603
10.9764 18.555 0.261244
364.092 37.7047 0.336057
172.299 25.7978 -0.446897
86.4704 41.2279 0.219091
586.417 50.9975 -0.506246
499.092 93.5837 0.102794
291.801 28.8008 0.335503
443.892 15.1144 0.341221
76.342 46.655 0.18203
229.624 29.922 -0.470981
456.294 38.3424 0.393751
411.578 22.1289 -0.436602
242.343 0.900306 -0.418621
449.96 61.3555 -0.377952
443.411 51.961 -0.569211
428.202 67.2535 -0.44543
420.077 2.17323 -0.650011
536.311 34.0169 -0.40934
165.314 13.6203 0.214215
417.612 45.7166 0.489532
455.419 72.297 0.119115
66.2793 0.965932 0.323835
231.96 4.38573 0.221351
590.299 29.0202 -0.285444
586.646 15.0298 -0.541262
595.638 31.3782 -0.578834
278.499 8.67984 -0.277178
557.515 46.4541 -0.603161
365.112 64.5524 -0.274045
386.987 2.05638 -0.655804
496.537 81.7201 -0.448092
23.1679 36.602 -0.432115
302.87 48.7491 -0.61368
233.429 2.88528 0.547597
584.954 89.6063 0.169817
555.937 99.1951 -0.216482
264.244 12.4906 0.293069
511.481 72.628 0.0986299
460.718 2.5647 0.358322
450.637 11.6033 0.677771
88.588 19.0938 -0.514871
278.599 1.15647 -0.256112
313.466 2.4113 -0.305211
13.1181 7.86282 0.547728
4.37067 31.5646 0.301238
149.019 20.1673 0.377765
62.3872 45.829 -0.210387
59.0468 33.1734 -0.318887
370.824 24.2212 -0.583679
335.387 42.3117 -0.500378
571.36 67.7228 0.128957
18.7861 4.24895 -0.272872
63.4609 7.68277 -0.13333
491.66 57.9817 0.161381
270.277 0.940252 0.448725
330.166 21.4568 -0.101575
218.201 4.86024 0.429102
501.022 53.0345 -0.193717
389.885 14.1662 0.495797
557.924 43.6193 -0.448147
499.856 61.9565 -0.359322
517.199 50.7683 0.0736001
377.497 44.2188 0.482835
94.1712 48.0943 -0.305381
441.833 62.189 0.073136
561.458 23.893 0.396401
220.854 33.3147 0.275807
29.5703 19.0634 -0.211098
308.569 15.7024 0.497671
98.8338 42.536 0.476426
247.677 47.0754 -0.255645
377.269 2.4632 -0.196903
586.805 73.0728 -0.506103
536.868 0.761687 -0.629216
304.616 4.0881 0.548738
276.696 28.6525 -0.146801
409.419 66.154 -0.195389
74.2305 8.7246 0.524945
183.813 48.2958 0.376708
575.226 61.3215 0.429871
443.572 73.5592 0.06313
184.361 43.6128 -0.286985
146.909 46.1599 0.481426
594.175 64.8609 -0.395423
592.239 26.2965 -0.628077
494.601 4.47843 -0.626016
175.538 25.3235 0.0988542
459.69 50.9468 -0.10527
461.149 52.4197 0.288464
367.685 6.53646 -0.19781
404.482 0.936112 0.444236
568.455 68.5409 -0.549041
77.795 32.6032 -0.265163
505.927 52.3944 -0.527724
252.484 16.4198 -0.431701
8.85762 2.40738 -0.317218
116.213 42.3649 -0.185602
60.2835 25.1697 -0.491725
548.88 84.7931 0.342698
581.35 97.3578 -0.196849
170.203 31.3097 -0.188905
590.092 22.6213 -0.506632
40.4444 40.3454 -0.292813
82.868 29.98 0.160066
516.164 17.6463 0.492866
363.651 24.001 -0.488299
432.957 23.1228 0.129642
222.008 31.6363 0.234267
509.034 5.27277 0.745553
596.437 26.7401 0.437603
25.7668 37.2695 -0.270424
249.252 8.22815 -0.286252
206.438 16.669 0.328083
1.0652 36.1082 0.157739
209.518 15.9156 -0.418849
196.638 11.0491 0.13416
197.969 27.71 -0.286205
123.424 31.448 -0.128571
455.332 23.0296 0.495364
155.453 15.4428 -0.388981
579.957 86.0784 -0.315909
161.471 3.89114 0.510949
42.2619 42.5424 -0.347848
559.511 78.1339 0.424162
260.581 35.2203 -0.419988
520.648 59.3221 0.468099
581.021 59.6585 -0.529806
276.691 9.36457 0.161769
545.346 51.4412 0.327578
302.482 2.57332 -0.4031
369.187 37.0483 0.427154
520.89 46.1279 -0.649785
97.3705 12.7493 0.553064
406.507 3.97497 -0.460148
558.907 38.5509 -0.22951
80.6524 7.71545 0.223629
259.832 16.1412 0.212207
373.431 21.9062 0.264172
595.159 3.77805 0.699571
357.402 1.88272 -0.612534
162.628 41.899 -0.291485
565.268 21.5411 -0.5047
117.528 39.4483 -0.198257
243.148 36.1818 0.397791
357.13 27.4713 -0.22362
471.417 21.928 -0.385767
347.437 10.1037 -0.471738
412.713 50.7443 -0.538964
571.195 80.6907 -0.41523
43.813 12.6915 -0.125856
276.279 40.8478 -0.263282
349.465 37.0821 0.402333
361.315 27.1315 -0.243588
436.387 57.6159 0.435499
562.518 63.8142 0.26215
511.143 82.0335 -0.347119
209.617 35.6973 -0.349485
12.7339 34.1447 0.195101
505.384 88.1871 -0.120582
426.586 50.8058 -0.507958
213.109 40.8765 0.128053
531.833 71.1523 -0.122048
140.329 10.0845 0.174906
333.248 26.594 0.262103
410.086 68.184 -0.131033
363.351 26.7395 -0.20231
566.352 80.85 0.31617
376.446 7.3063 0.549208
44.2656 29.0941 -0.32246
420.459 62.1003 -0.375165
390.989 62.5967 0.362702
586.777 83.1313 0.246704
547.867 46.5919 -0.262769
450.637 29.1925 -0.183746
579.568 77.8164 -0.461126
270.053 2.2212 -0.508271
347.743 38.7417 0.537937
24.7421 44.563 -0.30094
546.21 53.2404 -0.20843
496.394 24.0677 -0.648291
394.108 0.882486 0.694031
116.759 4.64427 -0.359526
383.311 60.1073 0.128655
11.203 0.856753 0.328925
593.674 10.2308 0.28132
338.066 48.8406 0.497505
500.04 6.60869 0.537162
[...]
POINT_DATA 13483
TENSORS Strain_matrix float
-0.579099 -0.0597958 -5.92297 
-0.429257 0.286017 3.80416 
3.06811e-18 3.51555e-19 1 

-1.68343 1.3168 8.36593 
0.38043 0.842515 6.6891 
-1.5789e-18 -7.9603e-19 1 

-0.175759 -0.125497 0.17911 
0.0858316 -0.0309162 0.494738 
-7.35972e-18 9.37853e-18 1 

-2.62777 -0.521643 -1.33344 
1.50081 0.882469 0.733026 
-3.72591e-17 2.07744e-17 1 

-0.925281 0.321569 0.0693491 
-0.157966 0.365141 -0.059924 
2.38792e-18 8.49595e-18 1 

-0.262901 -0.193 62.3104 
-0.000929956 0.215589 -27.3097 
-1.4736e-18 6.2485e-18 1 

-0.208558 -0.0103774 -0.708711 
0.000442004 -0.00715599 -0.803488 
3.80549e-18 -2.8372e-17 1 

-0.430739 -0.377089 0.725692 
0.340786 0.011692 -0.223495 
-1.79062e-17 2.32211e-17 1 

-1.2884 -0.620972 -0.809976 
-0.483997 0.228863 -1.11503 
2.13176e-18 -1.66123e-17 1 

-0.737849 0.194356 3.91859 
-0.646256 0.190017 2.5651 
5.08436e-18 2.47347e-18 1 

-0.145537 -0.00694146 -0.0382627 
0.0160062 -0.0746701 -0.106964 
1.19375e-17 -1.35653e-17 1 

-0.297622 0.0822072 -0.110747 
-0.0314675 0.0657352 0.0356056 
-2.03478e-18 -1.05901e-17 1 

-1.91792 -1.80824 4.62121 
0.419185 0.574171 -0.599376 
1.13446e-17 -4.92477e-18 1 

-0.56191 -0.238221 0.449141 
0.0919827 0.125746 -0.0917438 
-6.32691e-18 9.57148e-18 1 

-0.3146 -0.0878083 0.114936 
0.166921 0.140947 0.294402 
1.03229e-17 6.05133e-18 1 

-0.159136 -0.035522 -0.363512 
-0.0261511 -0.0142154 0.168763 
-1.50814e-17 4.30018e-18 1 

-0.122294 -0.107222 0.0834513 
0.0404915 -0.0686621 -0.00633154 
7.11636e-19 0 1 

-0.373172 0.0825867 -0.0302264 
0.134095 -0.125682 -0.21325 
2.75958e-18 -9.7735e-19 1 

-0.496513 0.0442634 -4.52862 
-0.0703494 0.212777 4.50447 
1.81156e-18 6.18257e-18 1 

-0.256541 0.150446 1.19266 
-0.152878 -0.0537643 -0.733331 
6.80521e-18 -4.9855e-18 1 

-0.256983 -0.546895 -0.547753 
0.219309 0.292005 -0.630568 
-5.74744e-18 -6.04067e-18 1 

-0.855576 0.617623 -0.767318 
-0.759662 0.409798 -2.39532 
2.97545e-18 -7.2479e-18 1 

-1.22933 0.0366148 -2.88324 
0.0383656 0.734973 1.59915 
-1.03391e-17 4.89748e-19 1 

-1.00924 -0.608637 278.859 
0.00461349 0.620574 -5.96628 
1.00861e-18 7.24168e-19 1 

-0.736524 -0.068142 -2.77128 
0.237176 0.308022 1.40645 
-6.86848e-18 4.63915e-18 1 

-0.181679 -0.330605 -0.44017 
0.268671 0.125777 -0.019568 
1.32796e-17 -7.17818e-19 1 

-3.16382 1.66079 22.1088 
-0.860571 0.685606 0.507587 
-2.53844e-18 8.66883e-19 1 

-1.094 0.00552374 -1.35919 
-0.228848 0.363988 -0.201817 
-1.11128e-17 -9.58088e-19 1 

-0.270993 -0.114979 0.489687 
0.205575 0.0403907 2.69628 
4.85434e-18 1.77009e-18 1 

-0.389213 -0.250069 -0.956857 
0.516235 0.156151 -0.281383 
-7.98565e-18 -9.27366e-18 1 

-0.422968 -0.293168 -0.828556 
0.0693829 0.112493 -0.221521 
-3.46652e-19 -6.75972e-18 1 

-0.320382 0.080549 0.843184 
0.106441 0.173469 0.890502 
-7.67345e-18 -5.82794e-19 1 

0.449637 -1.0548 0.108266 
0.801273 0.31476 0.628209 
-2.12141e-18 -1.58698e-17 1 

-0.529676 0.171581 4.31074 
-0.120414 0.262989 -3.47269 
-1.1419e-17 -1.44818e-17 1 

-0.0915289 0.123815 -0.0921351 
-0.182292 -0.0749721 -0.332388 
-4.12077e-18 -5.36908e-19 1 

-0.400967 -0.273273 -0.744764 
0.114912 0.149232 -1.76714 
4.67008e-18 1.76319e-17 1 

-0.548207 -0.398461 -9.11716 
0.0517074 0.435131 8.14888 
1.87289e-17 -4.45927e-19 1 

-0.484474 0.0867603 -0.369444 
-0.167734 0.104729 -0.00037563 
1.61737e-17 -6.77545e-18 1 

-0.136672 1.74783 -3.19033 
0.106357 0.446937 0.431062 
5.73513e-18 1.75638e-17 1 

-0.169445 -0.21409 0.153407 
0.11158 0.0279511 0.416537 
-1.26257e-17 5.42512e-18 1 

-0.182992 -0.035968 0.230695 
0.0224492 -0.0716345 -0.581562 
-1.51198e-18 1.50367e-17 1 

-0.201694 0.0302808 0.352488 
0.157087 0.136381 0.74479 
2.62919e-18 -2.79882e-18 1 

-0.723829 0.212514 -0.186599 
-0.610563 0.576371 0.239787 
1.20791e-17 -1.26909e-17 1 

-0.151011 0.0439801 -0.137412 
-0.117508 -0.0590692 0.516722 
3.20889e-18 2.60722e-18 1 

-0.293633 -0.191034 0.119765 
0.322137 0.125242 -0.0241571 
-9.33153e-18 7.60347e-18 1 

-0.250803 -0.147177 0.267552 
-0.0883904 0.0527598 -0.665319 
2.26563e-18 -1.94197e-18 1 

-1.65669 -0.561762 10.4084 
-0.601784 0.401514 -7.72082 
1.56235e-17 -4.59981e-18 1 

-0.055924 0.0176812 0.0354701 
0.00726924 -0.135321 -0.0153404 
-1.70586e-18 4.35943e-18 1 

-2.21314 -1.64491 -6.39688 
0.1957 0.553836 1.17386 
8.07228e-19 8.52074e-19 1 

-2.02665 -0.168108 -6.24741 
-0.273597 0.79621 -2.09264 
4.65399e-18 -4.9838e-18 1 

-0.252622 -0.0223495 -0.304317 
0.190609 0.106074 -0.684086 
6.78061e-18 -6.3986e-18 1 

0.085066 -0.577725 -0.441187 
0.733186 0.236246 -0.740266 
-1.15068e-18 1.28694e-19 1 

-0.293345 0.377466 -0.0724519 
-0.277005 0.250555 -0.270569 
6.7062e-18 -1.05417e-17 1 

-0.624608 0.0378572 2.10883 
-0.00376941 0.121505 -1.28099 
1.32405e-17 -2.81003e-18 1 

-0.436783 -0.145767 0.194367 
0.216605 -0.0449401 0.0707563 
1.80273e-17 2.21784e-17 1 

-1.15185 0.352931 1.15136 
-1.40003 0.679618 -2.10078 
-1.79982e-18 -1.23084e-17 1 

-0.864131 -0.323894 0.122603 
-0.0593284 0.415778 0.379743 
4.35755e-18 -3.52521e-18 1 

-0.173321 -0.0852625 -0.259413 
0.00370039 -0.0597621 0.197729 
-6.60992e-18 -6.7738e-18 1 

-0.112088 0.0770671 0.301975 
-0.0702589 -0.077724 0.310772 
-1.46051e-18 -5.24901e-18 1 

-0.0945854 0.198663 0.294492 
-0.136518 -0.134458 -0.425882 
1.24632e-17 6.23162e-18 1 

-9.42166 4.82938 -6.36852 
-0.587807 0.69519 -1.47445 
9.08339e-18 5.5998e-18 1 

0.120288 -0.992458 -2.29474 
0.488757 0.300946 0.646224 
-1.16958e-18 1.28415e-17 1 

-0.1591 -0.22989 -0.373066 
-0.0423572 -0.0858058 -0.144647 
-1.99708e-17 2.45449e-17 1 

-1.65006 -1.10338 -9.82565 
-0.216313 0.283671 -0.465495 
1.03237e-17 -8.08607e-18 1 

-0.231762 0.103734 0.305159 
-0.0366674 0.0763866 0.302726 
2.35236e-18 -4.255e-18 1 

-0.336234 -0.0215834 -0.786096 
0.0655045 0.0812831 1.10478 
8.05474e-18 -8.97327e-18 1 

-0.562377 -0.407639 0.349534 
-0.192916 0.132026 0.0265187 
2.04305e-17 -9.69582e-18 1 

0.0269861 0.596989 1.67694 
-0.395508 0.195121 0.269664 
-3.03803e-18 6.90839e-18 1 

-0.528136 -0.583731 11.533 
0.413329 0.450239 0.96883 
3.05993e-18 2.79265e-18 1 

-0.600368 0.312649 -0.0642965 
-0.263087 -0.0282097 -0.0148038 
-6.04919e-18 -1.79349e-17 1 

-0.70887 -0.80639 -0.570387 
0.0151789 0.216495 -1.31673 
-1.55852e-17 -9.82001e-18 1 

-0.13737 0.0544559 0.0422163 
-0.0422151 -0.0461292 0.107148 
-6.22903e-18 3.57471e-19 1 

-1.83099 -0.0672839 0.976147 
-0.0846815 0.52102 -1.03713 
-5.33112e-18 8.17671e-18 1 

-0.427042 0.312058 0.878299 
-0.859486 0.270787 -0.408215 
-9.02998e-18 1.0146e-17 1 

-0.218483 0.0544457 0.238481 
-0.0604484 0.0291981 -0.648826 
1.55248e-18 3.91249e-18 1 

-0.242603 0.0263132 0.307781 
-0.0385404 -0.0435159 0.312347 
8.22901e-18 -2.51548e-18 1 

0.153212 -0.791305 -0.498193 
0.809906 0.403238 0.299942 
2.29269e-17 -8.28066e-18 1 

-0.325837 -0.215294 0.843709 
0.0890866 0.183684 -0.30733 
6.30714e-18 1.5997e-18 1 

-1.0673 -0.831441 2.41964 
-0.276502 0.50381 1.06249 
1.66646e-18 2.74512e-18 1 

-0.598933 0.316178 -1.44357 
-0.717647 0.407827 -0.512239 
1.00621e-17 8.38508e-20 1 

-1.06613 -0.541776 0.499172 
0.487363 0.303473 -0.129312 
3.06229e-18 8.80408e-19 1 

0.01332 -0.869833 -1.40759 
0.445909 0.258953 0.0540389 
5.01994e-18 5.60237e-18 1 

-0.102101 0.026736 0.696116 
0.0369108 0.0267054 0.170706 
-9.71564e-18 -1.46145e-17 1 

-0.109713 -0.148733 -0.366492 
0.076924 -0.0572422 -0.0245232 
5.09708e-18 9.66074e-18 1 

0.262899 -0.958369 -0.17528 
0.872832 0.56544 -0.687458 
-2.49149e-18 1.41453e-17 1 

-0.862755 0.148064 0.430682 
-0.136915 0.278617 0.350238 
7.90144e-18 1.15435e-18 1 

-0.755544 -10.3823 -0.760154 
0.0182304 0.0275888 -1.01379 
-1.29673e-19 -9.6131e-17 1 

-0.137727 0.101225 0.0397943 
-0.187123 -0.114048 -0.00998165 
9.15861e-18 1.09505e-17 1 

-0.414871 -0.251568 -0.870616 
0.415832 0.00882148 0.179444 
3.1976e-18 -6.45381e-18 1 

-0.241831 -0.00174645 -0.755152 
0.0317313 -0.0243609 1.44297 
-6.79223e-18 1.16795e-17 1 

-0.477243 -0.272525 -0.0355383 
0.172743 0.306523 0.22342 
2.81516e-18 6.98235e-20 1 

-0.369187 0.393658 0.111554 
-0.134839 0.0161744 0.306234 
3.95462e-18 2.96597e-18 1 

-1.81717 -2.9977 26.1063 
-0.276398 0.440116 2.56007 
-1.14003e-17 -5.45641e-18 1 

-0.131915 0.151021 -0.0448172 
-0.231414 -0.0136717 -0.0590545 
-1.32207e-17 2.07177e-18 1 

-0.126502 0.158303 -0.101194 
-0.120477 0.0783188 1.07136 
6.77507e-18 6.76444e-18 1 

-0.25787 0.287293 -0.153764 
-0.00238882 -0.0522876 -0.0497755 
2.81555e-18 8.14343e-17 1 

-0.114823 0.151808 0.388021 
-0.198554 -0.0885299 -0.509755 
-3.38921e-18 1.05913e-17 1 

-0.137242 -0.317284 0.110696 
0.0602177 -0.0229154 0.201489 
6.45162e-19 -5.22494e-18 1 

-1.81215 -0.944945 -1.29783 
-0.620146 0.232405 -1.31733 
-2.66207e-18 -8.14098e-18 1 

-0.421938 0.583932 1.78264 
0.141216 0.170943 1.31643 
-1.1823e-17 8.76252e-18 1 

-0.115999 -0.111577 -4.26793 
-0.0350214 0.0406802 -0.199856 
1.33705e-17 -3.44964e-18 1 

-0.508968 -0.805647 3.62036 
0.728943 0.382598 -5.63393 
-1.0007e-18 -1.22474e-17 1 

-0.4997 0.270731 -0.124552 
0.0345386 0.0884881 0.69281 
-2.68669e-17 -7.6005e-19 1 

-1.43026 0.700692 -1.07095 
-0.342366 0.299933 -0.253372 
1.45962e-18 5.58231e-18 1 

-1.11919 0.0109071 -0.705815 
-0.220811 0.180635 0.336993 
-1.01442e-17 -1.2936e-17 1 

-0.720878 -0.105007 0.0842711 
0.128429 0.272318 -1.06677 
4.32036e-18 -3.88522e-19 1 

-0.785211 -0.17559 0.815529 
0.365425 0.175646 -0.653951 
1.16847e-17 -1.01222e-17 1 

-0.154557 0.126594 -0.184588 
-0.178508 0.000668479 -0.257379 
3.13254e-18 1.85582e-17 1 

-0.265579 0.15372 0.00845505 
-0.117604 -0.0916941 -0.0414933 
3.70984e-18 5.47884e-18 1 

-0.449205 0.179133 -3.70628 
-0.227543 0.0562456 -0.426081 
-3.84658e-18 -2.51539e-17 1 

-0.406286 -0.105054 0.166702 
0.20555 0.269508 3.32305 
4.50454e-18 2.75398e-17 1 

-0.53323 0.104444 -0.76779 
0.00141402 0.288977 0.784605 
1.29244e-17 -1.45399e-18 1 

-0.283569 0.27727 -0.16793 
-0.271021 0.0112717 0.0382732 
-2.57192e-18 2.69606e-17 1 

0.225753 -0.916716 -0.457121 
0.816262 0.475723 -1.64486 
-8.62747e-18 -5.512e-18 1 

-1.34406 -0.315704 -5.51389 
0.226201 0.569221 0.884082 
2.33065e-17 -5.33522e-18 1 

-0.138211 -0.0731475 2.38756 
0.0537588 0.0143995 -1.26062 
-4.94754e-18 4.50776e-18 1 

-0.293272 0.144701 0.105082 
-0.270524 0.113958 0.0969707 
6.07882e-18 1.95067e-17 1 

-0.413162 -0.070271 -0.257598 
0.262406 0.0879625 -0.0146646 
-1.35238e-17 3.07696e-18 1 

-1.50138 -0.86762 1.22828 
-0.122872 0.540062 -0.0714186 
-3.39936e-18 2.69535e-18 1 

0.0543417 -0.515996 0.163207 
0.540022 0.160992 -0.118472 
-7.27314e-18 1.65983e-18 1 

-1.03742 -0.243695 -1.06532 
0.858999 0.444058 0.53833 
-1.80036e-17 -2.18225e-17 1 

-0.544056 0.0825881 0.26711 
-0.471681 0.0536557 0.0515484 
-8.6771e-18 1.24654e-18 1 

-0.102215 -0.58839 0.505117 
0.290944 0.153193 -0.252884 
-1.418e-17 7.6639e-18 1 

-4.84295 -2.56318 2.93286 
0.886435 1.03981 0.335835 
-3.2478e-18 8.82897e-19 1 

-0.200146 -0.0144522 -5.08454 
-0.00934839 0.042454 3.93834 
-4.8275e-18 -4.90351e-18 1 

-0.595889 -0.040567 -0.205983 
0.223023 0.174498 -0.333149 
3.41237e-17 9.74963e-18 1 

-0.139409 -0.108899 -0.17523 
0.0178072 -0.031557 -0.0751758 
-8.94337e-20 6.7746e-18 1 

-0.208097 0.0341966 -0.767477 
-0.245474 0.193922 1.8419 
-3.28829e-18 9.40115e-18 1 

-1.8598 -0.157333 1.84005 
0.326311 0.694747 0.976488 
-8.89204e-18 6.29153e-19 1 

-0.407226 -0.0606818 -0.953015 
0.263883 0.140071 0.0331976 
2.85247e-18 1.31526e-17 1 

-0.172159 -0.433942 0.65642 
0.37185 0.167037 -0.568812 
-7.18615e-18 -4.64986e-18 1 

-0.0342537 0.899332 0.156734 
-0.541897 0.431573 0.173231 
-7.10964e-18 -7.3261e-19 1 

-0.413828 0.451368 -4.27761 
0.154445 0.425528 -3.81358 
3.51468e-18 6.96946e-18 1 

-6.65906 -0.693287 -7.24769 
-3.4936 0.6293 -3.59917 
-9.18606e-18 1.62107e-17 1 

-0.829168 1.15257 -2.44751 
-0.253375 0.462325 -0.193611 
-1.81144e-18 -8.00924e-19 1 

-0.428303 0.316176 0.0944605 
-0.313845 0.30725 0.451275 
2.33174e-18 -5.83826e-18 1 

-0.140803 0.729047 -0.434413 
-0.480783 0.217405 1.02839 
8.97304e-18 2.83957e-18 1 

-0.111824 0.0761332 0.019496 
-0.0714818 -0.0446598 -0.349589 
1.07153e-17 -2.32942e-19 1 

-0.575554 0.0399498 0.443149 
0.529225 0.0647597 0.279797 
-7.57234e-18 -1.76688e-17 1 

-0.130213 -0.110214 -0.916546 
0.00485789 0.0575604 -0.331425 
6.87035e-18 -8.956e-19 1 

-0.473635 0.0942009 -0.042047 
0.0133068 0.0304156 -0.793575 
-8.25897e-18 -4.5963e-18 1 

-0.136192 -0.192856 -0.0155633 
0.0788776 -0.0179446 0.0353471 
1.56555e-18 6.02611e-18 1 

-0.0629416 0.394486 0.182888 
-0.380922 0.0442267 0.157757 
-4.23199e-18 3.45469e-19 1 

-0.184145 -0.557741 -4.9789 
0.211882 -0.139412 -7.27752 
-9.44855e-19 7.20845e-18 1 

-0.07281 0.190167 -0.0885175 
-0.228427 -0.00473076 -0.0969731 
4.01975e-18 6.92533e-18 1 

0.399411 -1.0266 -0.802888 
0.665079 0.425415 0.103418 
2.06545e-18 6.98319e-18 1 

-1.57367 0.0954929 -0.418654 
-0.0994411 0.436614 -0.112579 
-1.15185e-17 6.25576e-18 1 

-0.163471 0.0375258 -0.345624 
-0.0214798 -0.0849773 -0.644329 
1.55355e-18 -8.66716e-18 1 

-0.0816045 0.792056 -1.75999 
-0.195977 0.328655 -1.20853 
1.07129e-17 -4.81539e-18 1 

-0.449061 -0.276471 1.39522 
-0.288152 0.207094 0.0203445 
-2.32364e-18 -1.34456e-18 1 

-0.128788 -0.0949021 9.59497 
0.329289 0.0730088 0.660412 
1.33909e-17 6.05629e-18 1 

-2.09387 1.81415 -4.09265 
0.242332 0.40886 -0.27914 
-1.20283e-18 1.22655e-17 1 

-0.218022 0.00905759 1.66458 
-0.0869209 -0.00911403 0.0860412 
-2.97864e-18 -1.37204e-17 1 

-0.196968 0.0473826 -0.349686 
0.0737091 0.0305786 1.90883 
2.75615e-18 1.07035e-18 1 

-0.130202 0.0184965 0.184024 
0.0019177 -0.0714933 0.460864 
-4.38601e-18 2.59089e-19 1 

-0.772292 -1.59114 3.39797 
0.275823 0.342711 -0.233704 
4.81509e-18 9.24498e-19 1 

-0.152286 -1.92655 3.78926 
0.449161 0.249656 -0.773511 
-2.41918e-18 1.73375e-17 1 

-0.20564 -0.0561063 -1.02538 
-0.059408 0.0777456 -1.57529 
-3.79027e-18 1.97391e-18 1 

-0.681294 0.330413 -3.18463 
0.270565 0.673275 -0.0608319 
-4.69119e-18 9.34176e-19 1 

-4.63971 -0.303202 -5.11701 
-0.0719939 0.535056 0.680392 
-3.68491e-18 1.71882e-17 1 

-0.0401345 0.300301 -4.06243 
-0.355867 -0.00875785 -12.4422 
-3.95468e-18 1.16788e-17 1 

-2.63487 -0.886014 3.19629 
-0.104552 0.648704 -3.22612 
6.58397e-20 -1.83473e-17 1 

-3.65239 0.255854 -18.2012 
0.629426 0.798539 -0.913656 
1.03546e-18 6.88579e-18 1 

-2.98326 1.12104 -44.7222 
-0.40827 0.666726 16.4934 
5.13888e-18 1.82445e-18 1 

-0.855813 -0.767314 -1.32113 
0.293894 0.445145 1.63049 
2.56753e-18 2.72602e-18 1 

-2.79143 0.204729 -1.16229 
0.942894 0.407205 0.678164 
2.91199e-18 1.49026e-17 1 

-0.0566068 -0.0241443 0.0501015 
0.0348465 -0.0841404 -0.0520845 
-8.45555e-18 -1.43275e-17 1 

-0.768996 0.00261335 0.161822 
0.23067 0.289406 0.62746 
-1.29051e-17 -1.6382e-17 1 

-0.300969 0.101015 0.0429298 
0.129124 0.0244123 -0.179177 
1.52222e-17 4.60348e-18 1 

-0.241456 -0.0814783 0.434119 
0.0639064 0.0104579 -0.348348 
2.3061e-18 -5.62173e-18 1 

-0.298537 -0.0537115 -0.0973446 
-0.146143 0.129606 -0.810493 
9.20065e-18 1.71765e-17 1 

-0.109035 0.0686889 -0.20638 
-0.0956095 -0.0327799 -0.954223 
3.59616e-18 -3.25297e-18 1 

-0.327247 -0.0690427 0.481363 
-0.0164273 0.17901 0.538429 
-4.04061e-18 1.16858e-17 1 

-2.04009 -1.00074 0.792997 
0.000636049 0.590144 -0.623823 
-8.6617e-18 -1.53986e-18 1 

-1.32536 -0.737733 4.07968 
-0.223078 0.51368 1.12629 
-5.16508e-18 -1.49523e-17 1 

-0.714381 1.12074 -0.574528 
-0.14069 0.375962 0.105465 
7.09779e-18 -3.43096e-18 1 

0.330656 -1.05039 0.0321127 
0.875732 0.707422 0.717553 
-9.39974e-18 -4.08996e-18 1 

-0.178432 -0.169987 -0.0175049 
0.158319 -0.041383 -0.124444 
-5.81502e-18 1.73009e-18 1 

-0.458849 0.25121 -12.6235 
-0.173741 0.282604 -2.10321 
3.67107e-20 3.99535e-18 1 

-1.33264 -0.785773 -0.85742 
0.667439 0.563574 -0.161847 
1.67015e-17 6.95897e-19 1 

-0.633549 0.125936 -0.713338 
-0.0716025 0.342063 1.01028 
-6.78545e-18 -1.28512e-18 1 

-0.777144 -0.356981 0.475818 
0.159019 0.254696 -0.396776 
-4.07036e-18 -7.83921e-18 1 

-0.949664 -0.201887 0.653134 
-0.148427 0.306236 0.43767 
1.96283e-17 -6.35157e-18 1 

-0.158545 -0.00414409 0.798619 
0.00499462 -0.00682418 -0.138724 
-1.1045e-17 4.01366e-18 1 

-0.450574 0.418322 0.247411 
0.91481 0.176013 -0.670376 
-1.97249e-18 -4.63536e-18 1 

-0.302685 0.031248 -0.180969 
-0.123276 -0.0365723 0.0354414 
-1.15528e-17 3.64826e-18 1 

-0.318871 0.203582 1.16516 
-0.458923 0.167781 -0.463306 
8.59089e-18 2.90082e-18 1 

-0.111945 -0.651177 0.0894145 
0.575583 0.286097 -0.630425 
2.28632e-19 -2.51495e-18 1 

-0.483736 -0.0645834 1.56128 
-0.262943 0.0839489 -0.789084 
-1.62744e-17 8.61497e-18 1 

-0.601552 0.0565667 0.350042 
-0.467249 -0.0093487 -0.988378 
-2.2916e-18 1.41952e-17 1 

-0.131942 -0.647998 -0.153966 
0.500894 0.190587 -0.31443 
-5.38683e-18 2.18487e-17 1 

-1.09059 0.725408 -1.19606 
-0.297198 0.297503 -0.612819 
1.66165e-17 -5.21681e-18 1 

-2.42966 -0.955012 11.6157 
0.284607 0.719201 -0.982258 
6.62572e-18 -3.78613e-18 1 

-1.1688 -1.99483 2.17108 
-0.283412 0.131021 -0.334213 
-9.54243e-18 3.24082e-18 1 

0.218145 -1.73669 0.902115 
0.882848 0.835344 0.371008 
2.25406e-18 2.03871e-17 1 

-0.622996 0.0385726 1.65189 
-0.185746 0.315503 -0.196364 
2.57682e-18 9.411e-18 1 

-0.376709 0.433379 -0.179873 
-0.486463 0.0468837 -0.0384459 
1.215e-17 -8.72776e-19 1 

-0.121723 -0.662198 -0.611524 
0.475674 0.266824 0.428371 
-3.13404e-18 8.86993e-19 1 

-0.467219 -0.109139 -0.29394 
-0.220271 0.0549641 -0.359552 
1.98452e-18 -2.74587e-19 1 

0.0426297 0.48491 -1.08806 
-0.610273 0.171506 -0.685255 
1.87696e-18 -2.52129e-19 1 

-0.243724 -0.0181005 -0.0553912 
-0.252695 0.143953 -0.81572 
7.80298e-18 -5.15169e-18 1 

-0.321211 0.0898181 -0.355307 
-0.0500214 0.214657 0.127285 
-1.0829e-17 9.90173e-18 1 

-0.501593 -0.482749 0.605926 
0.385775 0.0333403 -0.658942 
1.65387e-18 2.08903e-17 1 

-4.72859 0.614968 -14.5264 
-1.11594 1.61913 2.29319 
-3.75823e-18 -2.75274e-18 1 

-0.191799 0.102135 -0.313692 
-0.0397681 0.0278627 -0.732706 
3.01506e-18 -4.338e-18 1 

-2.01126 1.09719 1.43936 
0.251933 0.458058 0.791447 
-5.78209e-18 -1.7791e-18 1 

-0.320414 -0.433431 1.50012 
-0.0190931 0.0138761 -0.0108233 
-1.48528e-17 -1.70586e-17 1 

-0.17888 0.025456 0.163354 
0.0349161 0.113566 -0.650472 
3.07728e-18 -3.48301e-18 1 

-2.35408 -1.40729 10.7626 
0.348644 0.693193 -1.12565 
-4.37063e-18 -6.26671e-19 1 

0.209443 -0.621041 -0.195914 
0.603204 0.138585 0.222693 
2.52185e-17 -3.56194e-19 1 

-0.462558 -0.221468 0.0273402 
0.0633233 0.360474 -0.730931 
1.32325e-17 -3.29099e-18 1 

-0.538342 -0.349779 2.25509 
0.340744 0.108613 -3.79042 
-2.15307e-18 -3.42283e-18 1 

-0.20168 -0.185957 -0.429459 
-0.0158736 0.0124941 -0.118186 
-6.06109e-19 3.59877e-18 1 

-0.386627 -0.181144 1.0397 
0.0889674 0.229968 -0.204735 
3.17772e-18 1.23912e-18 1 

-1.89229 0.847484 -7.21032 
0.168532 0.475883 -2.49082 
6.85066e-18 2.3623e-19 1 

-0.752397 0.206985 -2.31071 
-0.324367 0.490994 -2.40432 
3.89022e-18 -8.2099e-18 1 

-0.279444 0.100434 0.0498905 
0.00203204 -0.0518315 -0.258832 
1.45888e-17 -4.77452e-18 1 

-0.73068 -1.44123 0.870498 
0.480341 1.25916 -0.314877 
-6.28531e-18 -2.26487e-18 1 

-0.948155 0.328505 18.0466 
0.142271 0.264759 -27.41 
-2.91167e-19 1.00307e-17 1 

-0.812734 -0.0479631 55.5647 
0.0157799 0.334688 11.1391 
-2.48931e-18 -1.0834e-17 1 

-0.437031 0.038679 -2.07635 
-0.0486057 0.0095396 -0.908192 
2.88655e-18 -7.05383e-18 1 

-1.2962 0.988887 0.312337 
-0.364042 0.296864 0.146543 
1.80856e-17 6.40034e-18 1 

-0.303905 0.368581 0.0161697 
-0.227896 0.060456 0.101413 
-4.31467e-18 6.18019e-18 1 

-2.29788 2.00844 48.7269 
-0.702626 0.798261 13.3043 
3.73369e-18 2.1536e-18 1 

0.25918 -0.839812 0.22796 
0.910994 0.612677 -0.698957 
5.29097e-18 -1.5495e-17 1 

-0.204927 -0.243065 -0.043137 
0.00505718 0.0615051 -0.122158 
-1.26269e-17 1.67927e-17 1 

-0.199774 -0.232534 -0.470183 
0.0452151 -0.013687 0.587387 
-6.76941e-18 -3.31796e-17 1 
