# vtk DataFile Version 3.0
Output file generated by Yade's KinematicLocalisationAnalyser
ASCII
DATASET UNSTRUCTURED_GRID

POINTS 13483 float
511.665 41.6692 -0.466893
610.732 75.0462 0.462703
112.513 6.12832 -0.434074
636.61 6.62322 0.593678
447.3 9.22733 0.408783
296.33 37.7465 -0.474575
147.176 7.00522 0.465943
497.832 12.4506 -0.225953
442.182 29.2033 -0.163633
579.51 14.9699 0.518365
199.001 8.7762 -0.130175
243.06 6.37406 0.361467
539.586 71.3266 -0.144854
539.075 18.9921 0.0950745
129.357 17.9133 0.587658
209.564 35.0881 -0.40448
206.298 13.142 -0.29888
271.734 10.6907 0.482573
320.599 34.7303 0.519675
467.772 8.64469 0.545991
382.473 46.9583 -0.109298
509.654 75.6751 -0.205026
626.58 59.7149 -0.514038
578.412 79.7813 -0.539133
416.046 24.2302 -0.353335
225.93 47.6659 0.136877
438.719 36.9233 0.4811
506.354 29.805 -0.255567
41.6337 16.1209 0.538419
601.253 80.0389 0.371535
433.163 7.0315 0.286441
16.1606 25.7868 -0.289495
620.763 82.9206 0.280321
442.915 2.16089 0.652927
72.6983 45.8453 0.113387
461.019 37.9321 -0.359719
467.433 22.9865 -0.526612
322.993 24.0194 0.171343
470.539 34.5697 0.331396
328.887 36.6198 0.580064
228.609 14.7626 0.353308
403.703 46.0144 -0.0784711
552.276 34.7822 0.133789
182.018 6.31718 0.362408
50.9083 7.14243 -0.11339
63.4309 8.92964 -0.253617
562.147 20.434 0.672004
21.401 12.4819 0.295323
514.397 64.0615 0.422799
557.214 59.0737 0.339725
162.19 33.3297 -0.327004
614.246 62.4019 -0.156317
30.9421 31.3217 0.115934
475.601 4.52755 0.618621
133.814 7.49035 -0.570699
506.269 58.4285 -0.377872
445.243 34.214 0.13418
165.367 0.964485 -0.294097
29.7203 2.38811 0.340559
327.743 18.7117 0.284475
517.557 72.1836 -0.142141
428.592 46.0867 0.182759
372.65 1.03994 0.207779
569.404 15.3297 0.489432
23.954 47.4978 0.236429
241.483 35.5154 -0.359655
579.974 9.47236 -0.358567
557.13 86.6889 -0.367665
390.051 10.5674 -0.619202
495.729 4.08936 -0.354032
593.88 50.9038 0.416836
123.196 7.79845 0.273223
443.844 30.6867 -0.162094
430.877 19.8061 -0.148904
277.769 17.4099 -0.374521
19.0047 14.6322 -0.357277
632.575 82.6314 0.305395
314.156 41.8606 -0.372185
555.35 52.4861 0.342476
563.042 31.6513 -0.26646
627.01 12.9997 -0.272944
429.689 47.9559 -0.171217
86.6546 40.2715 -0.318735
567.172 68.316 -0.242458
530.076 77.7013 0.112059
632.649 65.2777 0.113383
621.245 0.748054 -0.588348
274.252 29.7017 0.471267
534.84 5.94206 -0.163807
22.7338 6.31432 0.651244
125.125 41.1715 -0.146671
459.139 15.831 0.210894
622.264 48.6876 -0.530235
184.813 29.7156 0.267964
40.95 36.4079 0.284733
441.744 1.15662 0.118124
224.164 9.2084 -0.393943
594.326 60.3075 0.271945
615.724 48.9548 -0.24454
338.352 22.2854 -0.249457
154.004 27.92 -0.45636
481.026 50.2507 -0.515524
357.461 18.1436 -0.454837
385.061 37.8849 0.0435745
355.025 6.90061 0.500489
483.124 17.7481 0.250176
634.706 23.9933 0.186399
74.8757 40.647 0.416974
316.13 5.48133 -0.227531
492.266 11.8574 -0.53681
338.985 47.8906 0.501273
22.847 27.3613 -0.474158
28.3059 6.09653 0.300588
494.145 64.2992 0.347978
447.537 30.2677 0.164574
23.9199 41.6337 0.415439
86.9382 31.6122 -0.251121
307.013 16.6802 -0.381288
518.763 25.0626 0.147154
437.398 57.8803 -0.181471
595.332 13.171 -0.457571
589.206 6.78357 -0.21544
364.029 40.0615 -0.138085
535.951 38.6931 0.121292
227.511 16.4792 0.564219
312.179 4.02252 0.494848
97.4205 32.5063 -0.426566
109.593 26.0322 0.266005
479.178 55.4196 -0.101936
289.789 19.0781 0.468236
596.568 81.3862 -0.0985151
559.83 84.1409 -0.124343
434.969 25.7577 -0.424311
618.391 26.3432 0.26952
398.624 33.3928 0.250553
262.749 26.6116 -0.295871
556.223 70.4461 -0.333263
264.68 31.1009 -0.38465
500.691 20.6173 0.213391
315.009 38.6379 0.20913
453.771 12.2297 0.663304
346.086 34.8921 -0.11707
399.357 24.0612 -0.113674
301.686 45.5065 0.355489
181.229 31.3477 -0.117499
614.921 77.4871 0.160753
633.105 26.6313 -0.438764
5.92002 12.801 0.45286
402.993 28.1999 -0.428158
35.0369 24.2053 0.0763679
355.582 33.6087 -0.456619
373.059 30.6986 -0.281304
69.9182 11.9502 -0.504312
48.0879 34.6329 0.495947
216.22 14.3163 0.444675
522.352 47.3229 0.467565
503.628 31.815 -0.524019
69.8839 21.2975 -0.488019
577.832 84.5193 -0.0527872
605.717 2.33803 0.693107
547.221 87.0402 -0.461807
568.667 5.46366 -0.610826
490.327 43.1574 0.519988
510.567 74.1136 -0.437579
462.785 18.7653 -0.49599
635.793 4.71439 0.53377
214.382 25.443 0.121518
120.695 38.0833 0.18981
236.143 6.62903 0.467504
89.0933 4.83549 0.262512
59.8317 10.336 0.247749
262.723 38.58 -0.386883
17.2679 27.539 0.364203
492.385 27.599 -0.501626
516.005 53.1161 0.264063
423.167 29.2529 -0.352487
634.81 96.7657 0.377389
383.839 8.65272 -0.126443
407.38 48.0033 0.525199
480.661 4.2045 0.261382
21.4442 24.6211 0.388703
505.947 3.75437 0.629839
485.097 7.16515 0.442928
197.427 11.3196 0.515539
395.967 25.2558 -0.208019
296.618 6.38693 0.365061
367.324 19.4436 -0.436112
581.206 60.3928 0.101574
182.634 27.0285 0.391941
614.543 6.13998 -0.534286
581.774 55.5296 0.429455
362.772 10.9581 0.224926
581.418 2.00829 -0.618765
519.906 32.8895 -0.472698
594.263 27.3154 -0.368773
403.417 56.3844 -0.303775
449.92 13.9572 0.524377
428.644 59.9113 -0.244762
412.984 11.1196 -0.20027
550.836 85.2915 -0.254214
548.298 82.5368 0.312635
183.883 40.286 0.342065
625.071 11.9924 -0.191972
512.773 68.929 -0.285309
11.0071 18.6399 0.256896
384.989 29.3064 0.362781
179.979 24.0295 -0.418456
88.3051 41.0724 0.233109
623.954 46.5269 -0.478756
542.156 89.6472 -0.221893
303.26 27.475 0.355424
476.349 15.28 0.335002
77.6088 45.8977 0.188508
237.743 28.9641 -0.493829
489.876 39.4814 0.352984
442.516 21.8797 -0.456948
251.485 0.909427 -0.399453
482.419 59.8721 -0.354835
474.05 52.7053 -0.499812
447.541 58.3563 -0.463952
452.349 2.23546 -0.661024
571.589 30.575 -0.450181
171.702 12.7216 -0.207583
447.994 44.0272 0.420777
489.276 69.9458 0.143727
68.8109 0.970005 0.283667
241.153 4.83955 0.259508
631.301 27.5235 -0.2843
626.15 14.8002 -0.552385
636.552 29.776 -0.584967
289.308 8.67494 -0.229639
595.156 42.878 -0.461337
382.62 52.5418 -0.328649
416.221 1.43592 -0.711694
536.823 78.7254 -0.45113
25.0911 35.6079 -0.420624
315.304 45.9095 -0.604768
242.018 2.97831 0.485499
625.69 84.607 0.168268
596.19 94.1617 -0.216778
273.917 12.1694 0.284404
551.41 68.8019 0.0960442
492.744 2.57867 0.364827
482.818 11.7356 0.662941
92.0998 19.1645 -0.532333
289.145 1.06528 -0.240024
326.479 2.22983 -0.388069
13.0486 7.88909 0.551662
4.45523 31.7816 0.28829
154.475 19.2968 0.366126
64.1189 43.7549 -0.212049
61.5343 30.9473 -0.321292
395.563 19.731 -0.604771
348.987 38.3027 -0.515422
611.993 62.5812 0.126547
18.6966 4.2448 -0.273973
66.4662 6.97638 0.130048
527.025 56.8165 0.174276
280.767 0.959844 0.42904
345.706 17.672 -0.095303
226.003 4.70518 -0.357378
537.452 51.6349 -0.192605
418.225 9.83443 0.576143
594.988 38.9794 -0.429283
536.476 59.331 -0.316375
554.645 49.1197 0.0969377
395.569 35.901 0.452802
96.8991 46.8537 0.329337
474.767 61.4824 -0.0783574
596.628 21.3795 0.367379
229.13 32.7132 0.267176
29.7807 18.7226 -0.1902
320.573 14.5499 0.508514
102.362 42.5349 0.470425
256.428 45.735 -0.253157
399.137 2.48795 -0.189909
627.564 68.3058 -0.503657
566.926 0.780003 -0.638061
316.64 3.95674 0.574301
287.572 28.0969 -0.148598
429.706 56.6267 0.207088
77.5047 8.55818 0.479092
189.805 46.4899 0.378739
615.805 55.9443 0.353824
463.313 63.1165 -0.0683658
192.239 42.5416 -0.308673
153.553 43.8372 0.407451
635.113 60.327 -0.394116
633.139 24.7373 -0.634471
526.039 4.56587 -0.627766
183.108 25.2285 -0.0995417
491.906 49.1586 -0.12334
493.525 50.2965 0.283953
388.229 5.89912 -0.152045
436.816 0.906008 0.395703
609.1 63.4639 -0.549046
80.3808 32.1064 -0.22218
542.605 51.5195 -0.502576
261.893 16.1452 -0.454701
8.79747 2.42097 -0.311591
120.227 40.3053 -0.219878
63.2387 23.2506 -0.496282
589.37 79.6505 0.332779
622.253 92.4192 -0.197417
177.415 30.0272 -0.189791
630.893 21.6326 -0.657792
42.5765 38.2019 -0.299802
85.9119 29.9379 0.154682
547.448 17.9546 0.492522
388.083 22.1872 -0.553728
465.603 22.9468 0.11833
230.239 31.0018 0.230996
540.082 5.36589 0.731544
637.259 25.0219 0.439674
27.6609 36.0224 -0.273448
258.372 8.06967 0.193701
214.127 16.0987 0.315449
1.06454 36.371 0.151874
217.213 15.2815 -0.427958
203.83 11.0835 0.13355
206.191 26.9739 -0.281014
126.958 30.2377 -0.117357
487.657 23.3066 0.459972
160.246 14.618 -0.353865
620.744 81.0867 -0.306501
167.271 3.81561 0.534948
44.4737 40.2189 -0.367558
600.318 73.4059 -0.319801
269.591 34.3028 -0.41307
559.749 56.0822 0.444847
620.845 55.1456 -0.522572
287.379 9.34358 -0.105199
583.373 46.5205 0.422344
314.31 2.55978 -0.442942
390.532 31.7629 0.352584
557.616 44.8172 -0.46691
100.993 12.8737 0.551172
438.852 3.78102 -0.491976
596.727 35.3353 -0.228509
84.4219 7.73999 0.182708
269.318 15.695 0.20489
397.816 16.9709 0.241911
634.876 3.25994 0.552289
377.516 1.98608 -0.548733
169.209 40.1062 -0.303461
600.257 18.7117 -0.487281
122.504 39.0914 -0.194375
251.842 34.7462 -0.360483
377.367 24.515 0.228031
503.365 22.1728 -0.381882
367.085 10.1204 -0.499535
431.552 40.8625 -0.477401
611.953 75.5642 -0.39792
44.6339 12.24 -0.132102
285.882 39.4661 -0.286136
361.86 30.3263 0.391474
383.782 23.9153 -0.289506
466.284 57.7502 0.357475
602.929 58.909 0.258622
551.55 77.9851 -0.344582
217.753 35.1819 -0.363143
13.132 33.9628 0.195751
546.616 83.6547 -0.130642
456.953 49.6242 -0.507775
221.174 40.3199 0.140024
571.852 66.7601 -0.144107
144.492 9.45639 0.239292
347.461 22.9832 0.302834
430.423 58.618 -0.120278
388.023 24.0433 -0.186601
607.195 76.2242 0.309329
399.442 5.43986 0.536132
46.2359 27.0152 -0.305257
440.495 51.8075 -0.401045
408.646 54.5036 0.408425
627.497 78.2035 0.256661
584.902 42.0952 -0.246554
483.654 29.5547 -0.142537
620.241 72.7089 -0.451216
280.429 2.29687 -0.480579
360.484 32.3165 0.53733
27.1515 43.3452 -0.292268
585.93 48.2079 -0.21186
527.971 24.4439 -0.610675
425.743 0.870669 0.69036
120.328 4.71655 -0.363575
401.29 51.1286 0.117851
11.1323 0.857062 0.329053
634.646 8.47248 0.226916
352.748 44.2204 0.496499
[...]
POINT_DATA 13483
TENSORS Strain_matrix float
-0.660333 -0.46368 -3.35495 
-0.544137 0.29824 1.45838 
1.46745e-17 -6.31137e-19 1 

-1.25463 0.418906 5.01818 
0.413111 0.845267 6.09637 
-2.2747e-19 -2.63901e-18 1 

-0.179563 -0.12563 0.192637 
0.0890138 -0.0256106 0.506953 
5.5293e-18 -5.65729e-18 1 

-2.26406 -0.404049 -1.34586 
0.680843 0.734626 -0.409172 
5.86081e-18 -7.88449e-19 1 

-0.989008 0.192413 0.0729316 
-0.134861 0.358108 -0.0355092 
6.9238e-18 1.59349e-17 1 

-0.175625 -0.0822774 -0.642708 
0.0512561 0.00319218 -1.34946 
-1.30238e-17 1.72277e-17 1 

-0.135292 -0.0347506 0.571939 
-0.0278673 -0.0852303 -0.278406 
-1.41231e-17 -2.00045e-17 1 

-0.464122 -0.362453 0.758039 
0.34948 0.0258961 -0.232783 
-9.91711e-18 6.86569e-18 1 

-0.414113 -0.94591 1.08046 
-0.153085 -0.0571671 -0.490588 
-9.28227e-18 -6.31778e-18 1 

-0.577147 0.101296 1.49958 
-0.570877 0.179379 2.14844 
5.5723e-18 7.67111e-18 1 

-0.129857 0.0105238 -0.0499061 
0.019797 -0.0801648 -0.117151 
2.84397e-18 2.73459e-19 1 

-0.262026 -0.0278968 -0.124031 
-0.0842333 -0.0697252 -0.072032 
6.2544e-19 3.57394e-18 1 

-0.877961 -1.54407 1.56604 
0.299473 0.460978 -0.398702 
-1.93289e-18 1.27031e-17 1 

-0.576926 -0.180142 0.373872 
0.123246 0.13184 -0.053363 
-7.40364e-18 6.64817e-18 1 

-0.208135 -0.00106164 -3.8141 
-0.0110081 0.0256394 5.66359 
-2.99525e-18 -1.38417e-18 1 

-0.151759 -0.0560811 -0.375351 
-0.00420437 -0.0157666 0.183924 
-3.01266e-18 -9.82388e-18 1 

-0.0917558 -0.0535634 0.0463608 
0.0348865 -0.0746236 -0.00655959 
1.09789e-17 7.83374e-19 1 

-0.328446 -0.0230512 -0.00861628 
0.183593 -0.0883041 -0.0982331 
3.71706e-19 -4.58438e-18 1 

-0.43504 -0.0856136 -2.51415 
0.0411871 0.137 -0.39156 
2.14497e-18 2.52349e-18 1 

-0.252705 0.151329 0.920667 
-0.166221 -0.0257458 -0.362684 
1.52785e-18 -5.55118e-18 1 

-0.200597 -0.324431 0.162976 
0.262191 0.0731173 -0.248291 
7.71439e-18 -6.78119e-18 1 

-2.74875 1.39735 -7.98707 
-0.455434 0.259701 1.71829 
-8.85511e-18 -2.76301e-18 1 

-1.80314 0.273448 -12.5372 
-0.00809842 0.631698 2.5898 
8.46101e-18 3.08361e-18 1 

-0.814213 0.15082 93.0699 
0.157335 0.464762 -17.6492 
8.58633e-18 3.94558e-18 1 

-0.607389 -0.19727 -3.99018 
0.240276 0.322761 0.99863 
-1.48966e-19 3.70429e-18 1 

-0.199912 -0.199606 -0.252887 
0.161632 0.0754064 -0.0669343 
1.47095e-17 -1.78297e-17 1 

-2.64303 1.15101 19.7749 
-0.624962 0.725741 2.67213 
9.33797e-18 9.35483e-18 1 

-1.14382 0.033443 -1.2406 
-0.227232 0.396572 -0.20099 
8.65483e-18 1.62108e-17 1 

-0.279861 -0.0757488 -0.190387 
0.150969 0.0462727 7.67 
1.55324e-17 7.62607e-19 1 

-0.363487 -0.273742 -1.24562 
0.487737 0.16421 -0.105435 
-1.33405e-17 -3.3904e-18 1 

-0.117518 -0.338143 -0.195042 
0.320733 -0.254797 0.0264871 
1.09909e-17 1.75855e-17 1 

-0.298465 0.141864 0.677748 
0.100607 0.135074 0.706646 
1.26706e-17 2.47586e-18 1 

0.450235 -1.04889 0.102717 
0.803549 0.329482 0.640733 
-3.29427e-19 3.91195e-18 1 

-0.441028 0.21133 1.45051 
-0.0779599 0.167015 -0.0235473 
-3.92735e-18 2.4902e-17 1 

-0.112901 0.0139507 -0.121193 
-0.0743872 -0.0862978 -0.324276 
6.96608e-19 6.5374e-18 1 

-0.351214 -0.37158 -0.753656 
0.205234 0.180434 -1.61566 
-1.23439e-18 1.28187e-17 1 

-0.594709 -0.450167 2.48238 
0.164063 0.385439 -2.91891 
7.48303e-18 -5.6466e-18 1 

-0.45607 -0.0493797 -1.23455 
-0.438532 0.0590595 0.0448349 
4.30728e-18 1.12707e-17 1 

-0.199076 1.43728 -9.40168 
0.148178 0.37837 1.98097 
-2.94977e-18 -1.71781e-17 1 

-0.197812 -0.112252 -1.39277 
0.0383104 0.0228792 -2.08438 
-2.35412e-18 1.35003e-17 1 

-0.163899 0.00494345 0.233152 
0.0545719 -0.0994122 -0.448963 
-1.75187e-18 -9.61522e-18 1 

-0.212636 -0.00996054 0.177866 
0.261037 0.20171 0.3776 
-7.62453e-18 8.00925e-18 1 

-0.701944 0.367926 0.158915 
-0.658355 0.601951 0.244041 
2.36505e-17 -2.41537e-18 1 

-0.161547 0.0268562 -0.17638 
-0.0906956 -0.0547964 0.416833 
-2.52951e-18 -4.7125e-18 1 

-0.140534 0.0342188 -0.0221195 
-0.0459665 -0.0658383 0.155114 
-1.1887e-17 -4.01637e-18 1 

-0.111298 -0.0148249 -0.0201996 
-0.0493606 -0.0319717 -0.0947065 
7.83554e-18 7.16494e-18 1 

-1.95403 -0.730886 30.4624 
-1.10654 0.459585 -21.681 
8.83106e-18 1.43388e-17 1 

-0.0605271 0.0273209 0.03096 
-0.00932753 -0.131381 -0.0161069 
1.73808e-18 -9.71421e-18 1 

-2.55104 -0.383445 1.36754 
0.299037 0.500133 0.801742 
2.70178e-18 7.56498e-18 1 

-1.93564 0.569723 6.10631 
-0.180614 0.737142 -5.38534 
2.87784e-18 -2.77037e-18 1 

-0.126138 -0.0921246 0.0762771 
0.0312626 -0.00888584 -0.286909 
-4.06599e-18 -4.32631e-18 1 

0.0773191 -0.548143 -0.417001 
0.71604 0.202446 -0.784451 
-7.07292e-18 1.06429e-17 1 

-0.277853 0.485856 -0.0393937 
-0.323528 0.256214 -0.273232 
-1.02623e-18 -8.3964e-19 1 

-0.639577 0.0343854 2.11464 
0.0149463 0.135457 -1.16726 
-3.61904e-18 2.35124e-17 1 

-0.292501 -0.0434819 -0.236149 
0.0830357 -0.120256 1.41937 
-1.95658e-17 -3.6344e-18 1 

-2.00045 0.56219 -11.5262 
-1.43285 0.958687 -2.81224 
1.77231e-18 1.93343e-18 1 

-0.295965 -0.173349 0.390513 
-0.0305611 0.218496 0.454091 
-4.89792e-18 -7.30607e-18 1 

-0.137045 0.167302 -0.212111 
-0.00247352 -0.0388498 -0.073255 
4.2241e-18 2.54346e-17 1 

-0.111257 0.0786337 0.293996 
-0.0674077 -0.0829587 0.311663 
-4.10954e-18 5.64313e-18 1 

-0.0215948 0.0678103 -0.197715 
-0.0125941 -0.0934438 -0.447362 
1.77263e-18 3.38411e-18 1 

-6.8998 1.53233 -9.11447 
-0.253009 0.78155 -0.0354723 
5.8838e-18 -8.98812e-18 1 

-0.0659962 -0.831667 -1.47157 
0.389034 0.243537 0.967991 
1.20454e-17 1.43904e-17 1 

-0.142236 -0.072216 -0.346677 
-0.024853 -0.0403608 -0.0903462 
2.07369e-18 3.85976e-17 1 

-0.816031 -0.312618 1.89758 
-0.0252159 0.150218 0.187091 
1.81731e-17 8.47723e-18 1 

-0.052806 -0.0210253 -0.0700215 
-0.00146261 -0.0123297 -0.0392763 
2.04658e-18 2.84741e-18 1 

-0.311973 0.0112661 -0.490495 
0.0134929 0.0690477 0.658146 
-6.77595e-18 -4.28683e-18 1 

-0.40304 -0.0363442 -0.262932 
-0.14133 -0.194261 0.156845 
1.59699e-17 -1.68093e-17 1 

0.030624 0.534565 0.150241 
-0.418531 0.164839 0.0211586 
-2.42655e-18 -1.75167e-17 1 

-0.486622 -0.450758 2.5957 
0.258565 0.299088 -0.471248 
-2.68657e-18 -1.73324e-17 1 

-0.625656 0.339129 -0.078794 
-0.265427 -0.0129186 -0.00723569 
-5.56023e-18 -1.88882e-17 1 

-0.566026 -0.654337 -2.90728 
-0.0115907 0.199138 -2.33216 
4.51659e-19 0 1 

-0.145216 0.0657563 -0.0489342 
-0.0376266 -0.0353738 0.129461 
-2.25805e-19 1.14241e-17 1 

-1.45506 -0.740917 -0.707756 
0.130132 0.484264 -0.468258 
1.08231e-17 -7.0032e-18 1 

-0.433425 0.0696183 1.02959 
-0.452609 0.100829 -0.272677 
-7.7125e-18 -8.11842e-18 1 

-0.153 0.0580933 -0.401073 
-0.0757235 -0.0425838 -0.652736 
-9.71741e-18 1.77428e-17 1 

-0.250774 0.0419631 0.28264 
-0.0477737 -0.0408704 0.314003 
-4.33901e-18 2.71552e-18 1 

0.19783 -0.91567 -0.163948 
0.798626 0.31696 0.301843 
-1.7553e-17 -9.82783e-19 1 

-0.364202 -0.102742 0.0483598 
0.0748865 0.160932 -0.332886 
1.12668e-17 1.6388e-18 1 

-0.981155 -0.464357 1.59593 
-0.263378 0.501432 1.44324 
-4.2308e-18 -4.57383e-19 1 

-0.579526 0.442989 -1.33051 
-0.760809 0.473097 -0.657113 
-7.14066e-18 -8.26158e-18 1 

-0.819139 -0.467483 0.885526 
0.369734 0.147487 -0.518483 
-9.16384e-18 5.1214e-18 1 

-0.134935 -0.868056 -0.81538 
0.396158 0.291043 -0.603261 
9.98993e-18 -4.52016e-18 1 

-0.112859 0.00554662 0.183452 
0.0185155 -0.0146108 -0.0229776 
-9.67375e-18 -8.96041e-18 1 

-0.118952 -0.109653 -0.382207 
0.0330091 -0.0778789 0.0168958 
-6.06044e-18 -5.17785e-18 1 

0.0935019 -0.812265 -0.0760821 
0.76795 0.38573 -0.654989 
1.23607e-18 -1.54436e-17 1 

-0.791411 0.0811209 0.434484 
-0.110093 0.254313 0.360318 
2.56928e-18 -3.55252e-18 1 

-0.663807 -7.13316 0.624153 
0.0172045 0.275577 0.719896 
2.63994e-18 -1.60675e-16 1 

-0.156426 0.110937 0.0424579 
-0.149241 -0.103732 -0.0547946 
-8.76098e-18 -8.23859e-18 1 

-0.468215 -0.234536 -1.01765 
0.439448 0.0515626 0.196936 
2.43659e-18 1.06972e-18 1 

-0.215537 -0.00378005 3.6239 
0.0168461 -0.0608677 1.34452 
-1.1312e-18 -7.95692e-18 1 

-0.256555 0.0518181 0.0302709 
-0.14505 0.126104 -0.113777 
1.70196e-17 4.46815e-18 1 

-0.417323 0.318878 0.169115 
-0.0600738 0.0191287 0.216054 
1.49675e-17 4.19155e-18 1 

-2.08912 -2.27833 1.81098 
-0.376512 0.329825 -1.00681 
1.75533e-18 2.99438e-18 1 

-0.142948 0.0997121 -0.0895479 
-0.141776 -0.00302272 -0.0719388 
5.6969e-18 1.34074e-17 1 

-0.110006 0.209874 -0.0506071 
-0.174877 0.0815517 1.03792 
-5.72483e-18 3.89554e-18 1 

-0.259399 0.29881 -0.171519 
0.00917924 -0.0779307 -0.0345425 
-3.43954e-18 2.77197e-17 1 

-0.156648 0.13636 -0.0428528 
-0.137121 -0.10827 -0.113289 
-6.05108e-18 -4.53831e-18 1 

-0.149938 -0.226915 -0.0141306 
0.126775 -0.0365737 -0.520752 
-1.13532e-17 3.99752e-18 1 

-2.02944 -0.75755 1.00785 
-0.256865 0.411652 -2.06607 
-9.14579e-18 1.04786e-17 1 

-0.338305 0.0477687 -2.23837 
0.0150503 0.265546 0.115529 
5.04941e-18 -1.5253e-17 1 

-0.108776 -0.0956257 -0.906308 
-0.0201593 0.00424355 -1.56058 
-1.80402e-18 -2.88042e-18 1 

-0.331446 -0.843896 -7.07066 
0.474885 0.36437 -2.5421 
1.17072e-17 1.26412e-17 1 

-0.298071 -0.0174151 -0.985885 
-0.0112819 0.0436188 2.22143 
-4.24276e-18 1.50797e-18 1 

-1.26962 0.589105 -0.345798 
0.00619209 0.405447 -0.269848 
8.88616e-18 -9.36099e-18 1 

-0.730416 -0.137359 0.642382 
-0.198794 0.10735 -0.10314 
-8.59462e-18 3.44764e-18 1 

-0.716312 -0.284679 -0.23031 
0.0809867 0.286537 -1.13106 
7.96693e-18 6.35305e-18 1 

-0.801724 -0.0694055 0.772838 
0.32596 0.199885 -0.603739 
1.1944e-17 6.7772e-18 1 

-0.166837 0.0353791 0.217521 
-0.0728872 0.00244925 0.126619 
1.96234e-18 8.96778e-18 1 

-0.239712 0.0491177 0.0189161 
0.0911179 -0.117959 -0.0387089 
9.89979e-18 -4.52116e-18 1 

-0.307626 0.267424 0.732522 
-0.140428 -0.14189 -0.332866 
2.05437e-17 1.47937e-18 1 

-0.23889 0.0542084 1.09968 
0.0972541 -0.0318337 1.7625 
3.26172e-19 1.4309e-17 1 

-0.582113 0.140091 -1.47712 
0.054185 0.348626 -2.21733 
-2.64296e-19 2.36214e-18 1 

-0.279542 0.281444 -0.10755 
-0.26417 0.00443685 0.0771204 
-8.12235e-18 1.8736e-17 1 

-0.111624 -0.814083 -0.573255 
0.545777 0.334926 -1.37531 
-5.28157e-18 9.25298e-18 1 

-0.767087 -0.0453125 -0.542921 
0.124805 0.400039 0.136557 
4.58754e-18 -1.822e-18 1 

-0.0788078 -0.0377965 -0.0851146 
0.0216138 -0.00486612 -0.441863 
3.99285e-18 4.82772e-18 1 

-0.24765 0.00225437 -0.805456 
-0.0681283 0.049608 -0.628498 
-1.14306e-17 -3.88945e-18 1 

-0.315449 -0.0436227 0.242299 
0.136687 0.0346998 0.452645 
-1.0172e-17 3.07462e-18 1 

-1.55749 -0.646586 1.25588 
-0.120685 0.557804 -0.0683573 
-9.20978e-18 5.592e-19 1 

0.0292936 -0.552932 0.275595 
0.636315 0.195287 -0.080888 
-6.18623e-18 -3.56898e-19 1 

-0.883669 -0.663108 -0.678413 
0.936987 0.603111 0.407983 
1.29463e-17 -1.33928e-17 1 

-0.570465 -0.0426718 0.241011 
-0.212543 0.162603 0.102618 
4.41998e-19 -1.21719e-17 1 

-0.245354 -0.365921 0.246733 
0.126939 0.134864 -0.289773 
3.4834e-18 -4.93849e-18 1 

-5.42403 -1.50648 2.09678 
0.919749 0.903596 0.419543 
-9.72943e-18 5.56402e-18 1 

-0.174981 0.00914814 -7.34151 
0.0130972 0.0206513 3.44165 
5.2296e-19 -1.20596e-19 1 

-0.22981 -0.0910082 -1.24692 
0.0888603 -0.0960305 1.16146 
-2.14069e-18 9.1907e-18 1 

-0.13489 -0.0764647 -0.416647 
-0.0361102 -0.0369911 -0.0669983 
1.95177e-17 -7.01295e-18 1 

-0.139607 -0.0179129 -1.54169 
-0.223057 0.213235 1.79927 
1.06951e-17 3.07928e-18 1 

-1.53191 -0.0647801 3.41585 
0.345136 0.620776 0.500716 
-6.29854e-18 4.67863e-18 1 

-0.324143 0.0913892 0.102765 
0.199712 0.106598 -0.129841 
-2.03361e-17 9.23689e-18 1 

-0.161296 -0.415691 0.639256 
0.399351 0.17579 -0.447062 
8.25493e-18 -1.21279e-17 1 

-0.0134194 0.878075 0.177034 
-0.555021 0.430376 0.152529 
-4.64146e-19 1.11395e-17 1 

-0.691567 -0.408982 5.40636 
-0.0869238 0.216219 0.749344 
-6.69668e-18 4.85906e-18 1 

-3.62198 0.151237 -3.48388 
-1.6021 0.782673 -3.03936 
9.40208e-19 3.67269e-18 1 

-0.245458 0.527828 0.926949 
-0.221964 0.193871 0.0854895 
-9.42508e-19 -5.84931e-18 1 

-0.353978 0.202899 -0.463892 
-0.251835 0.236281 0.236603 
4.26657e-18 8.62203e-18 1 

-0.154316 0.726879 -0.0898602 
-0.432187 0.241684 0.785483 
-4.20892e-18 1.20078e-17 1 

-0.100151 0.0533194 0.0210666 
-0.0372046 -0.0459228 -0.407404 
-1.56157e-18 -1.25098e-17 1 

-0.772349 0.0314101 0.58761 
0.55772 0.140576 0.0557558 
-2.14206e-18 1.42804e-17 1 

-0.0959199 -0.0517959 0.210203 
-0.00814255 -0.0453592 -0.13023 
1.77231e-18 1.73687e-17 1 

-0.442865 0.00865975 -0.442489 
0.0169133 0.0247463 -1.59983 
9.07659e-18 2.76933e-18 1 

-0.172827 -0.0644672 0.00180763 
-0.0552346 -0.012737 0.0240057 
-6.19943e-18 -1.04078e-18 1 

-0.0532914 0.291509 0.0941358 
-0.391361 0.0708161 0.226163 
8.92451e-18 -1.0886e-17 1 

-0.0620582 -0.109613 -0.123035 
0.190222 0.0105901 0.268665 
-2.20801e-18 -1.2595e-17 1 

-0.0763256 0.0879471 -0.146669 
-0.0858276 -0.0173378 -0.101638 
1.1507e-17 6.16871e-18 1 

0.344467 -0.963453 -0.709156 
0.682833 0.41654 0.129741 
-1.41538e-18 -5.16921e-18 1 

-1.40219 0.150535 0.416882 
-0.139947 0.446158 -0.036524 
-6.53664e-18 -1.35329e-17 1 

-0.16753 0.0391532 -0.456609 
-0.0281383 -0.078241 -0.670817 
-7.92909e-18 -1.0288e-17 1 

-0.358261 -0.133298 -1.08249 
-0.392195 0.151852 -2.92011 
8.81734e-18 4.62911e-18 1 

-0.119099 -0.185012 0.853879 
-0.18694 0.104247 0.180146 
1.23947e-18 -1.03289e-17 1 

-0.156663 -0.120891 0.12487 
0.126594 0.0133591 0.245683 
2.32091e-18 7.12928e-18 1 

-0.619153 0.561775 -1.04027 
0.398916 0.195444 0.434551 
4.50128e-18 -2.01001e-18 1 

-0.197285 -0.0840253 -0.959505 
0.0317085 -0.0269629 0.257528 
-1.60996e-17 3.59564e-18 1 

-0.173437 0.0475888 0.175374 
0.0447439 0.0208326 3.37953 
8.76975e-18 -6.03235e-18 1 

-0.129671 0.0690691 0.41129 
-0.0318089 -0.0804157 0.318127 
-7.41312e-18 -7.5504e-18 1 

-0.916513 -1.64451 2.00962 
0.229029 0.345962 0.860119 
-5.99992e-18 -1.41427e-17 1 

-0.350095 -1.3151 4.04603 
0.511058 0.387475 -1.01066 
-7.87963e-18 8.94756e-18 1 

-0.17101 -0.041135 -0.441597 
-0.0096659 0.0376677 -1.61508 
5.01282e-18 -5.81157e-18 1 

-1.07197 0.580921 -4.55654 
0.213789 0.959435 -1.94814 
5.58429e-18 -7.3009e-18 1 

-4.72116 -0.877194 -4.91054 
-0.0544855 0.622535 -1.31688 
-5.64702e-18 1.65516e-18 1 

-0.150132 -3.67026 214.212 
-0.209231 1.18472 -38.2199 
-8.68024e-20 -2.97147e-18 1 

-2.53057 -0.217144 -2.0963 
0.0355466 0.640198 -0.227382 
8.43409e-18 -8.62092e-18 1 

-1.45997 0.591715 -10.0592 
0.267189 0.471558 -8.62211 
9.47658e-19 -6.60867e-19 1 

-3.31899 -1.36175 48.8002 
-0.410944 0.803498 -1.24349 
3.67374e-18 2.1633e-18 1 

-0.802121 -1.03019 5.11714 
0.334206 0.577858 -2.10764 
6.34608e-19 4.90113e-18 1 

-1.82853 -0.864227 -0.0404361 
0.528118 0.389208 0.210794 
-1.09625e-18 -5.75529e-18 1 

-0.0479406 0.0136164 -0.00234141 
0.012935 -0.0888371 -0.0448502 
6.62853e-18 -1.47021e-17 1 

-0.430473 0.201341 0.501183 
0.111932 0.189681 0.361237 
-2.0355e-17 -6.5479e-18 1 

-0.174788 -0.00681072 0.363857 
0.0434485 -0.064423 -0.340959 
4.20979e-18 -1.40354e-17 1 

-0.243234 -0.0792742 0.43817 
0.0712372 0.0150182 -0.324836 
-5.02696e-18 4.32255e-19 1 

-0.15535 -0.0233694 0.129836 
0.00603752 -0.036264 -0.303785 
-7.93704e-19 -4.55202e-18 1 

-0.0949108 0.0361686 -0.392551 
-0.0596059 -0.0301848 -1.05347 
1.04118e-18 -3.18944e-18 1 

-0.291298 -0.0037056 0.0409538 
0.0204454 0.207529 1.05176 
-2.51982e-18 9.38731e-18 1 

-1.67375 -1.03671 -0.123545 
-0.0506142 0.595798 -0.317051 
-6.12273e-18 7.19905e-18 1 

-1.35543 -0.663582 4.31744 
-0.246538 0.526166 1.15966 
1.66998e-18 -9.31911e-18 1 

-0.721351 0.451547 1.22555 
0.190451 0.207424 0.0647914 
1.46547e-17 -1.83184e-18 1 

0.326882 -1.04913 0.0366648 
0.867351 0.700186 0.737564 
-1.14336e-17 -8.72654e-18 1 

-0.151118 -0.00267783 -0.0346069 
0.0146331 -0.0813937 -0.162293 
9.15982e-18 -9.04329e-18 1 

-0.454098 -0.0618465 -3.21395 
-0.0658967 0.219456 9.58247 
9.4517e-19 -1.49278e-17 1 

-1.12074 -0.839755 0.0564049 
0.689675 0.638713 -0.1235 
-6.89014e-18 2.53321e-18 1 

-0.574321 0.147522 -0.709303 
-0.0439732 0.350393 0.751521 
-1.48111e-18 3.48496e-18 1 

-0.862643 -0.265442 0.851198 
0.155392 0.253563 -0.506302 
7.67163e-18 -6.63492e-18 1 

-1.15827 -0.412114 0.951146 
0.12833 0.368213 0.261618 
-2.54685e-17 -3.62753e-18 1 

-0.133387 0.0252424 0.647368 
0.0117877 -0.0277284 0.00760656 
9.98556e-18 -2.30238e-17 1 

-0.519895 0.219894 1.53346 
0.623756 0.0900483 -0.377428 
1.11148e-17 5.21395e-18 1 

-0.199717 -0.0114124 -0.555408 
-0.0304471 -0.0525515 0.29278 
-4.05529e-18 1.62212e-17 1 

-0.359506 0.143038 0.949723 
-0.0593468 0.0235115 -0.432552 
6.26798e-18 1.72482e-18 1 

-0.153779 -0.568998 0.25275 
0.514504 0.229037 -0.818195 
2.28257e-17 6.12333e-18 1 

-0.268028 -0.124497 -0.621393 
-0.193471 0.0654374 0.0687971 
3.95888e-18 -4.17257e-18 1 

-0.601326 0.194859 0.266046 
-0.521912 0.0179745 -1.32013 
-5.88605e-18 5.19934e-18 1 

-0.23695 -0.545054 -0.182051 
0.487171 0.190291 -0.421357 
4.41943e-19 -6.77646e-19 1 

-0.478992 -0.0323004 -0.250388 
-0.132748 0.198645 0.281616 
-1.16713e-17 -1.01682e-17 1 

-1.0468 -1.47102 2.37592 
0.236137 0.40827 -0.351568 
-1.16557e-17 4.79775e-17 1 

-1.37541 -1.14525 -4.35231 
-0.362678 0.188346 1.87726 
9.24233e-18 -6.9967e-18 1 

-0.340849 -1.30144 0.530364 
0.777612 0.527176 0.0517643 
7.26292e-18 5.01964e-18 1 

-0.502233 -0.94665 2.98432 
-0.0484002 0.704446 -1.39064 
8.8121e-19 -2.97408e-18 1 

-0.382344 0.192265 -0.0777553 
-0.430338 -0.0294835 -0.0586795 
5.06424e-18 -1.77927e-17 1 

-0.319623 -0.736459 0.0503906 
0.512335 0.198614 0.568928 
-8.47094e-18 -3.75183e-18 1 

-0.239455 0.0866313 0.602819 
-0.244837 0.034031 -0.0366984 
-1.46608e-17 -8.64531e-18 1 

0.0759232 0.346384 -0.151198 
-0.509198 0.104061 1.17222 
-9.4851e-18 -2.24812e-17 1 

-0.43973 -0.0730048 1.14953 
-0.305598 0.175386 0.315395 
1.05734e-17 -4.04016e-18 1 

-0.127973 0.0140221 -0.543365 
-0.120193 -0.0220198 -0.0993652 
2.73122e-18 6.82806e-18 1 

-0.404964 -0.41528 0.0174476 
0.311741 0.0452511 -0.511666 
-3.39071e-17 -9.41863e-18 1 

-5.76422 -1.24092 8.36546 
-0.156621 1.10301 -2.35028 
-4.36507e-18 -5.03993e-18 1 

-0.190719 0.109335 -0.311201 
-0.0467289 0.033433 -0.733938 
7.70148e-19 -1.70665e-17 1 

-0.444702 1.10914 -1.09426 
0.134263 0.227104 0.370541 
5.5903e-18 -5.1326e-18 1 

-0.146686 -0.0847817 1.71212 
0.00796995 0.0728187 0.0188021 
3.94235e-18 -1.28127e-17 1 

-0.11601 0.0471941 0.1117 
-0.0317999 -0.0108315 -0.388752 
1.311e-17 -3.06342e-18 1 

-2.40113 -2.02047 -2.64464 
0.111805 1.07405 0.246898 
-1.00057e-17 -4.5099e-18 1 

0.0644059 -0.279371 0.117406 
0.267464 -0.077427 0.329045 
-5.60038e-18 3.58621e-18 1 

-0.109133 0.0969293 -3.20043 
-0.0401436 0.117634 1.92821 
1.96733e-18 7.7283e-18 1 

-0.574319 -0.258982 1.61956 
0.335727 0.0926367 -3.20896 
8.73745e-18 3.76972e-18 1 

-0.134722 0.0847564 0.0268923 
0.0619793 -0.0444219 -0.29262 
-3.29746e-18 -1.60088e-17 1 

-0.345368 -0.140365 0.62443 
0.0594677 0.21379 -0.288269 
-2.19535e-18 -6.2979e-18 1 

-1.32095 1.39105 3.33988 
-0.0909979 0.501256 -2.18682 
-1.88467e-18 -7.21327e-18 1 

-0.59369 -0.344373 0.396162 
-0.131942 0.249859 -4.3796 
-5.40869e-18 -1.09446e-18 1 

-0.273 -0.0816279 0.130248 
0.00636705 -0.0305607 -0.165124 
-1.16728e-17 -2.75462e-17 1 

-0.529788 -1.20724 -0.139414 
0.529257 1.10975 0.289219 
-1.96762e-17 1.8432e-18 1 

-0.551214 -0.183385 0.532013 
0.152998 0.145634 0.663447 
-8.7184e-18 -9.7315e-18 1 

-0.262216 -0.400395 35.9394 
0.267503 0.0224823 28.5923 
2.1352e-18 8.15065e-18 1 

-0.443138 0.0368848 -1.28278 
-0.0303709 0.0701814 0.80419 
-1.88536e-17 -1.4283e-17 1 

-1.48855 1.232 0.266837 
-0.47942 0.338457 0.239576 
1.09292e-17 8.50051e-19 1 

-0.134082 0.0207605 0.00448551 
-0.00888959 -0.00903298 -0.0881413 
-2.31365e-18 1.00959e-17 1 

-2.17505 1.18465 20.0922 
-0.928231 0.832163 10.0421 
-5.71019e-18 3.44717e-18 1 

0.184875 -0.80684 0.337409 
0.819193 0.461633 -0.836471 
-3.30093e-18 5.08894e-18 1 

-0.0908193 -0.100097 0.177684 
0.0085295 -0.0540191 0.00924674 