# vtk DataFile Version 3.0
Output file generated by Yade's KinematicLocalisationAnalyser
ASCII
DATASET UNSTRUCTURED_GRID

POINTS 13483 float
683.545 26.7573 -0.413239
900.435 43.0693 0.291361
133.839 6.05872 -0.447859
954.445 4.2346 0.259514
555.622 7.40241 -0.302347
349.187 34.1703 0.458962
174.168 6.69373 0.330896
637.38 9.88651 0.131957
552.165 22.0463 0.139184
831.503 11.8889 0.328806
233.861 8.66743 -0.119955
285.052 6.24251 -0.27314
740.177 27.681 0.134206
715.22 13.6216 0.0763336
152.762 16.592 0.431779
246.156 33.6796 -0.393213
241.738 12.6893 -0.256925
320.044 9.30597 0.381458
377.733 31.7013 -0.123948
584.793 8.53158 0.338225
455.996 35.5799 0.100284
664.16 42.302 -0.258243
949.436 28.7613 -0.448958
800.231 39.8265 0.437771
510.091 15.7327 0.288275
267.171 43.1314 -0.123294
546.831 26.4622 -0.476026
657.687 18.41 0.230187
50.143 15.2161 -0.468245
825.684 29.7698 -0.31693
536.426 4.81628 0.316311
18.5476 22.2536 -0.3008
916.643 39.6233 0.258793
551 2.49529 0.456939
87.2379 42.6033 -0.100923
581.284 29.1748 -0.325978
591.91 16.3566 -0.411053
381.181 21.9145 -0.189009
595.18 24.7097 -0.321146
389.043 32.2328 -0.248789
267.69 14.3511 0.291571
482.447 34.4557 0.0648326
772.702 6.60512 0.0958328
214.679 6.10368 0.374639
61.5614 6.75249 -0.121141
75.9691 8.64531 -0.266549
792.605 8.36532 0.482838
26.263 11.3603 0.291936
688.111 42.405 -0.354367
774.411 21.7633 0.331454
192.063 31.2396 -0.275866
894.362 31.8571 -0.130302
38.9287 27.3798 0.113952
596.129 2.93186 0.312547
158.432 7.35314 -0.456016
666.727 32.24 0.364122
561.981 25.0881 -0.120489
194.396 0.918063 -0.255776
36.4977 2.44506 0.268874
386.572 17.3719 0.269617
700.835 43.1407 0.132131
514.276 32.4855 -0.170125
443.202 1.03163 0.186209
805.823 7.37486 0.325054
29.4503 41.4867 -0.0067882
284.699 29.5473 -0.290783
831.586 7.15768 0.178815
765.202 41.9336 -0.348736
463.875 8.46505 -0.45434
638.348 3.4582 -0.33371
868.457 27.4743 0.378377
145.919 7.35837 0.280618
555.258 24.4605 -0.131029
531.711 14.6476 -0.110334
327.006 16.3651 -0.268995
23.1154 13.217 0.229349
923.714 30.13 0.31332
369.422 37.784 -0.27018
771.595 18.8281 0.308689
792.214 12.0639 -0.24204
935.811 10.5841 -0.177516
518.057 33.4323 -0.168304
103.137 36.8522 -0.263437
785.577 31.7713 -0.208659
736.424 35.9813 0.0961538
958.137 34.1858 0.0994585
927.114 1.24404 -0.472669
323.412 28.1945 0.421861
702.946 6.19673 -0.0939534
27.1974 5.21189 0.376049
147.97 36.719 0.141157
572.684 13.8299 0.181643
913.218 22.6818 -0.472523
218.057 27.6647 0.234161
49.7872 33.4486 0.260926
549.786 1.16396 0.0947752
262.597 8.74082 -0.334405
871.77 36.355 0.255094
898.92 24.3498 0.236143
401.791 20.0371 -0.245587
182.873 25.7784 -0.443786
616.549 36.6995 0.403971
423.182 14.9161 -0.436162
460.613 28.6497 -0.109216
421.117 4.43717 0.404035
614.16 10.6507 -0.0919106
959.948 11.1145 0.146759
89.7776 37.7534 0.392314
373.371 4.68363 -0.179171
630.229 9.16657 -0.312449
401.091 42.4716 0.43885
28.9172 23.7393 -0.463623
34.1368 5.64689 0.324479
639.659 30.6241 -0.39605
565.309 22.7968 0.139962
29.4828 35.8113 0.396228
103.925 29.439 0.223356
362.122 15.4508 -0.30671
678.019 18.0761 -0.125197
531.456 36.5939 0.298835
852.54 7.4886 -0.337187
842.659 6.13433 -0.180753
431.517 35.8186 -0.0943719
722.559 23.9524 0.0909576
266.087 16.6666 0.483313
368.084 3.60536 0.465926
115.907 30.3915 -0.318185
130.001 23.1038 0.263002
611.443 37.1132 0.0723276
341.494 18.4041 0.455908
819.956 32.6487 -0.103359
770.259 40.9114 -0.106846
538.327 19.8651 -0.379706
903.823 8.41966 0.265299
479.695 22.4122 0.221184
309.413 23.5022 -0.30314
772.862 28.8267 0.266325
311.518 27.6069 -0.376652
650.46 11.3103 0.166217
370.704 34.5305 0.183168
566.36 11.1675 0.407922
409.869 30.0716 0.0871582
482.301 16.0973 -0.104222
355.679 40.6424 0.432891
213.757 28.7935 -0.121893
906.372 41.1427 0.15186
954.74 11.5411 -0.257057
6.71064 11.6764 0.44277
486.618 21.673 -0.416618
42.9293 21.7685 0.0819991
420.611 30.0783 -0.449512
442.177 24.0384 -0.247859
83.8427 11.6184 -0.437483
58.3266 32.1601 0.417497
253.33 13.0312 0.352338
702.451 36.8795 0.382469
653.429 19.4168 -0.432036
84.0827 20.269 -0.461549
803.368 43.2337 -0.405173
888.13 2.41641 0.399841
756.817 38.1124 0.456537
800.547 2.30586 0.381601
621.145 25.5117 0.390977
665.796 42.5778 0.437594
577.152 17.6159 -0.380466
951.129 2.88853 0.209986
250.938 24.0375 0.11
143.221 33.6527 -0.0345499
277.302 6.31169 0.349148
106.104 3.99462 0.233304
71.9649 9.70374 0.186388
309.188 34.8287 -0.29935
18.9302 23.9481 0.352025
627.678 18.5549 -0.385648
687.833 37.4948 0.209716
520.174 20.4862 -0.343633
938.649 35.2035 0.35614
456.436 8.30164 0.0917017
489.888 34.7046 -0.331407
605.572 3.39559 -0.176316
25.8028 23.1414 0.369574
653.473 4.22421 -0.377065
616.384 4.33253 -0.279028
231.931 11.1742 0.461625
477.886 15.9921 0.179477
349.273 6.22232 0.300192
435.349 18.4137 -0.330828
857.251 39.7924 0.104566
216.046 24.9034 0.402499
918.001 6.6821 -0.294041
856.231 36.0207 0.328616
430.498 9.85139 -0.196951
828.112 2.3728 -0.375702
688 24.1104 -0.37904
861.75 17.3773 -0.374464
484.387 41.2627 -0.261078
559.804 12.0639 0.307783
523.924 42.7368 -0.218205
501.294 8.49998 0.14838
760.573 37.4038 0.266105
757.986 33.7218 0.287613
215.949 37.6926 0.340026
933.462 10.4757 -0.111017
668.452 43.3213 0.241664
12.6619 16.6224 0.17834
458.021 24.5196 0.332954
210.994 22.2842 -0.391532
104.777 37.797 0.19743
910.891 20.183 -0.419548
752.879 41.3229 -0.222459
358.386 24.7449 0.365192
602.028 9.99198 0.320893
92.7798 42.5883 -0.161719
278.447 25.2657 -0.475702
630.731 22.5406 0.363317
548.553 17.8657 0.396371
295.403 0.889781 -0.340623
626.859 38.4808 -0.345498
604.054 39.5171 -0.431068
543.703 31.7922 0.373974
563.19 0.758298 -0.468649
812.65 17.2584 -0.361342
202.442 11.5649 -0.153146
565.055 34.4092 0.416868
640.703 37.4454 0.110051
81.7565 0.950035 0.272628
283.105 4.65598 0.163529
954.008 13.4265 0.171121
936.206 12.5453 -0.351964
962.305 15.4792 -0.462788
341.117 8.37711 -0.226875
869.434 21.2099 -0.379605
458.498 39.7575 0.309845
505.803 0.809244 -0.40199
744.227 32.9755 -0.434241
30.8023 29.6298 -0.27143
371.618 40.1328 -0.335059
284.024 2.80309 0.297615
919.878 36.8594 0.186234
824.544 44.5861 0.217601
323.143 10.595 0.152966
765.555 27.3806 -0.0896437
631.922 2.64018 0.222846
614.031 6.34564 0.41283
109.114 17.4974 -0.446707
340.885 1.03281 -0.21734
386.356 2.26115 -0.362837
15.7619 7.59156 0.265757
4.95563 29.7786 -0.230313
182.988 18.6514 0.334769
77.0652 40.3909 0.213835
75.4925 27.7523 -0.313885
477.307 14.2909 -0.369567
413.293 33.5888 -0.458122
892.064 33.8162 0.115321
22.1349 3.83928 -0.29321
79.3277 6.6997 0.136785
714.234 36.1587 -0.138661
331.783 0.933446 0.315045
410.403 15.6668 -0.0915868
265.647 4.53225 -0.388177
749.017 20.3431 0.15951
509.261 8.18806 0.389915
872.676 19.1792 -0.356974
721.734 27.3764 -0.295351
770.607 16.9744 0.0755723
473.661 25.6262 0.463756
115.226 43.2868 0.302324
615.472 40.508 0.0658275
858.6 12.9435 -0.176433
268.003 29.3316 -0.224621
36.4259 16.5891 0.162381
378.478 13.4261 0.479879
121.762 39.134 -0.0514895
301.37 41.061 -0.184119
479.624 1.04886 0.191647
920.354 26.8856 -0.385571
792.467 0.826784 -0.449879
374.001 2.97141 0.439906
337.669 25.8758 0.139299
522.803 39.4839 0.196853
91.9655 7.50015 0.447451
223.506 43.6407 0.377512
901.853 26.606 0.352179
559.717 37.2096 -0.0753086
225.662 40.1187 -0.247158
181.388 40.4807 -0.392336
961.765 30.1931 -0.390835
958.098 11.0582 -0.431246
691.364 3.57011 -0.475717
214.669 23.6291 0.0924766
623.365 26.5695 0.108563
625.464 26.2929 0.248818
461.375 5.49424 -0.139542
544.178 0.936555 -0.280512
889.764 35.8316 -0.460446
96.1261 29.5728 -0.216266
755.329 17.5179 0.409377
309.319 15.2317 -0.319356
11.2848 2.31331 -0.327988
141.736 35.257 -0.188453
75.8425 22.1744 -0.430295
812.115 34.4681 0.297591
927.042 40.7619 -0.160182
209.898 27.2834 0.177457
948.855 11.1876 -0.289873
50.9413 35.2226 -0.243002
102.786 27.8083 0.153448
726.235 12.5341 0.348047
466.448 17.771 -0.446535
588.449 16.2649 0.105875
268.695 27.4185 0.0827526
710.808 4.44107 -0.416063
963.177 10.6979 0.298729
33.8086 30.7834 -0.264221
304.499 7.65107 0.187442
250.848 14.6497 0.232792
1.11574 34.1791 0.146734
254.344 14.1244 -0.356238
238.996 10.7502 0.142397
242.278 25.3991 -0.264464
150.341 26.8519 0.137561
621.43 14.5336 -0.316735
189.203 13.8597 -0.285206
913.975 38.3406 -0.217562
196.817 3.72154 0.442962
53.723 36.3054 -0.292678
864.745 45.4056 -0.426465
316.667 30.7728 -0.384792
781.366 22.0553 0.412261
932.036 26.5895 -0.50525
339.095 9.02101 -0.112086
854.132 28.032 -0.327287
370.587 2.6706 -0.337599
469.472 23.1882 0.379263
777.759 15.3448 -0.416474
119.583 11.5107 0.389945
545.946 3.96767 -0.451699
876.85 16.9339 -0.19865
99.6641 7.61153 -0.179973
317.549 14.3275 0.199586
478.16 11.4248 -0.198009
949.283 2.51926 0.360324
448.767 1.75265 -0.414181
200.036 37.4241 -0.26731
861.447 10.3492 -0.277325
145.228 34.8061 -0.176401
296.762 30.5897 -0.377308
452.032 21.0377 0.20536
653.275 12.9972 -0.317714
437.107 9.93899 -0.38474
515.975 26.7648 -0.400988
901.828 42.8303 -0.357669
53.7339 10.6957 -0.0891224
337.397 36.8427 -0.252697
428.245 26.0847 -0.348696
462.237 20.526 0.248366
591.747 42.9173 0.35689
881.822 33.8659 0.205384
764.444 32.9616 0.359424
254.859 33.2454 -0.384388
16.0465 30.0632 -0.151912
756.125 34.4664 -0.124686
576.952 39.6585 -0.270378
259.197 37.9898 0.0913835
789.917 29.3412 -0.106459
171.227 8.96924 0.185448
413.745 20.4878 0.264472
524.544 40.6448 -0.0976491
467.672 19.0818 0.182633
896.92 45.3884 -0.290972
481.071 3.32719 0.406494
56.4939 24.2792 -0.282599
531.969 30.4365 0.35225
491.387 40.1919 0.35405
917.239 32.5031 0.214434
851.112 27.0811 0.246881
614.296 17.8366 -0.158469
906.513 34.3626 0.406012
330.822 2.05335 -0.433517
427.041 28.0758 0.444653
32.8661 37.4932 -0.297455
857.37 28.7484 -0.139578
697.391 19.1452 -0.442452
523.816 0.797405 -0.456531
143.161 4.39508 0.291257
482.54 38.6639 -0.104922
13.9312 0.912755 0.307882
947.988 5.23394 0.110575
[...]
POINT_DATA 13483
TENSORS Strain_matrix float
-0.0321514 -0.00992086 0.0984393 
-0.0101943 -0.0589709 -0.265605 
-2.4739e-18 -9.2382e-18 1 

-0.0612262 -0.0155068 0.136223 
0.0292376 0.00321437 0.212371 
-4.72879e-18 -4.2989e-18 1 

-0.00875216 -0.0157385 -0.856255 
0.0116227 -0.100385 0.656935 
-6.15965e-18 -3.74479e-18 1 

-0.135436 -0.00949896 -0.119494 
-0.0172716 0.00181739 -0.0399823 
9.05626e-19 -7.72154e-18 1 

-0.0273461 -0.00259065 -0.0230843 
0.0328769 -0.096808 -0.00127331 
-4.35212e-18 2.92559e-18 1 

-0.0203457 -0.00626887 -0.855314 
0.00513882 -0.0601689 0.0606812 
1.28064e-18 -8.39318e-19 1 

0.0163146 -0.0188043 0.00809167 
0.007336 -0.111442 0.0158948 
4.12686e-18 1.18967e-17 1 

-0.0347014 0.0134412 -0.0756044 
-0.00305447 -0.0692428 -0.0583855 
7.67965e-18 -6.32719e-18 1 

-0.018631 0.0319826 -0.106384 
0.0504875 -0.0424481 -0.159449 
-2.47216e-17 -2.50943e-17 1 

-0.107736 -0.0099562 -0.0980119 
-0.0223861 -0.0630823 0.185801 
1.727e-17 2.68737e-18 1 

-0.0159734 0.0189472 0.110644 
-0.0140549 -0.0764128 -0.193175 
-5.48129e-18 3.78207e-18 1 

-0.0284879 -0.032493 0.0052386 
-0.0697872 -0.103461 5.41853e-05 
1.70086e-18 -8.09932e-19 1 

-0.0368712 0.014944 -0.157731 
0.0320926 -0.0231499 -0.102763 
2.67298e-18 -5.34597e-18 1 

-0.0680611 0.0375211 -0.258146 
5.1361e-05 -0.0577857 0.153031 
-4.5109e-19 -5.2126e-18 1 

-0.0337168 -0.00885077 -0.0703978 
0.025108 -0.0918369 -0.078382 
-7.24599e-18 -1.01155e-17 1 

-0.00894359 -0.0224146 -0.264259 
-5.70946e-05 -0.0431738 0.261831 
4.51428e-18 1.01767e-17 1 

0.00867933 -0.00353251 0.0121908 
-0.00307814 -0.105758 0.0368713 
-5.07371e-18 4.45754e-18 1 

-0.0445527 0.0125176 -0.0114165 
0.0232543 -0.103847 -0.0453775 
5.20038e-18 4.46908e-18 1 

-0.0516045 -0.0136526 0.112134 
-0.028712 -0.0573069 0.012495 
-1.23306e-18 2.15786e-18 1 

-0.0278947 0.0280275 0.198441 
-0.0564371 -0.0909947 -0.14848 
-4.17698e-18 -1.67079e-18 1 

0.00538573 0.00369839 -0.146193 
0.0350945 -0.0587244 -0.104049 
8.03495e-18 -2.32672e-18 1 

-0.0322036 -0.062646 0.171027 
0.0214652 -0.0342877 0.255959 
7.65522e-19 -3.76872e-18 1 

-0.120013 0.0154549 -1.76265 
-0.0529609 7.28608e-05 1.30931 
-7.35367e-18 5.23495e-18 1 

-0.0514085 -0.0248084 0.0242234 
-0.0166372 -0.0257779 0.592799 
-3.06474e-18 -1.24583e-17 1 

-0.0152945 -0.0143193 -0.12928 
0.0730441 -0.0661459 0.0694156 
1.50586e-17 -7.54173e-18 1 

0.0109366 0.0348355 -0.178729 
-0.0561127 -0.0582327 0.0461192 
5.31445e-18 9.29374e-19 1 

-0.0319964 -0.00404979 1.14567 
-0.00482292 -0.0475827 -5.48913 
-8.41312e-19 3.35128e-19 1 

-0.0346697 0.00165407 0.0175519 
-0.00634319 -0.0476709 0.0621199 
4.06382e-18 -6.05445e-18 1 

-0.0168763 0.0143596 0.313193 
0.0184976 -0.0904369 -2.10621 
4.6494e-18 4.58895e-18 1 

-0.105899 0.00384873 -0.153751 
-0.0151012 0.0019572 0.0585582 
-8.92448e-18 6.46569e-18 1 

-0.036713 -0.0373087 -0.0270247 
0.00960587 -0.15976 0.389016 
2.74756e-18 0 1 

-0.0165999 0.0820423 -0.131732 
0.100201 -0.142685 -0.136543 
1.48576e-18 4.35824e-18 1 

-0.0810635 0.0160203 -0.270773 
-0.000279342 -0.00532977 -0.106709 
-1.56693e-17 2.85639e-18 1 

-0.00932987 0.0064315 -0.170525 
-0.014926 -0.000861555 -0.3896 
1.2846e-18 1.91158e-17 1 

-0.045847 0.0119035 0.00223285 
-0.0296246 -0.0742751 0.0286422 
-1.872e-18 -9.42041e-18 1 

-0.0454352 -0.0147298 0.0193249 
0.0606903 -0.0326671 0.0564469 
2.38866e-18 -4.37921e-18 1 

-0.0305628 0.00441425 0.538998 
-0.00619652 -0.0649471 0.0717148 
-5.28775e-19 -5.11416e-18 1 

0.00968006 -0.0165397 -0.0734625 
0.033944 -0.156219 0.20815 
-7.93936e-18 1.28966e-17 1 

0.00255877 -0.0216108 -0.0692515 
0.02847 -0.0801972 0.100412 
5.01833e-18 -1.94588e-18 1 

-0.00249117 0.00417405 0.038201 
0.00641683 -0.068902 -0.00373657 
1.09891e-17 3.71978e-18 1 

-0.00525147 0.0186651 -0.0520613 
-0.0398534 -0.099668 -0.126297 
-7.90067e-18 6.26128e-18 1 

0.0227851 -0.0169705 0.159378 
-0.036312 -0.0475874 0.182759 
-4.80033e-18 1.61544e-17 1 

-0.0682223 -0.0177847 0.118284 
0.020316 -0.0461397 0.165524 
-1.4519e-17 -4.57693e-18 1 

-0.0151498 -0.0295598 0.200751 
0.00149835 -0.0959972 -0.088028 
-1.99973e-19 -2.66631e-19 1 

-0.00224716 0.00570736 -0.00451212 
-0.00157578 -0.12142 0.143097 
-4.34293e-18 3.44078e-18 1 

-1.94546e-05 -0.00698697 -0.049232 
-0.00649098 -0.0963895 0.048038 
6.95552e-18 -9.96334e-18 1 

-0.0578013 -0.011041 0.128952 
-0.0180406 -0.0956661 -0.516132 
4.68494e-18 -3.50656e-18 1 

-0.0122956 0.013394 0.0245901 
-0.0261217 -0.139442 0.00462532 
-3.40711e-18 2.97384e-18 1 

-0.0575653 0.0229631 0.0578658 
-0.0543788 -0.0514731 -0.00433789 
1.87015e-18 6.9819e-18 1 

-0.0323671 0.0231233 0.161905 
0.0261151 -0.0449954 -0.114149 
9.14787e-18 -3.64327e-18 1 

-0.0161452 0.0046739 -0.340264 
-0.0740852 -0.0546005 -0.0664794 
1.68364e-18 -3.02192e-19 1 

-0.0571928 -0.0436605 -0.0510496 
0.0240444 -0.0351214 -0.195152 
-1.99665e-18 1.09816e-18 1 

0.00810616 -0.0301563 0.0851291 
-0.0179723 -0.0589884 0.226522 
-8.39663e-18 -7.67641e-18 1 

-0.0427041 0.014006 0.0202083 
0.00974894 -0.0673401 -0.154882 
9.36228e-19 2.26341e-19 1 

-0.0284748 -0.00594692 0.269834 
0.00202473 -0.108835 -0.163316 
-2.64149e-19 6.44963e-18 1 

-0.0432211 -0.0079997 -0.498359 
0.00728891 -0.0427268 -0.598903 
4.72781e-18 1.08668e-18 1 

-0.0313508 -0.0345256 0.111129 
0.0199095 -0.066592 -0.0304854 
5.98899e-18 1.01508e-18 1 

-0.0128718 -0.144191 -0.415251 
-0.0144131 -0.160641 -0.0387238 
1.96549e-18 3.59318e-17 1 

-0.00798297 0.0262282 -0.0923135 
0.0154432 -0.151636 0.126139 
1.08411e-17 9.36796e-18 1 

-0.0246282 0.0266964 0.554985 
-0.0281434 -0.107245 0.0727085 
-2.16401e-18 2.74023e-18 1 

-0.0379782 0.124227 0.398861 
0.0408539 0.00642588 -0.0956296 
4.80682e-18 1.2051e-17 1 

-0.016915 -0.00909242 -0.0482512 
0.0226451 -0.0237596 -0.00217315 
-1.01605e-17 9.23889e-18 1 

-0.0271341 0.00186792 -0.0585551 
0.000894682 0.00977884 0.0490473 
-4.99374e-18 3.53972e-17 1 

-0.0468417 -0.025775 -0.145622 
0.0200335 -0.08586 0.101538 
-5.40197e-18 -1.64111e-18 1 

0.0161477 0.0267589 0.129969 
0.0154368 -0.0187023 0.0122072 
-2.00364e-18 -1.08035e-17 1 

-0.0434031 -0.0487789 -0.00122296 
0.0507 -0.0608272 -0.0591118 
-2.12194e-18 -1.70934e-18 1 

-0.0927918 0.0147292 -0.00881236 
0.0247807 -0.0606254 0.0116285 
-5.23018e-18 -1.86467e-18 1 

-0.0271155 -7.10903e-05 -0.0636889 
-0.00255845 -0.0250175 0.163667 
3.21555e-18 -5.25722e-18 1 

-0.0321081 0.00391905 0.369482 
-0.0352535 -0.101145 0.0221026 
2.8871e-18 -8.1763e-18 1 

-0.063988 -0.0245347 0.0970287 
-0.00642099 -0.11013 0.0879077 
-3.544e-18 7.60782e-18 1 

-0.103212 0.0273503 -0.188236 
-0.0378011 -0.0637898 -0.263606 
3.35585e-19 2.78411e-18 1 

-0.00830395 0.0160415 -0.192835 
-3.18519e-05 -0.0976828 -0.00903215 
-3.94607e-18 -2.5613e-18 1 

-0.0211509 -0.0220323 0.00912215 
-0.038214 -0.0769717 0.0973872 
-4.51018e-18 6.42579e-18 1 

-0.0170671 -0.0107378 -0.0209119 
-0.0112765 -0.0769465 -0.0500342 
8.94253e-18 -3.51493e-18 1 

-0.0283247 -0.0289079 -0.0759411 
0.00118929 -0.0553532 -0.0324885 
-8.06781e-18 2.04663e-19 1 

0.0262323 -0.0154808 0.115059 
-0.0608585 -0.120895 -0.113678 
8.77495e-18 0 1 

-0.0826375 0.0354308 -0.0838561 
0.0830645 -0.0499438 0.0615365 
-5.36428e-18 -3.43864e-18 1 

-0.0287409 0.0155307 -0.109387 
-0.0180379 -0.0537226 -0.026664 
-1.58037e-17 3.62562e-18 1 

-0.0672074 -0.0924667 0.0558417 
0.0361874 -0.105947 -0.184926 
5.02525e-18 -1.40868e-17 1 

-0.0540651 0.0191554 -0.0501099 
-0.0178837 -0.067495 -0.387205 
-6.56839e-18 -5.09449e-18 1 

-0.1054 0.0436053 -0.103178 
-0.0253319 -0.0632933 0.192298 
1.40689e-18 8.62115e-19 1 

-0.0107072 -0.0057044 0.0904352 
0.00802531 -0.0277285 0.042567 
2.2871e-18 -1.93584e-18 1 

-0.0303718 0.0205109 0.0993402 
-0.00626634 -0.0155637 -0.209212 
-1.62597e-17 -8.39475e-18 1 

-0.0460989 -0.0177199 -0.059211 
-0.00448281 -0.0545355 0.145755 
-9.3787e-18 3.11696e-18 1 

-0.0462572 -0.00757888 -0.165502 
0.0102244 -0.0429094 -0.122493 
-4.91915e-18 1.75625e-17 1 

-0.0513781 0.0432307 0.0266624 
-0.0565423 -0.019062 -0.0719996 
-1.14928e-18 9.84725e-18 1 

-0.100486 0.026894 0.394711 
0.006343 -0.0446823 0.0400747 
-3.90724e-18 8.73265e-18 1 

-0.0365215 0.0249301 0.242154 
0.0457449 -0.08565 -0.340412 
9.85585e-19 -1.15806e-17 1 

-0.0500833 -0.0166525 0.0668138 
0.0169537 -0.0785499 -0.0879135 
2.91764e-18 -6.5647e-18 1 

-0.0241456 -0.00194284 -0.0279735 
0.0072399 -0.102305 0.0854057 
7.64e-18 -8.62581e-19 1 

-0.0500939 -0.0501892 0.0471218 
0.0109206 -0.0569972 -0.0400266 
7.018e-18 -2.33933e-18 1 

-0.00979737 0.0180347 0.0551073 
0.00680448 -0.0939513 -0.0564974 
6.96765e-18 3.4361e-18 1 

-0.127304 -0.0236187 -0.198423 
-0.0235766 0.020924 -0.611327 
-2.81825e-18 5.78102e-19 1 

-0.0477205 -0.0032264 -0.0836057 
-0.0393679 -0.0564283 -0.0469787 
-1.25233e-17 4.61277e-18 1 

-0.0222265 0.00348165 -0.0316733 
0.00304318 -0.0386153 -0.249635 
-6.39133e-18 -6.64401e-18 1 

-0.0233393 -0.0214537 0.115193 
-0.0197711 0.0128271 -0.291974 
-2.28795e-18 2.6613e-17 1 

-0.0295186 -0.000768902 0.0184536 
-0.0175822 -0.0714614 -0.0197916 
-4.97022e-18 1.27336e-18 1 

-0.0683364 -0.011567 0.0810352 
-0.038912 -0.0274208 -0.103261 
5.74887e-18 4.70528e-18 1 

-0.0950237 -0.023458 -0.0656939 
-0.0203511 -0.00170141 -0.0206521 
2.67876e-18 1.60725e-17 1 

-0.00125156 0.0514817 0.0934868 
-0.0646081 -0.0793787 0.0493262 
1.85632e-18 1.77194e-18 1 

-0.00572654 -0.0244633 -4.13095 
0.0357699 -0.0706816 2.18714 
-2.67185e-19 -4.09579e-18 1 

-0.0369972 -0.013011 -0.258847 
0.0100436 -0.0464075 0.37771 
-1.62398e-18 2.02869e-18 1 

-0.0167933 0.0136167 -1.46422 
0.0299086 -0.096164 1.57437 
2.33862e-18 -3.79236e-19 1 

0.00919294 0.0226962 -0.101223 
-0.0607685 -0.0832529 0.0228646 
-4.49972e-18 -3.67814e-18 1 

-0.0160438 -0.0140191 0.507653 
0.0166721 -0.0989021 -0.385046 
2.07249e-18 1.78006e-19 1 

-0.0302742 0.0145131 0.224485 
0.0311585 -0.0840855 0.0431923 
-4.67455e-18 -3.96321e-18 1 

-0.106251 0.0138996 0.0250081 
-0.0185253 -0.0322199 -0.0580455 
4.50374e-18 -2.70647e-18 1 

0.00136446 0.00374858 -0.306284 
-0.0220146 -0.0589313 -0.206912 
-5.54822e-18 3.31945e-18 1 

-0.0309739 -0.0214954 -0.0573401 
0.00433218 -0.0961734 0.0814209 
5.87671e-18 2.17843e-18 1 

-0.0463377 0.0196332 0.219373 
0.0317398 -0.0943346 -0.369042 
1.11996e-17 3.40176e-19 1 

-0.0334406 0.00999632 0.42906 
0.013796 -0.036334 0.156998 
-4.19164e-18 -9.81225e-18 1 

-0.00202462 0.0278384 -0.487467 
0.0233247 -0.0749186 -4.81273 
7.26342e-18 -1.83034e-18 1 

-0.0177995 0.00638319 0.0653781 
0.00530089 -0.123172 0.0265671 
1.23627e-18 9.36907e-18 1 

-0.0127403 -0.0121211 -0.341729 
0.020638 -0.0481597 0.755313 
-8.6532e-18 -2.28826e-18 1 

-0.0263867 -0.0286347 -0.0943797 
0.0134406 -0.0475483 0.0139925 
-3.54665e-18 1.20586e-17 1 

-0.00793001 -0.00416475 0.136633 
-0.0179061 -0.045272 -0.192726 
7.21304e-18 -3.87701e-18 1 

0.00463611 0.0270933 0.290983 
-0.00382269 -0.0988289 -0.32901 
3.88544e-18 -8.64648e-18 1 

-0.0264359 -0.000810293 -0.0516071 
0.0557374 -0.0711496 -0.10144 
6.8769e-18 -1.0188e-18 1 

-0.060836 0.0340392 -0.0702316 
-0.029513 -0.0789463 -0.159961 
5.8586e-18 -9.41066e-18 1 

-0.0258897 0.0176545 -0.194113 
-0.0311085 -0.0357384 -0.556886 
-3.87303e-18 -2.21316e-19 1 

-0.0748126 -0.000589859 -0.0628029 
0.013831 -0.0942421 -0.0880612 
9.09956e-18 -8.57814e-18 1 

-0.0756932 0.0283889 0.0961161 
-0.0529339 -0.0641589 -0.0669414 
9.46842e-18 -4.95022e-20 1 

-0.0139147 0.00526199 -0.0801402 
-0.00903954 -0.0234564 -0.0243554 
-6.18489e-18 -1.948e-19 1 

-0.0461256 0.0113836 0.0159159 
-0.0431244 -0.0580922 0.07137 
4.69605e-18 -4.75464e-18 1 

-0.00953394 -0.0076585 0.144079 
0.00355429 -0.0837662 0.842823 
-2.30015e-18 4.48716e-18 1 

-0.0256255 -0.00791838 0.0128419 
-0.010148 -0.130388 0.374959 
-4.34309e-19 1.99895e-17 1 

-0.0508692 -0.0413445 0.0179379 
0.00170529 -0.042429 0.00696876 
-8.29473e-18 3.32143e-18 1 

-0.0629945 0.00941455 0.351809 
-0.0269022 -0.0830747 0.468372 
9.84292e-19 6.97953e-18 1 

-0.0133508 -0.000996143 -0.0683599 
-0.0211719 -0.0493737 -0.114194 
-3.53741e-18 -8.53274e-18 1 

-0.0162642 -0.0073264 -0.201502 
-0.0115858 -0.0781449 0.481154 
9.00253e-19 1.57187e-19 1 

-0.0511219 -0.0196156 0.124244 
0.0250246 -0.00915674 -0.0702823 
3.82216e-18 -1.68016e-17 1 

-0.0494318 0.03479 -0.0821723 
-0.0117387 -0.00641417 -0.0177206 
-7.70282e-18 -1.79453e-17 1 

-0.0218751 0.0208773 -0.0338731 
-0.00863245 -0.0609726 0.304219 
-8.94955e-18 -5.66427e-19 1 

-0.106857 0.0382963 0.00140781 
0.0187126 -0.0668 -0.0272618 
-1.4555e-17 6.808e-18 1 

-0.0174815 -0.00305733 0.085164 
-0.022214 -0.0406993 -0.0553136 
7.91556e-18 -2.04171e-18 1 

-0.047921 0.0226688 -0.416919 
-0.0208777 0.00388681 -0.193942 
1.79359e-17 -9.34367e-18 1 

-0.0792135 0.0456122 -0.0584691 
-0.0161505 -0.0118777 -0.247143 
-1.05825e-17 -7.59513e-18 1 

-0.0507091 -0.0305547 -0.109038 
0.062164 -0.0817538 -0.0976656 
3.62895e-18 7.2579e-18 1 

-0.032392 -0.00600779 -0.0130903 
0.019301 -0.075632 0.0878722 
-1.05434e-17 3.27917e-18 1 

-0.0258793 0.0128269 0.017271 
-0.0754358 -0.0395738 -0.173613 
-7.71893e-18 -4.10507e-18 1 

-0.0292839 -0.0222153 0.021876 
-0.00623473 -0.063369 -0.0749231 
-4.34468e-18 5.60604e-18 1 

-0.0193207 -0.000827309 -0.0471149 
0.0209973 -0.0555634 0.0380389 
-3.59183e-18 -1.91892e-18 1 

-0.00614703 0.000916056 -0.0639429 
-0.00489128 -0.0551291 -0.091476 
1.99282e-19 -9.5795e-19 1 

0.000448688 0.00922263 0.116724 
-0.00584099 -0.0551074 -1.088 
-6.58567e-18 -6.50359e-18 1 

-0.0123126 -0.00720434 -0.0532525 
0.0140341 -0.0466266 0.0444337 
4.21272e-18 3.19127e-18 1 

-0.0406653 -0.0316682 -0.126349 
0.000226623 -0.00377275 -0.10328 
-3.77413e-19 3.11365e-18 1 

-0.0790572 0.00566748 0.0117854 
0.00393236 -0.0558252 0.0115443 
0 -7.44244e-18 1 

-0.015478 0.0066713 -0.141231 
0.0483418 -0.122115 0.562663 
-6.50455e-18 2.57756e-19 1 

-0.0246862 -0.0170224 -0.169725 
0.0229689 -0.07512 0.0568944 
-9.49197e-19 -3.1844e-18 1 

0.0438168 0.059222 -0.0578477 
0.043126 -0.107977 0.137461 
1.26763e-17 4.62961e-18 1 

-0.0239505 -0.000997351 0.121735 
0.0390625 -0.0697555 0.227676 
4.79604e-18 -1.98286e-18 1 

-0.0698224 0.0490759 -0.00141724 
0.0226335 -0.048737 -0.0129622 
7.64863e-18 -2.2715e-18 1 

-0.0166483 -0.020435 0.101655 
0.0108836 -0.0979731 -0.12466 
-5.05136e-18 4.73524e-18 1 

-0.00737028 -0.002165 0.0654741 
-0.002659 -0.0604009 0.357698 
-6.89943e-18 1.7805e-18 1 

-0.028548 -0.00991641 0.00957357 
-0.021583 -0.075462 0.121618 
-1.08535e-17 8.78277e-18 1 

-0.0567514 -0.0290029 0.194514 
0.0193951 -0.00532764 -0.266319 
3.19825e-18 1.14219e-17 1 

-0.0386134 0.00804771 0.224527 
0.00560264 -0.0612554 0.176785 
4.17279e-18 1.21643e-17 1 

-0.0308271 -0.00671253 -0.573164 
-0.00122406 -0.0494563 -1.31313 
-7.20351e-18 7.08542e-18 1 

-0.0661798 0.0116943 -0.0733535 
0.0303018 0.0353902 -0.695039 
-4.06845e-18 -8.7642e-18 1 

-0.0882793 0.047067 -0.107329 
0.0198246 -0.108566 0.275916 
3.59766e-20 -3.16594e-18 1 

-0.048751 -0.0152624 0.314711 
-0.000205468 -0.0324501 -0.0417091 
-1.40144e-18 -2.8976e-18 1 

-0.0401788 -0.0129373 -0.118165 
-0.00840572 -0.106291 -0.00429471 
1.13796e-17 2.2815e-17 1 

-0.0163821 0.00252308 0.101394 
0.0179028 -0.0657935 -0.17662 
6.94113e-18 4.50997e-18 1 

-0.0362645 0.000195213 -0.712452 
0.0148485 -0.0239517 -0.330439 
-1.29952e-18 1.66003e-18 1 

-0.0334342 -0.0130311 0.0750019 
0.0751491 -0.0906611 -0.00295443 
8.67479e-19 1.07687e-18 1 

-0.107697 0.0944751 -0.144942 
0.0134925 -0.093237 0.220765 
-5.91637e-18 5.98598e-18 1 

-0.0115046 0.00655872 -0.038477 
0.0270676 -0.0895836 -0.0428828 
7.76329e-18 -1.06098e-17 1 

-0.0345117 -0.0197749 0.0348926 
0.0179931 -0.0364422 -0.0693578 
-9.87294e-18 1.53759e-18 1 

-0.00686443 -0.0754926 -0.0479843 
0.0108599 -0.124194 -0.0137764 
-4.70412e-18 1.14092e-18 1 

-0.0184892 0.00456517 -0.0443432 
-0.0286975 -0.130411 -0.269372 
2.45565e-18 -2.29856e-18 1 

-0.0139138 0.00669529 -0.0386587 
0.00595858 -0.0713487 -0.0169043 
5.36737e-18 -5.07553e-20 1 

-0.0186187 -0.0139453 -0.0190052 
0.0109199 -0.0495107 -0.0881771 
-3.91766e-19 -1.3605e-17 1 

-0.062514 0.0821013 0.0257733 
0.0679209 -0.105512 0.120395 
1.44933e-17 5.75308e-18 1 

-0.0640482 -0.00136582 -0.283137 
-0.0146695 -0.0334169 0.161723 
-6.09107e-18 -6.93522e-18 1 

-0.0401693 0.00322866 0.00444988 
-0.0250276 -0.0475564 -0.0125249 
1.64132e-17 -3.59413e-19 1 

-0.0627982 0.0100319 0.0803175 
-0.0112421 -0.0707629 -0.0155898 
-1.07241e-17 -9.80637e-18 1 

-0.113772 0.0495602 0.244125 
0.0431509 -0.0176383 0.0281265 
6.69119e-18 1.27258e-18 1 

-0.0296582 0.00773955 0.0160962 
0.0133747 -0.0694885 -0.129616 
5.48966e-18 8.96296e-18 1 

-0.0276433 0.00370121 0.120201 
0.00290306 -0.0403902 -0.0975681 
-3.58369e-18 1.91686e-18 1 

-0.0293314 0.0359942 0.0290007 
-0.0287705 -0.101153 -0.0327027 
9.67559e-18 -2.31661e-18 1 

-0.0207753 0.073883 -0.252377 
-0.107876 -0.0554305 0.457157 
6.73718e-18 -6.59368e-18 1 

-0.0412536 -0.029962 -0.0516961 
0.0380739 -0.110975 0.0265684 
-4.38843e-18 6.87672e-18 1 

-0.0228116 0.00196057 -0.0832489 
-0.0388318 -0.0736123 0.0469006 
-1.75732e-17 -3.9229e-18 1 

-0.0157928 -0.00639811 0.297027 
0.00909544 -0.0829921 -0.484945 
-1.82556e-18 -4.7953e-18 1 

-0.0484906 -0.00392976 -0.00824536 
0.071522 -0.0498521 -0.156923 
-1.02388e-17 -2.36564e-18 1 

-0.0368602 0.013804 0.00337355 
-0.0768502 -0.07532 0.136976 
-1.12902e-18 9.03215e-19 1 

-0.0276932 0.00636991 -0.211177 
-0.0265129 -0.0921229 0.0109468 
-3.12531e-18 -1.11083e-17 1 

-0.0774556 -0.0533436 -0.18995 
0.0211322 -0.0252646 -0.0186087 
9.89715e-18 -4.77392e-19 1 

-0.0370872 0.0211053 -0.0916539 
-0.0246537 -0.0851933 0.185123 
6.99253e-18 3.5561e-18 1 

-0.0605932 0.0479698 0.0937319 
-0.0065249 -0.0505087 -0.0897631 
6.96994e-18 -8.88162e-18 1 

-0.0488825 -0.0286024 -0.0342117 
0.0520587 -0.0331137 -0.0253916 
6.57738e-18 -3.13058e-18 1 

-0.0153458 -0.0313724 -0.126057 
-0.0218653 -0.0873812 -0.0371651 
1.72998e-18 2.14852e-18 1 

-0.0726989 -0.00199588 0.126472 
-0.0131737 -0.0662314 0.165259 
3.15995e-20 -1.49511e-17 1 

-0.0607604 -0.002226 -0.0193058 
-0.00713514 -0.0323463 -0.255028 
1.77589e-18 5.86326e-18 1 

-0.0838286 0.0494291 -0.0199736 
-0.0315933 -0.0703572 0.0324001 
3.98814e-18 -2.01631e-18 1 

-0.0173984 0.00484827 0.168937 
-0.00966453 -0.0222077 -0.030153 
-1.25198e-18 8.14309e-18 1 

-0.0224606 -0.0117621 -0.0911618 
0.0378629 -0.102035 -0.0923814 
8.80848e-20 4.32874e-18 1 

0.0217696 0.0470855 0.240658 
-0.02983 -0.127613 0.127182 
-8.2309e-18 2.08761e-17 1 

-0.0149764 -0.0157595 0.00248109 
-0.0329903 -0.0991449 0.205439 
3.53832e-18 3.7386e-18 1 

-0.0531052 -0.00232485 0.0216274 
0.0219624 -0.00555332 0.00616323 
6.04517e-18 -1.34337e-18 1 

-0.0414632 -0.000176051 0.0605384 
0.00807737 -0.0338478 -0.105234 
-2.6565e-18 -1.85955e-18 1 

-0.0252181 -0.01103 0.275874 
-0.0430371 -0.0388744 0.0489774 
-4.56504e-18 3.67667e-18 1 

-0.108033 0.00713244 -0.0145969 
-0.008663 -0.0320806 0.176957 
-8.173e-18 5.91332e-18 1 

-0.0282677 -0.00124092 0.0504335 
0.0191214 -0.029242 -0.379265 
-1.1116e-18 3.6544e-17 1 

-0.0309012 -0.0683129 0.0198265 
0.00639075 -0.112835 -0.0235015 
-1.14171e-17 -1.72844e-17 1 

-0.0191177 -0.00273813 -0.275294 
-0.0299677 -0.0642268 -0.0492773 
-3.58629e-18 3.03478e-18 1 

-0.0530177 -0.0351126 -0.152808 
0.037456 -0.0415959 -0.2096 
2.16408e-18 -3.82877e-18 1 

-0.0372432 0.0199205 -0.00827812 
0.0207198 -0.00259209 -0.210184 
-1.68485e-17 -1.30324e-17 1 

-0.119107 -0.00744406 0.252834 
-0.0386644 -0.0349636 -0.317199 
2.60857e-19 -4.14762e-18 1 

-0.0334823 -0.0260493 -0.0831557 
-0.0204036 -0.0338362 0.0564503 
8.86669e-19 -1.05292e-17 1 

-0.01986 0.00853469 -0.167485 
-0.0449396 -0.0611534 -0.037078 
5.63537e-18 -3.59195e-19 1 

-0.0662825 -0.00477353 -0.0590706 
0.0149849 -0.0670687 -0.428095 
4.3455e-18 6.63117e-18 1 

-0.00875885 0.0108379 -0.214573 
0.0366052 -0.0672415 0.0478457 
5.26647e-18 5.90016e-18 1 
