# vtk DataFile Version 3.0
Output file generated by Yade's KinematicLocalisationAnalyser
ASCII
DATASET UNSTRUCTURED_GRID

POINTS 13483 float
646.761 28.4271 -0.397942
839.34 48.3952 0.647177
126.574 6.1106 0.456809
876.147 6.2707 0.573403
527.318 7.63388 -0.300321
331.603 34.9957 -0.479819
164.992 6.84016 -0.421594
604.599 10.0773 0.147416
524.214 22.6696 0.142633
778.898 13.1237 -0.404834
221.655 8.76504 -0.102117
270.533 6.3366 -0.283427
699.491 29.0305 -0.136868
675.594 14.1901 0.0874951
144.543 17.026 0.451706
233.415 34.3272 -0.39402
229.247 12.8959 0.281753
304.097 9.44939 0.395662
358.988 32.8913 0.445926
554.935 8.51524 0.347772
432.646 36.8469 -0.103367
628.071 44.1024 0.276471
869.292 36.7637 0.431761
751.946 42.2165 0.519223
484.216 16.102 0.2897
253.943 44.0807 0.12591
519.098 27.2514 -0.4795
621.942 19.9536 0.230243
47.3959 15.4315 -0.469941
775.172 33.9336 -0.347526
509.337 4.85906 0.326115
17.8413 22.8319 0.333864
852.982 51.0137 0.267126
523.055 2.46841 0.488071
82.3967 44.133 -0.10216
552.253 30.0089 0.335804
561.681 16.5285 -0.409796
361.992 21.8404 -0.177893
565.18 25.4978 -0.318497
369.459 33.0831 0.422626
253.923 14.4699 0.343408
457.577 35.3545 0.0670093
726.75 7.06437 0.130771
203.225 6.18913 -0.37584
58.7752 6.88445 0.131982
72.384 8.8556 0.274442
744.717 8.8 0.489864
24.8966 11.641 -0.278062
649.735 44.7951 0.352529
730.093 23.1557 -0.30965
181.711 32.2944 -0.292717
834.646 35.8097 -0.135127
37.1673 27.7766 0.118446
565.691 2.9763 0.317772
149.932 7.41504 0.481481
630.977 33.1173 0.412118
533.264 25.9996 0.119871
184.327 0.947414 0.256374
34.6018 2.39769 -0.291718
367.69 17.5885 0.263149
661.916 45.7421 -0.132933
488.174 33.6649 -0.183275
421.431 1.0349 0.192817
756.835 7.8171 0.387904
27.8597 42.1916 -0.235978
270.484 30.2786 -0.295679
778.724 8.34083 0.189536
720.443 45.1727 -0.361114
440.827 8.54138 -0.488765
605.44 3.53699 -0.342773
811.226 31.0744 0.374798
138.055 7.63268 -0.269602
527.291 24.9812 -0.128096
505.016 14.8566 -0.0955247
310.631 16.638 -0.340765
21.9637 13.4713 0.251167
859.949 43.5594 0.353518
351.054 38.5541 -0.288831
726.578 19.2509 0.401362
744.066 12.6507 0.250841
862.247 11.0531 -0.24775
491.577 34.2446 -0.170767
97.5157 38.3968 0.25987
738.447 35.2516 -0.240466
694.948 38.2497 -0.113319
876.778 40.951 -0.0990862
856.128 0.747894 -0.546597
307.298 28.6536 0.443679
664.026 6.29669 -0.108066
25.69 5.22556 -0.45944
140.397 37.593 0.150651
543.519 14.0934 0.221727
848.731 26.718 0.593664
206.587 28.4979 0.240883
46.9539 34.1474 0.277059
521.929 1.15807 0.123262
249.026 8.81919 -0.367772
816.382 44.3626 -0.288551
836.364 27.4712 -0.239548
381.891 20.5796 -0.262407
173.414 26.7063 0.425183
583.759 39.2824 -0.434299
401.857 15.0334 -0.482566
437.426 29.7051 -0.110187
400.17 4.36608 0.408073
582.624 10.6069 -0.107124
879.755 13.6447 0.194646
84.7698 39.0654 -0.400186
354.811 4.76825 -0.183039
597.723 9.50885 -0.340399
381.255 43.2686 0.461815
27.6522 24.0088 0.479769
32.2761 5.64781 -0.334712
605.087 32.8947 0.40804
536.407 23.5456 -0.140733
27.969 36.0882 -0.390793
98.6023 30.7431 -0.218489
344.179 15.8391 -0.29898
641.689 18.936 0.119169
504.457 37.8952 0.307195
796.967 7.67725 -0.370951
788.649 6.31839 -0.31533
409.947 36.9337 0.097131
681.712 25.5381 -0.0923218
252.357 17.1676 0.528716
349.764 3.67652 0.468008
109.655 31.5461 0.34709
123.155 24.0489 0.272933
579.075 39.32 0.100007
324.479 18.8034 0.481258
770.581 36.8775 0.103703
724.826 44.8574 0.130948
510.653 20.6174 -0.372358
838.519 11.562 0.33412
455.116 23.4826 0.235692
294.355 23.8061 -0.301148
726.44 32.3902 -0.280142
295.772 28.7751 0.399481
616.008 12.1799 -0.188027
352.154 35.2345 0.208512
537.475 11.3924 0.45766
389.515 30.9896 0.0856122
457.612 16.6133 -0.11092
337.831 41.8532 0.273566
202.644 29.6229 -0.121474
843.309 47.3862 0.146866
876.585 14.9536 -0.285114
6.3366 12.0957 0.425914
461.586 22.258 -0.407304
40.9289 22.0764 0.0856883
400.088 31.2249 -0.479057
420.105 24.601 -0.257245
79.3797 11.6972 0.488491
55.0599 33.2564 0.434771
240.146 13.3269 0.438759
663.394 39.2215 -0.395158
618.799 20.9542 -0.436655
79.8919 20.7235 0.487695
754.586 46.1995 -0.431621
826.173 3.883 -0.573325
712.7 41.2302 -0.556523
751.735 2.35948 0.37149
588.293 27.6576 -0.421724
629.651 44.2057 -0.475701
548.005 18.1201 -0.362576
874.883 2.95308 -0.426077
237.85 24.7407 -0.122865
135.828 34.5538 -0.193259
263.16 6.54861 -0.367367
100.798 4.11886 -0.265136
68.6202 10.1258 -0.183581
293.614 35.8333 -0.319906
17.4575 24.4929 -0.369502
594.991 18.851 0.393966
649.808 39.6413 -0.227005
494.013 21.1303 -0.364636
871.759 51.2351 -0.419737
433.717 8.52858 -0.0987596
464.591 35.7649 -0.368215
574.535 3.46871 -0.178079
24.489 23.4566 -0.38391
619.089 4.48521 0.453444
584.85 4.27481 -0.294783
219.778 11.2611 0.484726
453.367 16.1045 0.184893
331.876 6.31856 0.326933
413.697 18.8826 -0.324246
803.449 43.7514 -0.12877
205.182 25.3813 0.413743
848.4 6.85216 0.395511
802.85 39.88 0.361234
409.018 10.1288 -0.177002
776.862 2.4956 -0.427697
650.515 25.2413 -0.404752
804.076 18.5093 -0.348565
459.695 42.3327 -0.289865
531.398 12.3158 0.347068
497.283 43.9018 -0.218309
475.936 8.67947 -0.0178989
716.077 40.1147 -0.299977
713.807 36.3497 0.349145
205.01 38.6599 -0.268919
860.142 11.4688 -0.121943
631.622 44.5628 -0.241839
12.3048 16.9642 0.170536
435.296 24.9795 0.330532
199.944 23.0353 0.399428
99.1631 39.4207 0.204422
844.291 23.2757 0.375996
709.875 45.9886 -0.231203
340.6 25.2867 0.350924
571.31 10.1871 0.319897
87.6022 44.2346 -0.166295
264.214 25.7097 -0.470038
598.779 24.4223 0.374096
520.711 18.3372 0.394042
280.427 0.888681 -0.342823
593.488 40.8171 0.376151
572.236 40.652 -0.512543
516.156 32.7023 0.373912
534.661 0.778649 -0.493431
762.706 19.0775 0.342123
191.839 11.9044 0.176245
536.438 36.1739 0.434506
606.504 39.9761 -0.123737
78.0029 0.943115 -0.274413
268.674 4.65683 0.15916
875.505 16.6806 0.192132
862.842 12.9092 -0.458816
881.354 20.1569 -0.533422
324.067 8.55845 -0.22616
811.071 23.0869 -0.392678
434.821 41.1951 0.354487
480.248 0.817861 -0.397168
701.8 35.9754 0.423765
29.0421 29.7199 -0.306577
353.221 41.1444 -0.504495
269.613 2.83046 0.316954
856.952 49.7758 0.2331
774.572 49.5503 -0.21856
306.863 10.8338 0.207296
721.011 29.4808 -0.0836293
599.571 2.67393 0.284301
582.526 6.31559 0.425348
103.289 18.2914 -0.476468
323.966 1.03685 -0.22589
366.984 2.26394 -0.363894
14.9283 7.60988 0.340531
4.57829 30.6406 -0.237091
173.19 18.7736 0.36457
72.9585 41.4584 0.213324
71.3906 28.6121 -0.324751
453.097 14.358 -0.40944
392.588 34.6661 -0.474347
832.84 37.8322 -0.127832
20.8547 4.01085 0.271886
75.5411 6.8159 -0.132921
674.159 38.0923 -0.185932
315.106 0.92903 0.323083
390.429 16.2127 -0.0854256
251.905 4.64076 -0.379448
706.204 21.6198 -0.199172
483.554 8.36725 0.397796
814.038 20.6512 0.380409
681.065 29.0192 -0.296561
725.548 17.513 -0.0972694
449.536 26.3589 0.517994
109.175 44.5027 0.316685
582.653 43.0783 0.0734962
801.544 13.6679 0.217086
254.338 30.2331 -0.248931
34.4932 16.7557 0.174315
359.802 13.6089 0.49583
115.044 40.1569 -0.469202
286.339 41.9476 -0.188561
455.548 1.08817 -0.209462
853.924 33.1652 -0.436013
744.38 0.774681 -0.524332
355.405 3.13988 0.513416
321.163 26.4688 0.13852
495.917 40.7806 0.206498
87.2241 7.91973 -0.419632
211.826 44.5313 -0.377414
839.63 30.7022 -0.367908
531.443 38.4994 -0.0880975
214.201 40.8875 0.260573
172.185 42.1201 -0.0767958
879.963 36.2145 -0.444168
878.471 14.9595 -0.527436
653.481 3.74567 -0.538908
203.668 24.3502 -0.0975284
589.878 28.7915 0.098896
591.903 28.198 0.255236
438.414 5.59185 -0.135167
516.712 0.928378 -0.280555
831.043 40.6701 0.445594
91.0966 30.8996 -0.213153
712.489 18.3768 0.451597
293.594 15.4063 -0.335878
10.4971 2.32313 -0.341513
134.377 36.394 -0.19972
71.7835 23.0433 0.457452
763.273 37.984 0.342079
860.296 56.8358 -0.161151
198.86 28.0353 -0.174601
871.953 13.0071 0.554146
48.3035 36.1769 0.247493
97.2271 28.6091 0.15684
685.845 12.8605 0.459663
443.254 18.0281 -0.487805
558.269 16.4778 0.114249
254.918 28.2851 -0.178988
671.528 4.55696 -0.413806
882.113 12.9267 0.460353
32.1644 31.0473 -0.268593
289.123 7.68791 0.180216
237.89 15.1128 0.257739
1.10899 35.53 -0.152529
241.225 14.5364 0.357596
226.65 10.8924 -0.110721
229.462 25.9047 -0.294042
142.474 27.5235 0.13482
589.111 14.8789 -0.329248
179.074 14.1312 -0.34028
851.136 48.2115 -0.22947
186.472 3.84393 -0.49341
50.667 37.6495 0.364171
809.185 51.0843 0.426503
301.005 31.4006 0.397268
734.655 24.3904 -0.511177
861.077 40.8244 0.470865
322.079 9.16634 -0.108716
801.177 31.2831 0.355906
352.146 2.61617 -0.362913
445.752 23.5796 0.372782
732.354 16.384 -0.435427
113.152 12.0062 -0.397228
518.439 3.89748 -0.475869
817.078 19.6119 0.158609
94.8382 7.64153 0.19554
301.649 14.5694 0.182152
454.178 11.5448 -0.206549
874.184 4.10374 0.600122
426.54 1.94378 -0.514323
189.599 38.6146 -0.292251
804.546 10.753 -0.362961
137.706 35.662 -0.17849
281.927 31.1066 -0.377624
429.337 21.4462 0.213754
618.69 13.8525 -0.348513
415.094 9.81266 -0.466529
489.954 27.1266 -0.42746
840.015 47.9859 -0.531418
51.2431 10.7167 0.0997287
320.627 38.2098 -0.262525
406.762 25.9655 -0.400209
439.471 20.5047 0.258736
560.591 44.5344 0.356398
824.341 40.5643 -0.230789
719.811 35.7998 -0.370057
241.954 34.342 0.376706
14.9529 30.8896 0.170295
712.08 37.2644 -0.130402
547.343 40.8918 0.441206
245.968 39.268 -0.100065
742.129 31.5959 0.100986
162.169 9.20554 -0.203471
393.356 21.8958 0.29444
497.772 41.7909 0.105849
443.69 19.6627 0.197525
837.419 50.9701 0.374966
457.07 3.39038 0.433607
53.4939 25.1383 0.315187
504.817 31.6825 0.343141
466.077 40.8619 0.384264
854.957 41.5907 -0.216146
798.023 30.2572 0.218453
583.39 18.481 -0.15375
847.056 40.7143 0.421205
314.206 2.0223 -0.435274
406.764 28.9848 -0.460103
31.2051 38.035 -0.298158
804.436 33.2289 -0.137832
659.398 20.321 -0.47447
497.261 0.772051 -0.490584
135.386 4.50837 -0.27647
457.407 39.83 0.102991
13.0522 0.917055 0.335869
872.326 6.72992 0.15528
396.879 38.8703 -0.409016
[...]
POINT_DATA 13483
TENSORS Strain_matrix float
-0.0563497 -0.0301468 0.801302 
-0.0267242 0.074401 0.586872 
-0.0283674 0.0221002 -0.279853 

-0.034328 -0.351546 -106.651 
0.0139994 0.220972 11.8035 
-0.000531188 -0.00178594 0.611663 

-0.0197779 0.00558761 0.195181 
0.00168501 0.0150332 0.304267 
-0.00389796 -0.00119834 0.0496415 

-0.39432 -0.138041 0.541349 
-0.122943 0.224 -0.393582 
-0.0148844 -0.0311542 0.233418 

-0.00976986 -0.00188819 0.01417 
-0.010287 0.00627493 0.00671607 
-0.000288561 0.000571035 0.00639717 

-0.0219058 -0.000192178 -0.11364 
-0.000804042 0.0199341 -0.559083 
-0.00834839 -0.00782801 -0.527642 

-0.0238928 -0.00261768 0.00443778 
-0.00134075 0.00506023 0.00611047 
-0.000706948 0.000182625 0.0193051 

-0.0106345 -0.00122909 -0.00103669 
0.000696347 0.000998295 0.0103745 
-0.00122169 -0.00107405 0.00866116 

-0.0176228 0.00688542 0.0224706 
-0.0345508 0.0113436 0.0479887 
9.97325e-05 0.000137185 -0.0116845 

-0.0285031 0.0209915 0.395213 
-0.0925083 -0.012252 -0.232576 
0.00440738 0.00844678 0.170215 

-0.0153707 0.00209561 -0.0646754 
0.00283055 0.000744983 0.0646263 
0.000349089 -0.000123184 0.0150418 

-0.0219389 -0.00154659 -0.0453197 
-0.00305143 0.0074832 -0.00571333 
0.034751 0.00692361 0.299963 

-0.0575964 -0.0262755 0.162477 
0.105489 0.0256615 0.00892196 
0.0113089 -0.0255555 0.0498472 

-0.0485096 0.0148038 -0.137023 
0.0477225 0.00841531 0.0658132 
-0.00549485 0.031037 0.150344 

-0.0197306 0.0283041 0.0861053 
-0.0160927 0.0108052 -0.00273333 
0.000603718 -0.00106141 0.0415598 

-0.0271946 -0.044623 -0.0459298 
0.0364582 0.024144 -0.223193 
0.013198 -0.00394298 -0.144229 

-0.0221342 -0.000214623 -0.0142937 
0.0103452 0.00275636 0.0165703 
-0.000188676 -0.000290535 0.0182396 

-0.0217454 -0.0102497 -0.0288191 
0.00524395 0.0030121 -0.0247536 
0.0351528 0.0034742 0.0211031 

-0.0559838 -0.0643761 0.0718225 
0.0595853 0.00936748 0.0109458 
0.00884773 -0.000223336 0.0522623 

-0.0161225 0.00325375 0.0105398 
-0.00188591 -0.000219762 0.0309257 
-0.00208621 -0.00167265 0.00542399 

-0.0307859 -0.00919344 -0.00642301 
0.0123596 0.00672987 0.0489836 
-0.0307801 0.00144855 0.27555 

-0.079061 0.0152995 -0.236273 
-0.140516 0.0660038 0.392431 
-0.0194605 0.0918817 0.675966 

0.13543 0.0890456 5.70638 
-0.130127 -0.0239693 1.02128 
0.00547123 0.00505911 -0.0299114 

-0.0476616 -0.0688094 -14.3162 
0.0202957 0.104814 -1.93193 
-0.00146991 0.000387051 0.432812 

-0.00574978 -0.0201037 0.0525297 
-0.00427009 0.0119163 0.00301568 
0.000582612 -0.00018949 0.017111 

-0.0493663 0.0382947 -0.0396536 
-0.00694291 0.0342026 -0.0119943 
0.0109772 -0.00257781 0.132216 

-0.0078654 0.00295707 0.599095 
-0.000852064 0.0107499 0.272855 
9.32435e-05 9.78147e-05 0.0752959 

-0.00598226 0.011663 0.0780319 
-0.0306287 0.00319185 -0.224046 
0.00628902 0.0115638 0.0610975 

-0.0164018 -0.0104403 -0.870802 
-0.00531127 -0.00209192 0.961459 
-0.000199525 -0.000486775 -0.0038127 

-0.205724 0.157747 -0.595511 
-0.0571855 0.148803 -0.72648 
0.00741294 -0.00985514 0.131154 

-0.011382 0.00108219 0.00279312 
0.00640225 -0.00129527 -0.0119715 
-0.000151315 0.000134325 0.0120673 

-0.00895004 -0.0043541 0.00492143 
0.00198059 0.00816923 -0.0104805 
-0.00157186 0.000303995 0.00402388 

0.00137436 -0.40888 -0.294887 
0.38201 0.123673 0.225064 
-0.000302653 0.00144081 0.0274667 

-0.0229179 -0.00918131 0.105887 
0.00529884 0.0183211 0.834246 
-0.000908495 -0.00137062 0.274762 

-0.0136392 -0.0863803 0.0460047 
0.0291125 -0.0422755 0.155937 
0.0150951 -0.0495446 0.369068 

-0.030442 0.0263934 -0.134064 
-0.0265389 0.0466594 -0.0262082 
0.00129544 -0.000402682 0.0567327 

-0.00881546 0.00597332 -0.161541 
0.0104463 0.00194711 -0.0266578 
-8.12443e-05 4.96484e-05 0.029511 

-0.0105808 -0.0290267 -0.0203099 
0.0247266 0.0110307 -0.0152402 
0.000348693 0.00137325 -0.000971752 

-0.0356188 -0.0259373 0.157041 
0.0787045 0.0128393 -0.268234 
-0.00831051 0.00946442 0.0267694 

-0.0388347 0.0217366 1.28336 
-0.0271881 0.0266552 -0.465616 
0.00300262 -0.0107536 0.138202 

-0.0206231 -0.0715615 -0.260974 
-0.0507337 0.0401105 0.196483 
-0.00093903 0.000472512 0.032328 

0.00416436 0.0177159 -0.189898 
-0.0816859 -0.00714079 -0.0585487 
-0.00512763 0.0046467 -0.0857281 

-0.0924627 0.0499696 0.0288401 
-0.0249682 0.0416336 0.0489754 
-0.00975845 -0.0727805 0.366321 

-0.0110456 0.00985804 0.0500547 
0.00747649 0.00929399 -0.0217372 
-0.00603663 -0.00196328 -0.0332004 

-0.0159072 -0.00023307 -0.00147167 
-0.00568775 0.00595504 0.00620166 
0.00124235 0.000727645 0.00647437 

-0.0166235 -0.00042539 -0.0244579 
-0.001796 0.00710736 0.0125341 
-0.00406596 0.00697026 0.0689764 

-0.0548705 -0.00565065 0.70668 
-0.00698789 0.0298374 0.0852665 
-0.0034039 -0.00590217 0.0631189 

-0.0100437 0.0029418 -0.00553625 
0.000973361 0.00943914 -0.00213674 
0.000456737 0.000348652 -0.00330627 

-0.0223218 -0.0779621 -0.059242 
0.102649 0.0178842 5.46193e-05 
-0.00287423 -0.00250117 0.0228674 

-0.240803 0.0245618 -0.809685 
0.169111 0.0335703 1.31093 
-0.0126109 -0.00673256 0.0126178 

-0.0401237 0.0129111 0.0185112 
-0.00466969 0.00937181 0.0669516 
-0.0103533 -0.0265488 0.637667 

0.138946 0.18799 0.684258 
-0.0390919 -0.0958498 0.282091 
0.00181327 0.00402225 0.124769 

-0.00325275 -0.0187097 -0.0398236 
0.0116598 -0.00752377 -0.0447164 
-0.00199105 0.000902219 0.0244029 

-0.0144592 0.0223153 0.027031 
-0.0137486 0.00913393 0.0597948 
-0.00246086 -0.000147427 0.0168446 

-0.0227101 -0.00355949 0.482156 
-0.0115971 -0.00671524 0.493385 
0.000300229 -0.00419422 -0.135566 

-0.0218696 -0.0425632 0.196216 
-0.0114052 0.0019674 0.325417 
-0.000395416 0.00178825 0.0691765 

-0.0367842 -0.0144469 0.0461872 
0.0253125 0.0541065 0.0433278 
0.000466397 0.00299623 0.00996643 

-0.0238451 0.0542592 -0.0529308 
0.00790082 0.0350029 0.0489556 
0.000200513 -0.0140753 0.0210784 

-0.00778271 0.000536399 -0.0228089 
-0.00185625 -0.00136239 0.0236983 
-0.000169897 -9.95073e-05 0.0162037 

-0.0233495 -0.0160396 -0.0766769 
-0.00399515 0.00764042 0.029853 
-0.001621 -0.00229197 0.0207059 

0.0120761 -0.00524103 0.00351718 
-0.0263478 -0.0953682 -0.0697544 
0.00357161 -0.00905691 0.0400418 

-0.0238805 -0.014126 -0.0903276 
-0.0043602 0.00844453 -0.0114998 
-0.000988281 -0.032784 -0.134823 

-0.0213623 -0.0379266 -0.0795714 
-0.00456392 0.00450109 -0.0224434 
0.00295248 0.0219525 0.0989837 

-0.0344498 0.0379189 0.00622178 
0.000636987 0.00943899 0.544787 
0.00119288 -0.00825496 0.107015 

-0.0299263 -0.0168572 -0.0406796 
0.0099517 0.0215189 -0.0293433 
-0.00450037 0.0152536 0.0880356 

-0.0189391 0.0199926 -0.00453374 
-0.0150423 0.0121829 -0.00270078 
0.000358144 -0.000118612 0.000612821 

-0.0604693 0.0870613 -0.00965193 
-0.124024 0.0281956 -0.021276 
0.0267405 0.0660874 0.32363 

-0.0185526 -0.0127567 -0.101598 
0.025116 0.00906951 -0.0531696 
0.00199225 -0.000678484 0.0457139 

-0.0180965 0.00164323 -0.0350864 
-0.00160301 0.00291409 0.446752 
0.000261109 -0.000596414 0.230905 

-0.0125637 -0.00825127 -0.00834588 
-0.00148474 0.00631484 -0.0189998 
0.0003414 -0.000870785 0.0125987 

-0.327254 -0.0274094 1.90392 
0.179748 0.356039 1.49501 
0.00909321 -0.00225141 0.0370246 

-0.0144245 0.0048632 0.0114943 
-0.00333806 0.00484 0.00662283 
-0.000899361 -0.000149087 0.0137927 

-0.010618 0.00660891 -0.0451939 
-0.0177131 0.0210317 0.0238545 
-0.0003968 0.000241449 -0.0063476 

-0.0156933 -0.0206731 -0.0188131 
0.00691203 0.01969 0.0510873 
-0.00129574 -0.000332618 0.00521242 

-0.0152419 0.00534282 -0.187006 
0.012588 0.0140561 0.0307787 
0.00113942 0.00129415 0.0642897 

-0.0195734 0.00304726 -0.0072084 
0.00727146 0.0116245 -0.00784589 
-0.00233113 -0.000681713 0.00182697 

-0.440782 1.06211 -1.36901 
0.518877 0.0117525 -0.0865314 
-0.0180461 -0.00819036 0.0602678 

-0.0342129 0.0617383 -0.0678607 
-0.0229892 0.0466033 -0.465954 
-5.63795e-05 0.000197766 0.0491395 

-0.0755965 0.136032 -0.271511 
-0.0619078 -0.0204674 0.00318955 
-0.0141245 -0.00456444 0.155041 

-0.019301 -0.0165823 0.085421 
-0.0276095 0.0141165 0.0798062 
-0.00411284 -0.00378713 0.0616286 

-0.0597803 -0.0458327 -0.107789 
0.0332731 0.0118061 0.205326 
-0.00820926 0.0078468 0.109014 

-0.0180458 -0.019062 -0.0331176 
0.0104646 0.00535912 0.025786 
0.0154544 -0.0160586 -0.00192345 

-0.000258292 -0.0172533 -0.112147 
0.0225189 0.00218533 -0.10145 
0.032312 0.00998512 0.528537 

-0.117008 0.0438229 -0.462727 
-0.0489065 0.0741387 -0.015682 
0.0288038 -0.035664 0.176369 

-0.0607921 0.00781312 0.102429 
-0.0465969 0.0271126 0.211092 
0.0398002 -0.0417705 0.478794 

-0.0663327 0.187711 -0.961738 
-0.0854465 -0.0738899 0.0621393 
0.0167062 0.00714657 1.26788 

-0.0891107 0.295612 -1.0234 
-0.024125 -0.0437377 -1.51489 
-0.00630791 -0.196957 0.355616 

-0.016216 -0.00155019 0.0562767 
-0.00279877 0.00702843 -0.0344573 
-0.000329284 0.000899394 0.0226405 

-0.0429202 -0.00181926 -0.086316 
0.00855545 0.0243358 -0.0785327 
-0.0336067 0.0543273 0.220644 

-0.0183534 0.00828436 0.0264044 
0.00108306 0.00633734 0.108714 
0.000263719 0.000627543 0.0194398 

-0.0394813 -0.0320513 -0.0287188 
0.00939773 0.0222216 -0.00148025 
-0.00829404 -0.0160396 0.0402907 

-0.020604 -0.00412031 -0.00512582 
0.0151482 0.000832722 0.0195634 
0.000581929 -2.33128e-05 0.0335652 

-0.176885 0.181288 -0.624672 
0.0517027 0.1512 -7.64589 
0.00351689 0.00156543 0.458027 

-0.0395451 0.00482774 0.0525375 
-0.00747283 0.0127931 0.0171775 
-0.000112587 -0.00114323 0.013903 

-0.0189805 0.011885 -0.159354 
-0.008642 0.0120479 0.0544984 
0.0139589 0.0174721 0.0996597 

-0.0205903 0.000109871 0.0108876 
0.00615574 -0.000256769 0.026584 
0.000351367 -0.00215523 0.0161296 

-0.0258827 0.00577887 0.00532074 
0.00311873 0.0118488 -0.0110013 
-0.00079112 0.000325577 0.0113728 

-0.259902 0.0688929 0.0210491 
0.188886 0.133801 0.525079 
-0.0179244 -0.0657625 0.52663 

-0.225666 0.277127 0.415053 
0.394814 0.0994162 -0.530113 
-0.00524043 -0.0035638 0.0571038 

-0.0100374 -0.0232964 -0.0261986 
0.0166455 0.00634487 0.0137885 
-0.000934666 -0.000169392 0.00421242 

-0.0152084 0.00212065 0.23379 
0.0130933 0.00950761 0.466028 
0.00231803 -0.00327527 -0.16755 

-0.0554229 -0.0729514 -0.0296302 
0.0627694 -0.0374378 -0.198221 
-0.00585565 0.00438031 0.174261 

-0.0290379 -0.0186727 -0.429788 
0.017817 0.00105511 0.308367 
0.0020562 0.00116748 0.249057 

0.00252129 -0.0222306 0.126889 
0.0533483 0.00499411 0.189731 
-0.00136255 -0.000276043 -0.0163709 

-0.0173362 -0.00839947 -0.0163988 
-0.00150985 0.00906602 0.113314 
-6.47456e-05 0.000853635 -0.0196036 

-0.0618164 0.081253 -0.0286792 
-0.136361 -0.000726544 -0.0191164 
-0.0118351 -0.0392494 0.18997 

-0.176232 0.232828 -0.0186149 
-0.308219 0.202531 0.195181 
0.00470625 -0.0320094 0.0813917 

-0.0503479 -0.0170197 0.186193 
-0.00437984 0.0246768 0.443506 
0.0507822 0.00463693 -1.16379 

-0.0228695 0.0263473 0.070824 
0.0122389 -0.0160157 -0.0521674 
0.000910186 0.00141802 0.0399501 

-0.0313936 -0.0099401 -0.231124 
-0.00290271 0.0132969 0.0505676 
-0.00138795 0.00159087 0.0435746 

-0.0576561 0.0411572 -0.276858 
-0.00153422 0.0136478 1.06727 
-0.0150554 0.00763382 2.09439 

-0.0257187 -0.018178 -0.325242 
-0.00634504 0.0160834 -0.673997 
0.00123375 0.00109054 0.0639219 

-0.0119789 0.00255692 0.0111726 
0.00445918 -0.0023419 0.0149279 
-0.00136283 -6.44047e-05 0.0157291 

-0.0256694 -0.00647864 -0.0450356 
-0.0193538 0.0110709 0.0948568 
-0.000221086 0.000575371 0.0452552 

-0.0440852 -0.0226791 0.0864757 
-0.00852608 0.0406627 -0.00692537 
-0.00186741 -4.83809e-05 0.000868738 

-0.0167923 -0.0183567 -0.10272 
0.0235421 -0.00176496 -0.0460433 
-0.00387641 0.002656 0.0480385 

-0.0419029 0.0179091 0.11389 
0.0194145 0.0863858 0.0158446 
-0.00061272 0.0105567 0.0324897 

-0.0216161 0.00798081 0.0338539 
-0.00772452 0.0198447 0.0786794 
-0.00245353 -0.000867545 0.0204851 

-0.0422821 0.0329274 -0.0146259 
0.0034708 0.0057239 0.0100252 
-0.0140841 0.0178616 0.0255166 

-0.00580131 -0.00965612 -0.0534559 
0.0030036 -0.00017401 0.0582175 
-0.000128296 0.000160885 0.0352752 

-0.125634 -0.11674 0.0355175 
0.20013 -0.021107 0.331411 
0.00663709 0.0034133 0.197576 

-0.10836 0.0858504 -0.129765 
-0.130085 0.017985 0.393177 
-0.00132635 0.00691766 0.191723 

-0.0125134 -0.00156575 0.00920026 
-0.00758485 0.00274535 -0.0104153 
0.00127547 0.00109645 0.0219926 

0.0115759 0.00875408 0.0630934 
0.018854 -0.0103447 0.0101369 
-0.00125172 0.000739222 -0.0333755 

-0.0230471 0.00873933 -1.2301 
-0.00331888 0.0190666 -0.970312 
-0.000109278 0.000897805 0.318532 

-0.0205489 0.0143804 -0.0664652 
-0.00454007 0.000839397 0.151146 
6.95012e-05 -0.000506261 0.0867988 

-0.0146138 -0.00953647 0.110031 
-0.0700715 0.00154148 -0.0716313 
-0.00405892 0.0153214 0.305962 

-0.0360415 0.0535135 -0.0706473 
-0.0305688 0.0593335 -0.101173 
-0.0011532 0.000653586 0.0299903 

-0.0480853 -0.128555 -0.0135747 
0.125307 0.0231518 -0.0506464 
-0.00705062 0.0663788 0.23185 

-0.0251648 0.00397847 -1.2362 
-0.00514476 0.0124239 0.758327 
-0.000415349 -0.000259341 0.214594 

-0.0765104 -0.0373924 0.149838 
0.0475818 0.0839757 -0.354024 
0.00172092 0.000809923 0.00278532 

-0.0557124 0.00875237 -0.0418408 
0.0865221 0.0439965 -0.0188189 
0.0148253 -0.000768798 0.184061 

0.00437119 -0.0322588 0.134022 
0.00929757 0.0161484 0.241119 
-0.000916726 -0.000184095 0.00813154 

-0.0769095 0.233073 -0.171137 
-0.103225 0.0662999 -0.208869 
0.0104001 -0.0322164 0.00501316 

-0.0890162 0.0340515 0.220081 
-0.0643089 0.0849836 0.040977 
-0.000811024 0.00278056 0.0294154 

-0.0307865 -0.0100558 0.157605 
0.00458987 0.0196781 0.0284727 
-0.000756173 0.00153281 0.00432249 

-0.247708 -0.0389721 -1.08676 
-0.102008 0.255561 -1.1489 
-0.00243284 0.00110801 0.0592385 

-0.0235737 -0.0146275 0.46055 
0.0205945 0.0193957 -0.176135 
0.000729 0.000147576 -0.00389149 

-0.0180788 -0.14497 -0.135506 
-0.00368817 -0.0105345 0.125568 
-0.00491763 -0.13027 0.367103 

-0.0187177 -0.003821 0.1306 
0.0313771 -0.0250766 0.184417 
0.0127262 -0.00571854 0.0291767 

-0.0170253 0.000429915 0.00633918 
0.0015411 0.00327273 0.116069 
0.000882272 0.00185202 0.00880815 

-0.0103949 -0.0179773 0.016693 
0.0228453 0.00453651 0.0270727 
0.000687342 -0.000442873 0.0126764 

-0.00947431 -0.0505073 0.206595 
0.0526856 0.0129299 0.122706 
0.00155361 -0.00120883 -0.0221278 

-0.0153999 -0.0140522 0.0166218 
0.00970699 0.00522448 -0.0237903 
0.000836112 -0.000632787 -0.00293399 

-0.012347 -0.00560094 0.0350348 
-0.00343688 0.0087784 0.0454856 
-0.00121816 -0.000442219 0.007703 

0.0176289 -0.271838 0.0331997 
0.283887 0.0497905 0.074748 
-0.0183339 -0.0112509 0.233302 

-0.130561 -0.0406373 0.269919 
0.224878 0.0576701 0.101932 
-0.00631351 0.0286034 0.101335 

-0.0109456 0.0162111 -0.013845 
-0.0128204 0.00493046 0.0781885 
0.0016303 -0.00185774 -0.0160499 

-0.00619279 -0.0165174 -0.14919 
0.00937897 0.0128376 0.131463 
-0.000442219 0.000423706 -0.0194028 

-0.0657457 -0.00416317 -0.114509 
-0.0894381 0.0311795 -0.0130522 
-0.00100888 4.07371e-05 0.0376635 

-0.0258753 -0.0216111 1.00864 
-0.00206917 0.0181817 1.28051 
0.00016227 -0.000998304 0.352868 

-0.0219771 -0.0619116 0.0136032 
0.0502818 0.00586238 0.0948318 
0.000676309 -0.00038806 -0.0129791 

-0.054002 -0.0146388 0.0965698 
-0.0100238 0.0369858 -0.00313062 
0.00342792 0.00207738 0.113846 

-0.026139 -0.0127025 0.0568254 
-0.00056492 0.00191805 0.136764 
-0.0195531 0.00216084 0.129442 

-0.0250726 0.0205914 -0.536711 
0.00016517 0.0272018 0.765784 
-0.00102508 0.000297341 0.0724992 

-0.0381536 0.00355507 -0.0266498 
-0.0568958 0.0191067 0.0751586 
0.00507173 -0.00196978 0.0470265 

-0.0254328 -0.0270173 0.14127 
-0.017616 -0.0228999 0.226834 
-0.000774205 0.000670629 -0.0088243 

-0.0141172 -0.00344281 0.0212852 
0.0100776 0.0121769 -0.740866 
2.83412e-05 -2.36141e-05 0.157636 

-0.0772871 0.0375268 -0.750686 
0.0550802 0.281381 -1.8582 
-0.0155843 0.018099 -0.195812 

-0.206973 -0.288822 -2.69429 
0.176852 0.045853 0.301959 
0.00632751 0.00655793 0.140103 

-0.045779 -0.00318357 -0.643586 
0.00545816 0.0670217 -3.3855 
-0.0078859 -0.00626722 0.193615 

-0.0526783 -0.00299846 -0.0130459 
-0.0131836 0.0359222 0.0707671 
-0.00523193 0.00369124 0.00480712 

-0.151962 -0.162005 -1.79524 
0.0516829 0.162587 -0.0458003 
-0.00701835 0.00792675 0.184029 

-0.0301444 -0.373734 16.7923 
-0.0117093 0.557715 -29.1878 
-0.000391663 0.00385512 0.883239 

-0.0147493 0.0038676 -0.0487267 
-0.0376017 0.00527437 0.0992999 
-0.000722807 0.000231865 0.0215216 

-0.67408 -0.195759 0.314178 
-0.102732 0.379196 0.582342 
0.0299603 0.0133369 0.216184 

-0.0142158 -0.0306261 -0.00374582 
0.0159387 0.0113452 0.0165533 
-0.000635478 0.000776793 0.0161544 

-0.00633959 0.00946902 0.022148 
-0.0156412 0.00495456 0.0010024 
0.000441861 -0.000177935 0.00252013 

-0.0153136 -0.000787731 0.0382815 
0.00360004 0.0105341 0.0236599 
-0.0190478 0.00111389 -0.440011 

-0.0219356 0.00778539 0.295471 
0.000339647 0.0353983 -0.252266 
0.000685457 9.45787e-05 0.0395168 

-0.0128081 -0.00248552 -0.0041 
-0.00232585 0.00418249 -0.0180998 
-0.00108992 0.00179369 -0.0010339 

-0.0169332 0.00844808 -0.121892 
-0.000323684 0.0102986 0.0281392 
0.00192936 -0.000929884 0.00641279 

-0.0131859 -0.0318185 -0.0130909 
0.0216461 0.00691475 -0.0959788 
-0.0011935 -0.000191286 0.0152964 

-0.137461 0.123514 -2.26972 
-0.115172 0.16426 0.419745 
0.00117671 -0.000577882 0.028086 

-0.0330997 -0.0571103 0.0100002 
0.0874248 0.0164589 -0.0326719 
0.00291681 -0.0140787 0.0226904 

-0.0162481 -0.0108646 0.124716 
0.0150077 0.0211683 -0.164313 
-0.00164678 -0.000498032 0.0536135 

-0.229824 0.378193 5.92055 
-0.209498 0.223895 6.50879 
-0.0202191 -0.00601206 0.863423 

-0.0230232 -0.0131293 0.0142565 
0.011505 0.0119906 -0.0118237 
0.000907846 -0.00118872 0.022051 

-0.0117502 0.00705706 -0.188076 
-0.029409 0.00932334 0.229679 
0.0254277 0.000716684 0.429371 

-0.0387284 0.00277676 -0.0399737 
0.0155212 0.0148781 0.0149339 
0.00283941 0.00135439 0.0204393 

-0.019414 -0.0272401 -0.0477977 
0.00487098 0.00885573 0.0602862 
0.000654625 -0.000490303 0.010793 

-0.146285 0.103063 0.118085 
-0.141834 0.141641 -0.429652 
-0.0345212 -0.0833653 0.21122 

-0.00633519 -0.00252415 0.0339427 
-0.00029018 -0.0104065 0.00168038 
-0.000341482 -0.00172878 0.0306937 

-0.0165525 0.00361693 0.429071 
-0.00622655 0.00759876 0.086616 
-0.00234533 0.000877817 -0.172236 

-0.00521185 -0.0393645 0.137299 
0.0470347 -0.0436039 0.0125787 
0.00309052 -0.00420772 -0.0115342 

-0.0243516 -0.0019518 0.0242294 
0.00325395 0.00672168 0.0166335 
0.0035964 -0.00300222 -0.00468695 

-0.00624536 -0.00745872 0.0411374 
-0.00178932 0.0113817 -0.0334248 
0.000136505 -0.000221918 -0.0129829 

-0.0851482 -0.127069 -0.143942 
0.202139 0.0916475 0.168524 
0.00286715 -0.00454942 0.0770176 

-0.030077 0.0078588 0.166632 
-0.00323802 0.0154947 0.127714 
0.000673957 0.000377679 0.00642361 

-0.085978 0.0670478 -0.315467 
-0.0365581 0.0153846 0.387071 
0.0102381 0.0288325 -0.0301255 

-0.0282946 -0.136629 -0.0303735 
0.166309 0.0173854 0.0186085 
0.00163141 -0.0010732 0.0703048 

-0.0168663 -0.0123942 0.0156901 
0.0152472 0.00894822 0.0160975 
0.0012521 0.000810802 0.00237261 

-0.354488 -0.282715 0.730381 
0.124786 0.252904 -0.615636 
0.0229843 -0.0467977 0.168775 

0.000878632 -0.0766906 0.0832916 
0.0776923 0.0058917 0.111102 
0.0413935 -0.0301152 -0.151677 

-0.0567707 0.0410395 -0.187649 
0.00502071 0.0611419 -0.474164 
-0.00472738 0.00641083 0.0583044 

-0.0191902 0.011684 0.140187 
-0.0016967 0.0298041 -0.166546 
0.0341486 0.0853058 0.420698 

-0.0136809 0.0171229 0.0545134 
-0.00734502 0.0217895 -0.0673711 
-0.0242554 -0.0145463 -0.0645211 

-0.0244938 0.00900363 -0.0277357 
0.0134181 0.0199462 0.067274 
0.000259934 0.000371905 0.0137379 

-0.0325249 -0.00330531 -0.0302797 
-0.0160512 0.0179535 0.0440928 
0.00381327 0.0105139 0.0596636 

-0.00125257 -0.00799041 -0.056319 
0.0382307 0.00224186 -0.037516 
0.0284761 0.00809718 0.267861 

-0.019757 -0.0998642 0.230517 
0.132932 0.0303806 0.31913 