# vtk DataFile Version 3.0
Output file generated by Yade's KinematicLocalisationAnalyser
ASCII
DATASET UNSTRUCTURED_GRID

POINTS 13483 float
571.849 39.3334 -0.396167
687.096 56.1162 -0.472153
118.558 6.05077 0.444883
718.06 11.7866 0.473937
484.545 16.27 0.405914
311.49 39.0919 0.594957
154.895 6.96517 -0.458916
546.232 10.2636 0.223056
482.584 35.7509 -0.150608
650.569 31.5786 -0.452474
208.233 8.82943 -0.102771
254.164 6.41043 -0.293125
608.527 47.9771 -0.14545
594.504 29.8656 -0.0744618
135.606 17.5954 0.467048
219.283 35.3273 -0.235773
215.582 13.1732 0.252753
286.113 9.5234 0.424656
336.151 36.2889 0.436757
502.837 8.22452 0.389285
406.025 38.493 0.0973516
553.46 51.8595 -0.261747
709.501 49.5597 0.445657
651.115 82.8541 0.429584
451.888 16.5618 0.290308
238.711 46.4126 0.136366
480.851 38.6168 -0.492146
560.917 20.8061 0.259812
43.9895 16.1187 -0.500428
659.674 65.8279 -0.322798
475.322 4.76144 0.391996
17.6521 23.9215 0.30981
697.078 66.4447 0.275386
481.069 8.52904 0.55535
76.9657 45.7637 -0.107715
504.053 35.4297 0.315476
509.106 15.8876 -0.413242
338.98 22.1276 0.20744
514.261 26.4564 -0.327942
345.707 35.845 0.520566
239.063 14.5585 0.335733
428.2 39.1919 0.0901249
625.057 11.6893 0.115828
190.406 6.32856 -0.41726
54.7855 7.1471 0.115015
67.6753 9.08519 0.267581
632.703 24.6563 0.547062
23.3962 11.6551 -0.270427
561.198 60.1477 -0.358869
622.28 39.2469 -0.315236
170.046 33.2236 -0.307082
687.485 42.4154 0.119662
33.6089 29.5432 0.12021
512.467 2.95456 0.388533
140.479 7.43528 0.509496
556.425 36.6622 -0.409401
489.325 37.7446 0.117756
173.6 0.981379 0.264617
32.5796 2.32407 -0.34494
344.985 18.0577 0.250161
572.823 66.6607 -0.13284
457.981 36.5941 -0.201654
395.079 1.02771 0.201755
641.107 23.2769 0.443568
25.9787 45.079 -0.236421
254.205 32.0315 -0.328782
648.126 21.0499 -0.206607
622.989 70.4411 -0.332653
413.33 8.40366 -0.584159
547.084 3.83122 -0.459432
668.911 34.3692 0.403366
129.501 7.84215 -0.259977
486.683 39.2228 -0.139722
467.415 20.7879 -0.0992005
292.157 16.942 -0.343171
20.9013 13.7326 0.256262
705.989 65.6953 0.30503
328.991 41.7236 -0.330312
620.666 33.3379 0.315292
629.489 28.297 -0.253222
707.285 14.7094 -0.222482
460.594 39.4938 -0.192302
91.8832 40.9008 0.265589
644 68.8289 0.210607
602.049 60.0363 -0.101476
713.315 57.585 0.0993884
705.181 0.762254 -0.471636
289.26 29.1189 0.476846
592.499 14.9528 -0.124703
24.2518 5.25073 -0.56217
132.491 39.3385 0.162238
497.301 17.3159 0.292923
694.535 30.5498 0.624319
194.438 29.345 0.253365
43.5061 35.3093 0.30844
486.182 1.12252 0.163106
234.161 8.8101 -0.428181
685.449 70.6059 -0.295643
684.757 31.603 0.263862
357.17 20.5556 -0.259764
161.654 27.7632 0.454166
526.608 48.7688 -0.4171
376.926 15.6847 -0.49617
410.675 31.2265 -0.11008
375.115 4.83363 0.518301
527.656 10.6933 -0.0990653
715.497 25.59 0.225561
79.4493 40.8872 -0.395813
332.713 4.96744 -0.222748
540.247 9.92905 -0.507845
357.657 45.4181 0.516834
24.0708 26.6456 0.449959
30.3368 5.64109 -0.371346
538.866 47.0107 0.480814
490.202 33.6896 -0.145387
25.4798 38.8612 -0.411592
93.5567 33.1462 -0.229575
323.747 16.9957 -0.280508
572.971 26.0277 0.129756
468.553 49.6261 0.184066
650.383 7.6342 -0.455528
645.633 9.77326 -0.304323
384.471 38.1778 0.114555
592.748 43.3892 0.0939727
236.252 17.8244 0.47488
328.151 3.86679 0.463659
102.402 33.4515 0.308042
115.142 24.9724 0.26709
525.032 44.6171 -0.0690312
305.47 18.7365 0.493546
659.797 68.8361 -0.102948
627.172 71.247 0.114076
471.688 27.0504 -0.425572
687.932 11.0782 0.352472
424.461 26.6477 0.231617
277.266 24.2276 -0.304201
625.18 56.1763 -0.271572
278.171 30.0437 0.375751
556.106 12.2623 -0.259112
329.777 38.2863 0.207439
491.542 17.7303 0.447795
364.476 32.0034 0.0817636
429.053 18.3123 -0.1074
316.196 45.1403 -0.33439
190.63 30.5479 -0.126129
691.677 57.4447 -0.149081
712.506 27.0573 -0.305276
6.01237 12.5822 0.433832
431.808 24.5118 -0.401808
37.5378 23.4787 0.0705734
374.824 31.9293 -0.472746
394.624 25.375 -0.239821
74.4138 11.8823 0.501766
51.252 33.8439 0.467706
225.797 13.5395 0.458463
576.099 59.5214 0.106171
556.432 22.049 -0.480637
75.407 21.1344 0.503028
650.822 87.7059 -0.405398
676.534 4.03238 -0.58841
616.059 63.8505 -0.489175
632.521 6.61852 -0.576767
533.362 29.9436 -0.452151
553.331 50.0548 -0.434941
498.185 23.8504 -0.465011
717.483 7.65867 -0.33212
224.763 25.1484 -0.116219
128.296 36.3971 -0.206261
247.217 6.87867 -0.403004
94.3644 4.49694 -0.268942
64.1031 10.5829 0.246302
276.352 37.1949 -0.315865
16.6245 25.3433 -0.361778
538.038 20.1559 0.421511
563.9 55.3928 -0.205123
460.855 22.263 -0.340877
714.599 70.9474 -0.187649
406.645 8.77234 -0.124578
434.437 38.8337 -0.323357
520.335 3.3752 -0.273097
21.3811 24.6911 -0.411232
559.071 4.55383 0.533347
529.661 4.25471 -0.333281
206.436 11.3285 0.496825
424.759 16.6939 0.18234
312.296 6.43915 0.354271
388.474 19.6315 -0.329596
676.039 58.8718 0.106963
193.538 26.2043 0.452737
697.206 6.42767 0.504588
674.278 50.7774 0.37957
383.576 10.7171 0.182308
637.887 3.12002 0.645268
576.33 36.9728 -0.432087
659.365 19.6418 -0.399417
430.534 46.1527 -0.300173
487.513 21.047 0.497823
459.784 52.5852 0.234166
444.53 9.44013 -0.215563
619.997 64.3433 -0.25324
619.044 60.2615 0.32572
192.848 39.8709 -0.340695
706.742 12.6671 0.157042
551.372 45.8457 -0.327233
12.0067 17.4037 0.192229
408.805 26.3063 0.359424
188.23 23.8436 0.400382
93.4761 41.9918 0.211464
691.789 25.9467 0.424946
613.798 70.2066 -0.249179
320.373 27.7382 0.348717
517.665 10.0689 0.33645
82.0301 46.3841 -0.169869
248.616 25.8838 -0.468194
540.55 27.7881 0.422657
480.145 27.8545 0.411028
263.638 0.884833 -0.341503
531.135 57.4681 -0.153292
520.561 41.1917 0.508033
478.613 47.0738 0.381416
487.648 1.91551 -0.604428
641.558 46.0439 0.39919
180.242 12.7272 0.187604
496.003 52.0472 0.418616
544.759 60.7588 -0.113731
73.11 0.95336 -0.271625
252.429 4.70092 0.161681
711.025 28.4162 0.166485
707.613 16.5615 -0.598955
717.399 31.4368 -0.544704
304.847 8.63223 -0.243685
664.33 25.1871 -0.430735
406.538 44.3843 0.386461
448.823 0.886879 0.527871
607.161 58.6323 0.513442
25.8219 32.5183 -0.313757
330.902 44.5207 -0.58045
253.368 2.87936 0.35889
700.678 68.6404 0.172493
673.46 76.8528 0.224554
288.607 10.9472 0.258747
620.036 53.7298 0.0831331
542.005 2.52827 0.321936
527.452 6.46366 0.45076
96.9425 18.7046 -0.492397
304.732 1.04255 -0.230593
343.838 2.27091 -0.362036
14.0218 7.68308 0.415086
4.57131 31.1132 -0.247777
162.506 18.9987 0.348557
68.1708 42.42 -0.220236
67.31 29.3598 -0.31764
424.863 14.9611 -0.48042
367.654 35.4583 -0.488185
685.693 43.7727 -0.144059
19.589 4.01172 0.271531
70.6867 7.02691 -0.155878
583.792 58.0529 -0.182231
296.137 0.937622 0.381506
365.867 16.4636 -0.0858761
236.648 4.7159 -0.35589
608.426 35.414 0.188988
451.524 8.90378 0.438048
666.03 21.8359 0.362802
591.072 46.7247 0.316005
621.3 31.4288 -0.103247
420.087 28.9032 0.498749
103.489 46.7797 0.322139
522.696 49.8506 0.0823355
655.271 13.0269 0.271466
239.936 32.1694 -0.234848
31.8829 18.5601 0.157292
337.234 14.0809 0.498801
108.539 42.0534 -0.473976
269.449 42.8675 -0.231937
427.081 2.12748 -0.346646
696.216 41.0732 -0.416648
631.581 1.61321 -0.754277
333.194 3.44274 0.580585
302.489 28.014 0.137726
460.572 49.3878 0.229519
81.86 7.84889 -0.478191
199.292 45.9859 -0.380145
687.33 33.2065 -0.391022
492.997 54.6466 -0.0659882
201.541 41.851 0.283894
161.688 43.7508 -0.378387
717.221 52.2175 -0.402258
714.311 26.6981 -0.633212
587.488 4.56525 -0.580691
191.894 25.4783 -0.0943955
533.836 32.5017 0.121636
536.333 30.0977 0.28562
411.029 5.64431 -0.154557
481.207 1.1392 0.323715
683.17 45.3333 0.479617
86.3022 33.2133 -0.21596
613.663 25.2657 0.477468
275.846 15.7712 -0.324709
9.49278 2.41192 -0.320255
126.766 38.0413 -0.180972
67.8876 23.9574 0.473873
659.075 74.0214 0.290835
700.773 77.4423 -0.159313
186.866 28.9374 -0.180358
710.781 24.2767 0.385947
44.9861 37.2765 0.276092
91.9104 29.8826 0.148437
603.931 23.6393 0.371413
416.183 19.3329 -0.455031
507.262 16.803 -0.106625
240.606 30.3009 0.192701
595.494 12.644 -0.411357
717.991 24.5883 0.441312
29.0137 33.3471 -0.269312
271.762 7.8922 0.198982
223.872 15.5566 0.279382
1.10346 36.1727 0.146734
226.92 14.687 0.401945
213.031 11.0762 0.124484
216.478 26.5748 -0.301823
133.174 29.2146 0.124655
533.002 15.3399 -0.401716
168.007 14.3298 -0.335186
696.975 63.1232 -0.244917
175.531 3.99681 -0.485211
47.242 38.2726 0.448295
677.931 70.0438 0.526382
283.136 32.9429 0.398733
624.844 46.8333 -0.49425
704.706 57.3603 0.525019
302.938 9.29945 -0.0994549
664.594 48.0456 0.348196
330.162 2.48783 -0.4394
418.764 24.1231 0.351474
622.685 28.8035 -0.486673
106.103 11.9834 -0.416665
482.991 3.46431 -0.67283
668.432 19.7683 -0.172946
88.8975 7.80813 0.277115
283.72 14.6753 0.208264
425.609 12.3724 -0.224559
717.264 4.86662 0.591528
400.043 2.02049 -0.526404
177.928 39.5407 -0.316869
657.519 10.3364 -0.408648
130.126 37.4562 0.191446
265.033 32.0494 -0.365118
403.438 22.0752 0.211016
558.523 14.3 0.367367
389.013 9.74694 -0.51933
456.73 29.7265 -0.447884
688.651 55.7855 -0.430208
47.7641 11.6544 0.124675
300.911 38.878 -0.318922
381.466 26.7017 -0.404933
412.558 20.9496 0.247306
514.285 46.1172 0.461641
693.71 70.8751 0.267628
625.026 61.5334 -0.356053
227.375 36.6615 0.435257
13.5715 33.9936 0.168672
617.116 60.3149 -0.14418
506.444 49.9892 0.487167
231.063 41.6074 -0.108323
642.527 65.5468 -0.113265
152.099 9.28061 -0.239792
368.329 22.4649 0.272811
461.518 51.2034 0.140317
416.647 21.0489 0.198798
684.15 58.4064 -0.397263
427.986 3.90709 0.526197
49.5147 25.6357 0.316311
471.123 43.0349 0.327743
436.654 43.5367 -0.413193
703.565 60.3699 -0.210312
665.194 44.2656 0.21712
527.745 19.7705 -0.161342
697.052 54.2916 -0.493789
295.718 2.21478 -0.495562
381.556 29.7289 -0.461387
28.7469 40.5702 -0.301697
671.024 42.2327 -0.145393
582.974 30.5464 -0.485608
463.629 0.762186 -0.487546
126.701 4.69629 0.341389
428.055 43.7356 0.105229
11.9242 0.928578 0.352985
714.874 9.99459 0.112458
371.807 39.5715 -0.432057
[...]
POINT_DATA 13483
TENSORS Strain_matrix float
-0.278067 -0.131129 0.242428 
0.0367168 0.192529 -0.174021 
-0.00120604 -0.00102146 0.00147 

-0.0504635 0.103153 -2.93055 
-0.0737826 0.0518043 -3.2837 
-0.00652118 -0.0038451 -0.207585 

-0.00713896 -0.00135677 0.0247549 
0.00205994 0.00307044 -0.0209122 
-0.000116924 0.00116299 0.00482374 

-0.0214628 -0.00166391 0.0156154 
0.00769573 0.00729796 0.0192846 
0.00112047 0.0018415 0.0186086 

-0.0435129 0.0512843 -0.584155 
-0.13002 0.0192971 -0.0505891 
-0.00391948 -0.00725746 -0.112405 

-0.0186763 -0.0425329 -3.73932 
0.0122408 0.0200602 -0.198192 
0.00129354 -0.00103878 -0.194787 

-0.00147746 0.00452971 0.0333148 
0.0021586 -0.00520113 0.0752146 
0.000663544 0.000222842 0.0309026 

-0.0216843 0.0118231 -0.00705258 
-0.0129911 -0.00891186 -0.0334801 
-0.00222247 -0.00208084 0.0366709 

-0.297492 0.33238 0.0715723 
0.0164451 0.122061 -0.567642 
0.0110401 -0.0127268 -0.0472583 

-0.190298 -0.242884 0.00682188 
-0.0693356 0.215626 0.686285 
-0.00303295 0.00577764 -0.116242 

-0.00867317 0.00525723 -0.0267008 
-0.00274408 -0.000288657 -0.0188142 
0.000618545 -0.00033876 0.0256366 

-0.0223939 -0.0263276 0.0491053 
0.029246 -0.00118255 -0.0902239 
0.0163433 -0.00715649 0.149694 

0.0956295 0.019282 -0.427708 
0.0998393 -0.135218 0.381834 
0.00473318 -0.00034514 -0.0448185 

-0.0454325 -0.0672634 0.132895 
-0.203135 0.0635493 0.401626 
0.000935454 0.0515272 0.166987 

-0.00439048 0.0149698 -0.236099 
-0.00370536 0.0107963 -0.0031873 
0.000428976 -0.0010837 0.00354456 

-0.0041513 -0.10401 -0.15009 
0.0995801 0.0356576 0.0861226 
-0.0306 -0.0328666 0.283179 

-0.00663165 0.0036567 0.0148695 
-0.015675 0.00854777 -0.0137026 
0.000472553 0.000613776 -0.0167485 

-0.0196764 -0.00320693 0.0118105 
-0.00263827 -0.00789381 -0.000431198 
-0.000153689 0.00178899 0.0432725 

-0.0432304 0.000475464 0.307213 
-0.0146242 0.000913521 0.0674301 
0.0340902 0.0202429 0.144705 

-0.000712149 0.158351 0.1419 
-0.167585 -0.0471008 0.103406 
0.00123615 0.00585606 0.141533 

-0.0426787 -0.0643568 0.0638575 
0.0475824 0.0236972 0.0202455 
-0.00308706 0.00385936 0.0541266 

-1.22728 -0.0458215 -2.17615 
-0.0377773 0.955709 -1.63344 
-0.0195739 0.131695 0.578926 

0.00536734 -0.0524091 0.337727 
0.0179613 0.00311721 0.285901 
0.00286248 0.0158289 -0.100939 

-0.0133969 0.0600503 0.950626 
-0.0238233 0.00875896 -0.788518 
0.00275732 0.0152517 0.904723 

-0.00642429 -0.0235483 0.0165266 
0.00900088 0.00794924 -0.000853981 
-0.001051 0.00128162 -0.0199883 

-0.0300809 0.014804 0.021036 
-0.00656516 0.0134937 -0.0173225 
-0.0103494 0.00096194 -0.0111261 

-0.250539 0.293932 6.21721 
-0.0615834 0.147789 5.11399 
0.00531647 -0.00176655 0.0359831 

-0.00509809 -0.0696664 -0.464701 
0.0564819 0.0303334 0.0389638 
0.0118101 0.00179249 0.096875 

0.0104607 -0.0737076 -0.677886 
0.0101022 -0.0202142 -0.0808431 
-0.00953334 -0.00556353 0.110777 

0.125416 0.308818 1.02889 
-0.136881 0.0173657 0.240274 
-0.0319941 -0.0395272 0.0197767 

0.0159766 -0.0332204 0.0311802 
0.0498112 -0.032711 0.0230803 
-0.00432685 -0.00469805 0.0167923 

-0.0497793 0.0359706 0.146966 
0.0735612 0.0723461 0.227148 
-0.00130362 -0.00110408 0.0117317 

-0.114804 -0.0306934 1.33039 
0.000290825 0.0123624 0.954817 
-0.0277816 0.00678485 0.0748746 

-1.05416 -0.888159 1.406 
0.679517 1.24093 -1.14452 
0.00470891 0.0734807 0.20392 

-0.00366211 -0.00325934 0.0190197 
0.00722958 0.00137981 0.00380825 
-0.000174391 0.000592066 0.00237179 

-0.248775 -0.00451653 1.0427 
-0.159458 0.190822 0.790228 
-0.00744933 0.00141131 -0.0051544 

-0.181189 0.279468 -0.430913 
-0.0518046 0.0720936 0.10852 
-0.00684828 0.0268362 0.331803 

-0.107092 0.0137294 0.0582066 
0.0253957 0.0415271 0.102734 
-0.00443763 0.000887257 0.0402258 

0.0704453 0.152889 0.0219414 
0.201267 -0.0683707 -0.00583896 
0.0016218 -0.00124301 0.0192582 

-0.0328664 -0.0353843 -0.804202 
-0.0219972 0.0193921 -1.2975 
-0.00049985 -0.00110815 0.148608 

-0.0433518 -0.0979915 -0.180662 
0.0599176 0.0157729 -0.163269 
-0.00418066 -0.00371945 0.204053 

-0.0501717 0.0315702 0.0154408 
0.027141 0.0200806 0.147551 
-0.00587967 -0.012379 0.0296514 

-0.0378047 -0.0536634 0.055495 
0.107918 0.0337184 0.210736 
-0.0335968 -0.00999592 0.101611 

-0.0335555 0.0166068 -0.224585 
-0.0157922 0.0218694 -0.340998 
0.0480044 0.0301323 -0.279813 

0.000480104 0.0128995 0.00384585 
-0.030545 -0.00474404 0.000135896 
-0.00251955 -0.000195158 0.00631859 

-0.0139412 0.00116095 0.0130931 
-0.0121585 0.00365469 -0.00943461 
0.00207238 4.40843e-05 0.00605865 

0.0379027 -0.125593 0.673271 
0.111941 -0.0437069 -0.436771 
0.00218608 -0.00037715 -0.0346801 

-0.00328461 -0.0146532 0.00177751 
0.0399745 0.00161524 0.00870937 
0.000897358 -0.001935 -0.0059076 

-0.574449 0.374807 -2.60741 
0.503112 0.302195 -0.787596 
0.0320586 -0.0103937 0.800244 

-0.131978 0.0639802 0.327932 
-0.356405 0.099921 -1.24185 
-0.00761843 -0.00654032 0.0173133 

-0.000252952 -0.0213509 -0.0294321 
0.00474904 -0.0108803 -0.0134571 
0.00276495 -0.000380213 0.00619619 

-0.00661706 0.00657103 0.00203008 
-0.0124375 0.0136914 0.00698897 
0.000468113 -0.00128596 -0.0189823 

0.00308826 0.0372368 0.0336943 
-0.0486798 0.00767815 -0.0306026 
0.0177747 0.0200667 -0.0133311 

-0.0292418 0.0561919 -0.0225754 
-0.0374042 -0.0486775 -0.145228 
0.0735664 0.0892291 0.375402 

-0.0121284 -0.0110673 -0.223391 
-0.00768114 -0.00182074 0.0445494 
-0.00918864 0.0197013 -0.104976 

0.0997853 -0.36348 -0.422771 
0.245586 -0.0622568 0.170814 
0.00342498 0.00557538 0.166083 

-0.141218 0.680102 0.0966124 
-0.470946 0.417683 -0.0845309 
0.0362761 0.0321721 0.0203248 

-0.0108636 0.0939254 -0.215524 
0.00627645 0.0215793 0.0546829 
0.000461445 0.0073918 0.080751 

-0.00772918 -0.0146691 -0.0213781 
-0.009724 -0.00654439 -0.0365658 
-0.00131761 0.00122554 0.0175994 

-0.00724005 0.00949443 -0.17499 
0.0281147 0.0510158 -0.10708 
-0.00111355 -0.00194982 0.0134367 

-0.353622 1.02356 -5.76424 
0.149767 0.0193144 1.94383 
0.000743805 0.0366982 -0.0919192 

-0.106802 0.00444669 2.01989 
0.408259 0.123702 0.0744666 
-0.0143235 -0.000157562 -0.0706282 

-0.0144596 0.0144721 -0.00205448 
-0.00265389 -0.00781754 0.00246504 
0.000409433 0.00158763 0.0241252 

-0.049437 -0.130265 -0.401527 
-0.0558795 -0.0376379 -0.465898 
-0.0101241 0.0195884 0.114499 

-0.0100613 0.0502744 0.0111347 
-0.0553244 0.0107773 -0.0221756 
0.00281349 0.00185073 -0.010451 

-0.0450514 -0.0241846 0.0785699 
0.00210118 0.0198337 0.0207161 
0.00180147 -0.00101323 0.0143415 

-0.0763671 0.0389617 -0.644917 
-0.132227 0.153047 -0.574164 
-0.0420761 0.0360199 0.234648 

0.00402223 0.0189302 -0.000757555 
-0.0240362 -0.00210026 0.04355 
0.0113893 -0.01897 0.0106747 

-0.0421791 0.00856558 2.69934 
-0.0113497 0.0149449 -2.50866 
-0.00160265 -0.00171153 -0.343888 

-0.0840541 0.0289577 0.25694 
0.0862298 -0.141476 -0.584391 
-0.0293826 0.0280957 0.202125 

-0.118364 0.0138749 0.385696 
0.0298051 0.0241317 -0.368035 
-0.00465913 0.00316149 0.0555664 

-0.00917326 0.00202091 0.0102642 
0.0013971 0.00379216 -0.00241836 
0.000382541 0.000153797 0.0046784 

0.00443099 0.77802 0.156467 
0.0580944 0.0209122 0.101444 
0.00699029 -0.0110961 0.0327185 

-0.441542 -0.961052 -0.496213 
0.533496 0.793461 0.132553 
-0.0327187 -0.0503966 0.274536 

-0.0216719 -0.00377073 -0.382237 
0.0186593 0.00279498 0.0239844 
0.00337446 0.00333101 0.00363958 

-0.0247145 -0.0119792 -0.0185789 
0.0549273 0.0188504 -0.0325213 
-0.00447263 -0.00107377 -0.0156424 

-0.0608419 0.0125634 -0.0964157 
0.103227 0.0758061 -0.201419 
-0.0169733 -0.0128987 -0.0563492 

-0.010158 0.00815149 -0.00744272 
0.00240958 0.0017353 0.00150333 
-0.000102274 -3.40454e-06 0.0126673 

0.117522 -0.0336557 0.0280324 
0.0926621 -0.0776184 0.331918 
-0.00545527 -0.0608862 0.0601665 

-0.00517005 -0.0107823 -0.0399341 
0.0647892 -0.02658 0.0264548 
0.0159775 0.0200791 0.130144 

-0.0234411 -0.0232541 -0.00297866 
-0.0385074 -0.0305866 0.0192811 
-0.00884444 2.88428e-05 0.0826385 

-0.035226 -0.143692 0.849038 
0.309535 0.141394 1.41501 
-0.00624437 -0.0263926 -0.307633 

-0.00579414 0.00391948 -0.0276502 
-0.00544725 0.00257606 -0.0185809 
0.000133623 -0.000973935 0.00947468 

0.0762806 0.292111 0.43611 
-0.0308232 0.0309855 -0.047343 
0.0313967 -0.000101003 0.108527 

0.00164482 -0.0279815 0.00255387 
0.0237982 0.00464963 0.0121201 
0.00133037 -0.00329895 -0.00733176 

-0.010532 -0.0313783 -0.0787781 
0.0760972 0.00282316 0.109014 
0.0672743 -0.00951747 0.277789 

-0.0567968 -0.0575942 -0.248336 
0.015258 0.00388653 -0.291711 
0.00151421 -0.013946 -0.175766 

-0.044371 0.130044 -0.758489 
-0.106621 0.123893 0.508829 
0.00279928 0.000470513 0.103654 

-0.579891 -0.64951 -0.152261 
0.138984 0.408193 0.486251 
-0.0366917 0.0311031 0.339638 

-0.0283009 -0.020432 -2.57833 
0.00427656 0.0261205 0.209001 
0.00728346 0.0160778 0.0772591 

0.000108003 -0.0273969 0.00402173 
0.0288325 -0.00300896 0.012852 
-3.31975e-05 -0.000731463 0.00335501 

-0.142308 0.220519 0.116866 
-0.373723 0.120835 0.22815 
-0.0303873 -0.0544056 0.148725 

-0.0201305 0.00346373 -0.0170895 
0.00424277 0.0170619 -1.01175 
-0.000989573 0.000200885 0.128456 

-0.00224807 -0.0187701 0.339592 
-0.0466005 0.000579616 0.0383531 
0.00180317 0.0115929 0.337316 

-0.00409514 0.0283443 -0.031685 
-0.0349547 0.00133655 -0.0130633 
-1.14958e-05 0.000610032 0.00281813 

-1.21947 -1.7876 0.59461 
0.155778 0.49775 0.141006 
0.0105128 0.0889409 0.123885 

-0.017088 0.00404137 0.0130625 
0.0036982 0.00154469 0.0255474 
0.0086963 0.005085 -0.019457 

-0.00152222 -0.0869986 0.0275706 
0.130147 -0.0192647 -0.00723596 
-0.00401182 -0.0115081 0.0240301 

-0.00633982 0.0182297 -0.0175857 
-0.00688074 0.0115806 -0.0265303 
-0.00573122 0.000246236 -0.00795618 

-0.154821 0.022131 -0.592612 
-0.166641 0.12522 -0.466394 
0.00181929 -0.00100411 -0.0107152 

-0.00947258 -0.0153813 -0.416196 
-0.0106489 0.0113573 0.287217 
0.00589593 -0.00397396 -0.0784413 

0.00974657 -0.299316 0.440956 
0.333106 0.0956496 2.0122 
-0.00737186 -0.00929273 0.181748 

-0.0111566 0.0169408 -0.22915 
-0.0235044 0.0109582 0.519428 
-0.00174514 0.00177249 0.0211852 

-0.0639147 0.269949 0.0347719 
-0.173541 0.144715 -0.298833 
0.0200985 -0.0115233 0.0425978 

-0.0929303 0.0463416 0.047195 
-0.00967523 0.0510826 -1.23488 
0.00958518 0.0131876 0.297006 

-0.0199949 0.0201841 0.0257001 
-0.0460496 -0.00186069 0.00733647 
-0.00037302 -8.90487e-05 0.0273768 

-0.0109611 -0.0162151 -0.00372319 
0.00920534 0.00413203 0.0122743 
-0.00145293 -0.00278588 0.00824415 

-0.00600167 0.00527917 -0.0151594 
0.000293795 0.00602423 0.0567111 
0.00237724 0.00289108 -0.0215528 

-0.0209943 0.02903 -0.0103397 
0.00792512 -0.00403972 -0.0154326 
0.00150733 0.00320248 0.0645379 

-0.0828211 -0.000216403 -0.0037154 
0.0585664 0.118696 0.104192 
0.000511427 -0.0048051 0.0478449 

-0.0229606 -0.18916 -7.4835 
0.0044545 0.333936 14.0548 
-0.0012298 0.0168943 -0.459054 

0.0309908 0.0523321 0.624966 
-0.0681219 0.0160213 -0.393525 
0.00303578 -0.00672017 -0.13632 

-0.0127246 0.0270187 0.0240826 
-0.0448436 0.0114286 -0.0275658 
-0.0031014 -0.00188045 0.0102663 

-0.335711 -0.00212141 -1.72206 
0.179371 0.28371 -2.33029 
-0.006254 -9.3331e-05 0.316682 

-0.0244293 0.20114 -0.199401 
-0.398596 0.0147409 -0.389201 
0.0274673 0.0038133 0.0044614 

-0.00333555 0.0421454 -0.0437311 
-0.0519044 0.00205536 -0.0528797 
-5.8086e-05 -7.14622e-05 -0.00779236 

-0.0305812 -0.0110128 -0.192553 
0.0185825 0.00278337 -0.00850179 
-0.000818922 0.00119677 0.0102209 

-0.0358587 0.111162 -0.10179 
-0.0843973 0.0870743 -0.193442 
0.0324189 0.007697 0.0997737 

-0.0204733 -0.3251 -0.216957 
0.271838 0.0674247 0.264909 
-0.0104308 0.0416577 0.188495 

0.0550506 -0.223547 0.228038 
0.303861 0.0511461 0.0659838 
-0.0478937 0.0404036 0.323198 

-0.00899473 0.0490086 -0.00190152 
-0.0428321 0.0281129 -0.0266031 
-0.00136035 -0.00195354 -0.0173356 

0.00718183 0.114201 -0.047537 
-0.126539 -0.0637922 -0.165642 
-0.0180581 0.00728991 0.111135 

-0.00819315 -0.0231289 -0.115976 
0.0472151 -0.0211748 0.0196569 
0.0106969 0.00252733 0.10116 

-0.0982276 -0.434224 0.856286 
0.0366284 0.182704 -0.13532 
0.00136447 0.000233931 -0.0345582 

-0.151612 -0.0111373 0.916921 
0.0256836 0.130819 -1.17625 
-0.000887901 -0.0116798 0.0805068 

-0.0333736 -0.00854146 -0.091902 
-0.00711356 0.0311779 -0.0416362 
0.0297569 -0.0991825 0.324993 

-0.0145469 0.021109 -0.109779 
-0.0438261 0.0339425 -0.356808 
-0.000696208 -0.000357041 0.00633536 

-0.00615963 0.00561686 -0.0491378 
-0.00200354 2.30041e-05 -0.0108087 
-0.00134924 0.000491808 0.000273784 

0.0138642 -0.320522 -0.191302 
0.435042 0.116827 0.101918 
-0.033292 0.0467978 0.366 

-0.0181272 0.0196816 0.369393 
0.0134192 0.0303016 -0.204647 
-0.000428665 -0.00135748 0.0302775 

-0.119026 0.187579 1.53922 
-0.125312 0.185568 -0.378436 
-0.0455094 0.0409713 0.463561 

0.0126527 0.023539 0.0156316 
-0.0219646 -0.000188179 0.01538 
-0.0013345 -0.00145349 -0.0119998 

-0.129948 0.319154 -0.939639 
0.189708 0.0135953 1.01457 
-0.00860897 -0.00306965 0.185366 

-0.010118 -0.00539863 -0.0169274 
-0.00444048 -0.00663133 -0.00458568 
-0.000139636 0.000839804 0.019236 

0.00727414 -0.0254417 0.513147 
0.121933 -0.0234679 -0.150053 
-0.0167761 -0.0129788 0.130072 

-0.000559134 0.0328451 0.113045 
-0.0321239 0.0110498 0.0439301 
0.00212623 0.00111385 -0.0203664 

-0.0269064 0.215752 -0.0371177 
-0.0387949 0.0685848 2.11446 
0.0196124 -0.00101262 0.01682 

-0.0524792 -0.0140329 -0.652077 
0.0660222 0.0669017 0.0100919 
-0.000875644 0.00305262 0.0363939 

-0.0651655 0.0169048 0.00155052 
0.0102909 0.00029867 -0.00592367 
-0.00686271 0.0416903 0.210362 

-0.0107689 -0.0180389 0.0199447 
0.00710681 0.0128036 -0.0336317 
-0.000416109 -0.000393187 0.0174838 

-0.0698086 0.299156 0.262931 
-0.185874 0.153151 -0.205101 
0.0177851 -0.0328652 0.271351 

-0.00444577 0.0185704 0.0374814 
-0.0207892 0.0145374 0.0126622 
-0.00114852 0.000750164 0.00157684 

-0.0630718 -0.0495448 0.331016 
0.215124 0.0996197 -0.234427 
-0.00017142 0.00181669 0.046819 

0.00763375 -0.0473781 -0.0372912 
0.0427684 -0.000920887 -0.0235779 
0.00690154 0.000512516 0.0289298 

-0.00969663 0.0165842 0.0635362 
-0.0183766 -0.00117895 0.144219 
-0.000132976 5.66858e-05 0.00231478 

-0.0266814 0.0240027 -0.000634838 
-0.0117991 0.00958777 0.00101212 
-3.81805e-05 -0.000712547 0.012947 

-0.0242166 -0.0392288 -0.0464771 
0.0259478 0.00922913 0.0699868 
0.0254725 0.00154396 0.102513 

-0.0100914 -0.00584533 0.0244325 
-0.00124009 -0.00426351 -0.0326527 
0.000178421 -0.000934455 -0.0108733 

-0.0133174 0.0941557 -0.418307 
-0.0621277 -0.00373787 1.51854 
-0.0013003 -0.00238721 0.0275622 

0.000833078 0.0265457 0.0648146 
-0.128672 0.0345275 0.121163 
-0.00168518 0.00303219 -0.0283172 

-0.00401895 -0.00892163 1.39902 
0.0217727 -0.00289085 1.00382 
4.92924e-05 -0.00071202 0.0865738 

0.00851058 0.036864 0.0215084 
0.0204375 0.00697576 0.109339 
-0.00101913 -0.00274643 0.00806005 

-0.00746379 -0.00234155 0.268219 
-0.00255345 0.00456449 -0.0302706 
-0.000327796 0.000135426 0.0098966 

-0.00366529 0.016912 0.020303 
-0.0200182 0.000352846 0.155887 
-0.000321839 0.000850844 -0.0127361 

-0.0143648 0.0184582 0.00841253 
-0.00683858 1.1326e-05 -0.0799047 
0.00143949 -0.00114683 0.0494005 

-0.038324 -0.0118537 -0.0686602 
-0.257815 -0.0528308 -0.318111 
-0.00498904 0.0189832 0.255862 

-0.127483 0.0748844 1.94689 
0.0714822 0.0961028 0.69877 
0.00505324 -0.00179461 -0.0203414 

-0.0124483 0.000867998 -0.52302 
-0.000413284 0.0104978 -0.243339 
0.00162436 0.012352 1.46242 

-0.0600294 -0.338936 11.8736 
0.0166155 -0.0223311 2.14227 
1.0287e-05 -0.000179691 0.018687 

-0.00625081 0.0014919 0.0562773 
-0.000108257 -0.00563613 -0.0113892 
0.000425637 0.000975273 0.00646174 

0.0100824 -0.00104024 -0.0768884 
0.00850695 -0.00378743 0.11489 
-0.00603032 -0.00378998 -0.144162 

-0.728999 -0.390147 0.587726 
-0.0677229 0.749949 -1.0074 
-0.049195 0.0113383 0.290785 

-0.133198 -0.105105 -4.7647 
-0.0665879 0.0135043 -1.34851 
0.0027185 -0.00393167 0.0283668 

-0.683431 0.355924 -9.32334 
0.0553506 0.364856 -6.99692 
0.00157045 0.00160153 -0.144711 

-0.459048 -0.262655 -0.0965812 
-0.167799 0.336473 -0.565276 
0.041934 -0.00386743 -0.0723004 

-0.0103636 0.00152766 0.00124268 
0.0188493 0.00766394 -0.0104712 
0.00140269 0.00142279 0.00172758 

0.0243132 0.109482 0.00665874 
-0.084575 -0.0134115 0.0144189 
-0.00090355 -0.0024634 -0.0124188 

-0.000238897 -0.0122325 0.0105993 
0.031068 0.00346572 0.030823 
-0.000156513 -6.93634e-05 -0.00733577 

-0.0415334 0.0227677 0.0174709 
0.00509193 0.0198892 0.00273997 
-0.0497785 -0.0323411 -0.336234 

-0.00898452 0.0010577 -0.0238213 
-0.00595844 0.00207337 0.0174302 
-0.000322105 -0.000115055 0.0236774 

-0.0136456 0.00753304 0.0751448 
0.0344013 -0.00233907 -0.0376279 
0.00143493 -0.00564887 0.0157445 

-0.0350515 -0.0388759 -0.161759 
0.0531544 0.0164541 0.102826 
-0.0134579 -0.00146046 0.816963 

-0.107439 -0.176274 0.212153 
0.102908 0.14523 -0.275429 
-7.78413e-05 -0.00056468 -0.00400138 

-0.0838478 0.0270747 0.387724 
0.0655257 0.0608226 -0.039139 
-0.0391945 -0.0112837 0.0853417 

-0.275019 -0.441381 -0.280113 
0.395344 0.320458 -0.141391 
-0.0720581 -0.000884824 0.505556 

-0.120225 -0.134718 1.28703 
0.0574834 0.152235 -1.99576 
-0.0158763 -0.0480702 -0.0922074 

-0.0178533 -0.0101436 0.045356 
0.0194885 0.049117 -0.0748242 
-0.0450814 0.00204767 0.677287 

-0.0147992 0.0097218 -0.00954139 
0.000113683 0.00336279 -0.00384478 
-0.000628443 0.00061486 0.0169679 

0.000598521 0.0453082 0.0502536 
-0.0700288 -0.0118037 0.268377 
0.00231345 -0.00844156 0.0209516 

-0.00414204 -0.0605561 -0.0750249 
0.0597528 -0.00247976 0.242266 
-0.00819419 -0.000487157 0.0175934 

-0.119861 -0.142249 -0.493748 
0.0674775 0.163148 0.0726767 
0.0155482 -0.00484966 -0.0731311 

-0.0566206 0.0154064 0.149685 
0.0117747 -0.0132943 0.1476 
0.003302 -0.0136208 0.118684 

-0.0203968 0.00140318 -0.0151465 
-0.0218652 -0.00246337 0.0109612 
0.00135452 0.0025837 0.0262195 

-0.0103896 0.0159611 -0.181279 
-0.000395775 0.0149827 -0.279584 
-0.000110227 -0.00125069 0.100125 

-0.0989509 0.0426512 -0.101888 
-0.146725 0.094714 -0.0808423 
-0.00441789 0.00123157 0.057242 

-0.0112066 0.000540071 -0.0740265 
0.00599199 -0.000122375 -0.0445751 
0.00293644 -5.09787e-05 0.026525 

-0.000968228 -0.0435571 -0.0400432 
0.0223354 -0.00147181 -0.0748593 
-0.000365043 -0.000284291 0.0362118 

-0.0973222 0.326864 -0.41248 
0.130718 0.0965861 -0.467747 
0.0394067 -0.0399859 -0.187165 

-0.0116118 -0.0128992 -0.0336838 
-0.0337906 0.0163841 -0.0952594 
-0.00491278 0.00960424 -0.236537 

0.00667461 -0.0209879 -0.145353 
0.00701293 -0.0107723 0.0577681 
0.00155824 -0.0049334 0.00456129 

-0.0644853 0.0769248 -0.59381 
-0.0747647 0.007771 1.21742 
0.00231646 -0.00132366 0.0628192 

-0.0537653 0.0469801 -0.197991 
-0.00288886 0.0294096 -0.334548 
-0.0205313 0.0504439 0.595526 

-0.242585 -0.300525 0.202137 
0.283275 0.154418 0.835528 
0.0528124 -0.0467009 0.0135841 

-0.101607 -0.407463 1.64755 
0.33578 0.146653 -3.00201 
0.00535304 0.00179097 0.108199 

0.0437901 0.299032 0.0207844 
-0.0624379 -0.0559677 -0.57777 
0.0197654 0.0297894 -0.108423 

-0.0178611 0.0532344 -0.0114246 
-0.0423001 0.00729794 -0.0404711 
0.000816847 0.000401602 0.0252577 

0.0185241 0.0959053 0.130088 
-0.145906 -0.0154452 0.238467 
-0.0107926 -0.00200679 -0.018962 

0.0697844 -0.303427 0.974408 
0.238816 0.118646 -3.36738 
0.0420162 -0.0211967 0.592385 

-0.0236964 0.0462624 0.00552345 
-0.0521799 0.0136754 0.159399 
-0.000702723 -0.00786334 0.0339524 

0.01091 0.0154262 -0.0396964 
-0.00218874 -0.00446231 0.0123688 
0.0235854 0.00218331 0.0608311 

-0.00517706 0.00297996 -0.0233874 
-0.0165337 0.00287767 0.0555498 
-0.000849381 -0.00169969 0.00295812 

-0.0030021 0.000584149 -0.0034976 
-0.00106059 4.73979e-05 0.00648981 
0.00134405 0.000637528 0.00238908 

-0.0419157 -0.0611154 -0.0242006 
-0.0358591 -0.0172878 -0.199197 