# vtk DataFile Version 3.0
Output file generated by Yade's KinematicLocalisationAnalyser
ASCII
DATASET UNSTRUCTURED_GRID

POINTS 13483 float
617.148 30.2346 -0.411
764.946 53.8541 -0.466174
122.36 6.02547 0.455199
799.865 10.0923 0.414768
508.471 8.08035 0.339455
321.207 35.7681 -0.479565
159.297 6.93848 -0.446651
580.063 10.1958 0.184947
505.991 25.2916 -0.138898
721.019 22.3033 -0.440944
214.298 8.88119 -0.100394
261.778 6.37027 -0.285274
666.806 33.38 -0.164529
644.111 17.0596 -0.103502
139.659 17.3927 0.47051
225.855 34.7917 -0.395432
221.752 13.0511 0.261223
294.676 9.52052 0.400888
347.984 34.6752 0.445735
533.064 8.51714 0.361006
419.33 37.2047 -0.100922
599.647 44.9443 0.254953
789.592 47.6257 0.49691
709.909 62.433 0.439085
467.772 16.2085 0.294892
245.747 45.2536 0.129426
501.098 29.3421 -0.458041
596.508 20.3462 0.238326
45.6305 15.7465 -0.473092
730.867 52.626 -0.316821
491.768 4.89159 0.357668
17.8284 23.3858 0.319249
775.684 63.0237 0.256263
504.507 2.49453 0.473824
79.8159 44.789 -0.107812
530.955 31.6485 0.324102
539.206 16.4615 -0.414155
349.962 21.9873 0.170144
542.888 25.765 -0.321976
357.5 34.6015 0.487286
245.702 14.4926 0.326607
442.254 37.3987 0.0749616
686.105 7.8037 0.129174
196.336 6.26627 -0.369196
56.7042 7.00064 0.129542
70.0961 8.93303 0.279987
700.208 13.6753 0.64005
24.007 11.5566 -0.268303
619.053 47.6524 0.35313
689.437 26.6732 -0.330672
175.363 32.7323 -0.29953
765.113 40.04 0.134058
35.6872 28.6928 0.11374
543.363 3.04136 0.326038
144.654 7.42323 0.502904
601.418 34.3502 -0.0710517
512.381 28.1992 0.118497
178.141 0.961247 0.269064
33.509 2.345 -0.326986
355.914 17.9169 0.262378
629.721 49.7971 0.13544
472.093 35.083 -0.179553
408.501 1.03592 0.195335
708.068 12.6447 0.432414
27.0697 43.6585 -0.236182
261.535 30.881 -0.29744
720.14 12.6733 -0.222705
682.428 51.4048 -0.355391
427.36 8.59147 -0.511534
580.674 3.62414 -0.366007
745.431 34.3476 0.396581
133.424 7.83119 -0.258104
507.69 28.6877 -0.140179
487.597 15.9055 0.0913007
301.031 16.7698 -0.345937
21.3207 13.6252 0.255763
785.936 59.2574 0.323153
340.152 39.8507 -0.301904
685.212 23.5168 0.314436
698.255 18.1446 -0.260266
789.305 13.1409 -0.245224
475.48 35.6386 -0.171931
94.702 39.4755 0.262129
702.28 48.9702 0.230189
660.545 44.7009 -0.119864
794.943 54.6081 -0.119913
785.039 0.736203 -0.524003
297.839 28.8418 0.461694
634.767 6.74709 -0.0739352
24.7336 5.11586 -0.478964
136.369 38.7526 0.154115
523.053 14.8844 0.19439
775.435 29.4237 0.624943
199.876 28.9103 0.245907
45.4627 34.8465 0.300863
503.453 1.16781 0.135466
240.773 8.77348 -0.395534
759.615 65.5142 -0.265954
765.282 30.4029 -0.22515
369.675 20.823 -0.267427
167.017 27.2793 0.444118
561.103 41.3093 -0.430105
389.221 15.1597 -0.496787
424.167 30.366 -0.0995219
387.588 4.38912 0.407985
559.463 10.7484 -0.102027
797.451 24.2619 0.22204
82.2676 39.7846 -0.404819
343.625 4.91156 -0.192698
573.565 9.83147 -0.373653
369.444 44.2714 0.47603
26.4335 25.3247 0.471204
31.2052 5.60227 -0.369881
578.286 36.128 0.414377
514.79 25.3908 -0.149754
27.0875 37.5249 -0.412733
96.0908 31.6759 -0.223913
333.382 16.0384 -0.298215
614.079 19.8458 -0.123268
487.602 40.8269 0.208494
730.164 7.64019 -0.40898
724.152 8.04526 -0.188192
397.104 37.1711 0.0997668
650.015 29.6415 0.120045
243.794 17.358 0.563171
338.82 3.69828 0.465434
106.024 32.4023 0.310951
118.934 24.7687 0.266483
556.725 39.7309 0.0811843
314.804 18.9004 0.484596
726.616 56.9068 0.113376
686.491 51.827 0.12223
492.634 20.899 -0.353645
767.994 11.2182 0.34194
439.803 25.1799 0.224305
285.171 23.9332 -0.303223
688.648 39.2918 -0.275741
286.432 29.0233 0.398187
590.788 12.1833 -0.213043
341.224 36.5173 0.196458
517.181 11.7448 0.472365
376.811 31.6053 0.0815525
443.628 17.3622 -0.104353
327.104 43.0281 -0.341819
196.055 29.8479 -0.123267
769.578 54.5403 -0.158556
794.486 25.7681 -0.307215
6.14432 12.5111 0.427151
446.735 23.5918 -0.410449
39.7958 22.9009 0.0728053
387.261 31.4807 -0.472598
407.101 24.6508 -0.260644
76.8495 11.788 0.496241
53.3131 33.7169 0.464152
232.133 13.3909 0.449026
632.523 42.5908 0.24631
592.163 20.9752 -0.490923
77.4713 20.8849 0.502565
711.54 66.6087 -0.405522
756.461 4.09297 -0.585488
674.94 45.6766 -0.487301
704.891 2.60236 0.549799
566.004 28.2176 -0.39107
600.676 46.3337 -0.440483
525.231 18.1154 -0.341293
799.211 5.87546 -0.423069
230.524 24.9514 -0.120037
131.931 35.7372 -0.191137
254.566 6.60037 -0.374988
97.4682 4.41667 -0.285647
66.4068 10.23 -0.176581
284.379 36.1169 -0.32594
17.2575 25.0235 -0.359063
571.501 19.1901 0.434464
618.998 42.5035 -0.242272
476.772 22.4906 -0.391513
794.314 66.3014 -0.377973
420.422 8.66301 -0.113604
449.022 37.5476 -0.35042
551.812 3.48779 -0.19509
23.6793 23.6562 -0.42408
593.825 4.557 0.484076
561.455 4.34921 -0.310582
212.428 11.3623 0.489829
439.374 16.5819 0.186726
321.572 6.28841 0.362733
400.773 19.0313 -0.328493
751.358 54.6174 0.12352
198.75 25.5665 0.425495
777.062 6.35491 0.512568
751.617 48.4202 0.350607
396.254 10.2625 -0.162456
714.922 2.00442 0.416869
620.926 27.2484 -0.405683
737.997 21.0907 -0.38576
444.563 44.3352 -0.306287
511.36 13.0573 0.345478
479.623 45.697 0.231595
460.328 9.04457 -0.167588
678.901 45.6389 -0.252697
677.426 41.7963 0.340994
198.349 39.2262 -0.337756
787.292 12.7662 -0.112629
602.066 45.3316 -0.28271
12.2119 17.3366 0.176325
422.227 25.4704 0.370631
193.481 23.1455 0.396196
96.3191 40.5374 0.207869
772.46 25.117 0.405082
673.686 52.3316 -0.26954
330.55 26.2499 0.348355
548.672 10.2697 0.30893
84.9236 45.1093 -0.169082
255.435 25.9127 -0.463362
573.904 26.5162 0.355262
502.351 20.4146 0.408273
271.43 0.88923 -0.342777
569.463 44.9453 0.394425
549.944 40.6102 -0.513857
496.928 35.746 0.398171
515.25 1.666 -0.665998
711.23 33.5889 0.390932
185.354 12.1789 0.174107
516.364 39.6369 0.457254
580.083 47.6259 -0.198909
75.6173 0.946803 -0.272763
259.964 4.69255 0.159833
793.083 27.1273 0.193807
789.406 15.1053 -0.479583
799.288 30.1861 -0.504477
314.067 8.62815 -0.231633
743.407 26.2371 -0.404689
420.235 42.9706 0.375653
464.762 0.822125 -0.402177
665.447 41.9043 0.466431
27.7921 31.2621 -0.324646
342.08 42.6424 -0.576919
260.896 2.85886 0.331415
779.715 64.1928 0.205972
734.056 68.7246 0.0347683
297.329 10.9182 0.224925
684.384 36.6193 0.100323
575.233 2.58669 0.276001
559.189 6.48327 0.435062
100.227 18.7867 -0.47731
313.955 1.04175 -0.230791
355.151 2.29847 -0.348102
14.3103 7.68728 0.371786
4.5636 31.09 -0.23758
167.258 18.9181 0.355454
70.6635 41.8731 -0.212274
69.3083 28.9898 -0.332549
439.225 14.8248 -0.402266
379.992 35.1041 -0.48052
763.402 41.4503 -0.138442
19.9721 4.01521 0.263649
73.1545 6.89191 -0.142536
641.354 42.0672 -0.165404
305.172 0.954823 0.317896
378.022 16.1414 -0.084644
243.557 4.67943 -0.376679
669.639 23.1251 -0.185435
467.571 8.62715 0.428529
746.046 21.9962 0.444915
649.034 32.7928 -0.289308
685.417 21.4778 -0.0795619
435.538 27.2405 0.491336
106.224 45.6375 0.320541
558.742 44.5502 0.0792489
735.153 13.6224 0.191569
246.14 31.3537 -0.244703
32.9356 17.4462 0.161713
348.15 13.9614 0.489962
111.697 41.1971 -0.473042
277.331 42.2407 -0.199778
441.431 1.77159 -0.366331
776.145 40.4306 -0.387915
700.808 0.794115 -0.547678
344.201 3.33797 0.543837
311.519 26.7665 0.137793
479.075 42.4561 0.221872
84.5856 7.99611 -0.445987
204.845 45.2145 -0.378248
768.056 32.2668 -0.427873
511.587 42.1804 -0.100329
207.207 41.3387 0.26095
166.893 43.2493 -0.289276
799.125 49.5575 -0.381702
796.296 25.4221 -0.626753
626.356 4.06559 -0.600417
197.267 24.4968 -0.0886661
567.992 30.5894 -0.0967613
569.463 29.1141 0.265181
424.982 5.67205 -0.139471
498.396 0.918558 -0.308176
760.889 43.0506 0.473506
88.7337 31.6973 -0.214369
674.977 18.9168 0.492388
284.221 15.5223 -0.334853
9.77033 2.41469 -0.321484
130.451 37.6208 -0.196278
69.7642 23.5144 0.48586
721.18 59.5675 0.350546
781.027 72.2248 0.0287858
192.319 28.1831 -0.175424
792.649 23.0316 0.36673
46.8856 36.8733 0.263032
94.2847 29.0484 0.157324
653.138 14.6425 0.366752
429.628 18.7867 -0.449076
536.136 16.9138 0.12477
246.523 29.406 0.190918
642.081 4.35117 -0.462212
799.923 23.1826 0.410432
30.9102 32.2448 -0.267679
279.971 7.73083 0.186472
230.156 15.3744 0.291676
1.08758 35.975 -0.154733
233.248 14.5421 0.396433
219.189 11.0681 -0.110913
222.21 26.3115 -0.303982
137.721 28.4087 0.135869
565.517 15.2324 -0.341449
172.913 14.2756 -0.34712
775.522 59.618 -0.244389
180.186 3.88176 -0.502033
49.1616 38.1367 0.413855
750.859 66.5469 0.434314
291.643 31.5877 0.40407
692.267 30.4556 -0.445509
784.389 54.3785 0.462738
312.115 9.26444 -0.104383
738.971 40.7282 0.356978
341.122 2.55316 -0.404313
432.106 23.8457 0.363594
689.322 19.2071 -0.595519
109.37 11.6635 -0.395664
500.225 3.75622 -0.523351
748.079 20.2524 0.169861
91.8761 7.72408 0.219776
292.216 14.6729 0.18459
440.35 12.137 -0.232239
797.908 5.50096 0.533516
413.553 2.00808 -0.516855
183.299 39.0018 -0.309382
736.613 10.6115 -0.409007
133.733 36.8642 -0.182287
272.849 31.3778 -0.3689
416.377 21.7896 0.221375
593.349 14.2859 0.317739
402.191 9.89014 -0.486941
473.198 28.9433 -0.424172
766.479 53.4383 -0.433342
49.3891 10.9008 0.096676
310.489 38.9345 -0.282159
393.894 26.2147 -0.405911
426.051 20.7167 0.259394
539.676 45.2949 0.356527
768.798 63.042 -0.19356
683.782 42.2787 -0.379088
234.147 35.2262 0.299088
14.6775 31.8012 0.164022
675.551 42.0545 -0.148484
526.921 43.5297 0.479151
238.025 40.2834 -0.104712
702.802 46.4833 -0.120802
156.499 9.33398 -0.228679
380.833 22.0687 0.28129
480.728 43.7731 0.15009
430.159 20.463 0.186972
761.988 56.677 -0.333723
442.854 3.94924 0.522725
51.6327 25.4249 0.320266
487.46 33.751 0.328945
450.756 42.5745 0.390979
781.565 55.9661 -0.219888
737.874 37.4456 0.241292
560.431 19.3634 -0.148247
775.495 50.7662 -0.415864
304.498 2.20238 -0.450036
393.919 29.2113 -0.464901
30.2835 39.4148 -0.300222
746.514 40.1274 -0.167232
628.876 23.2607 -0.546912
479.985 0.779365 -0.469215
130.635 4.69195 0.328648
442.173 41.9474 0.106563
12.2458 0.930428 0.34192
796.392 8.88677 -0.224129
[...]
POINT_DATA 13483
TENSORS Strain_matrix float
-0.0431371 -0.109287 -0.0614058 
0.0830996 0.0430038 -0.0550347 
-0.0044439 -0.00745451 -0.0329258 

-0.275306 0.184723 -7.6655 
-0.0208273 0.266945 -3.48496 
0.0196497 -0.00407577 2.40353 

-0.0177233 -0.0197794 0.314686 
0.0263564 0.00789966 -0.817246 
-0.00248065 0.0015849 0.0531643 

-0.199919 -0.23556 -0.543654 
0.371266 0.0566351 0.379139 
0.00969922 -0.0239673 0.284262 

-0.0654035 -0.109452 -0.0690361 
0.0725994 0.036918 0.117143 
-0.0109876 -0.0250244 -0.00949046 

-0.0160069 -0.030862 0.0511686 
0.0283115 0.0190624 -0.0218497 
-0.00239311 0.000953226 -0.00308425 

-0.0212935 -0.0161772 -0.00634727 
0.0044659 0.00864136 -0.00900604 
0.00251143 0.00067977 -0.00145307 

-0.0217042 -0.00744131 -0.0404509 
0.00140037 -0.0238805 0.0138603 
0.000133628 -0.00150948 0.0672014 

-0.0101745 -0.181242 0.221025 
0.0172075 0.0187338 -0.367665 
0.00319934 -0.00502024 0.0771026 

-0.613008 0.30166 1.17069 
-0.568771 0.501329 0.181113 
0.0826128 0.0125171 0.578761 

-0.00956786 -0.0124197 -0.00718759 
0.0183667 0.00510549 0.00879057 
-0.000143343 0.000850371 0.00205692 

-0.00677233 -0.00170943 0.000209908 
9.03742e-06 0.00324522 -0.000335343 
0.000967527 0.000127866 0.0106616 

0.115653 -0.56014 0.140108 
0.129279 -0.117689 -0.47266 
-0.0340556 -0.0449422 0.362423 

0.0102067 -0.0937202 0.0268533 
0.0975218 -0.0135542 0.0641929 
0.00223476 0.00658275 0.00413136 

-0.0305028 -0.0286559 0.986147 
-0.0112724 0.0373028 0.333673 
0.00120275 0.00101444 0.177323 

-0.0135704 -0.0319926 -0.181211 
0.0382326 0.00762806 -0.0548039 
0.000686444 -0.00215979 0.0581347 

-0.0173834 -0.00355003 -0.0113396 
-0.0120963 0.0340254 0.0677148 
-0.0213665 -0.0235199 -0.065157 

-0.00951341 -0.00118883 0.00111176 
0.00123327 0.00276621 -0.00632534 
-0.000128024 0.000308099 0.0112386 

-0.0282459 -0.0336318 0.123256 
0.020957 0.0169051 -0.0572756 
-0.00425991 0.00272811 0.00466761 

-0.0220224 0.0478662 0.166746 
-0.0650229 -0.0175583 0.189494 
0.00579257 0.0021491 0.108158 

-0.0230155 0.00368458 -0.0423461 
0.0108114 0.0132031 0.0138175 
-0.00463094 -0.0558602 0.298365 

-0.179796 0.10674 0.0478264 
-0.021152 0.116898 0.074562 
0.000829319 0.0229502 0.0342588 

-0.114686 -0.147965 -0.569928 
0.122727 -0.000306528 -0.249507 
-0.00209114 -0.00750406 0.0333468 

0.0852396 -0.19405 -0.348654 
0.232699 -0.00178246 -1.58495 
0.00430346 -0.0194305 0.24641 

-0.0322022 -0.0564371 0.401197 
0.0484448 -0.0122394 -0.0508388 
-0.0139438 0.0100856 0.0395264 

-0.00104988 0.00174431 -0.00631511 
-0.000366122 -0.000212772 0.00033559 
0.00211742 -0.00011439 0.00591355 

-0.0700975 -0.00336692 -0.905355 
0.00516704 0.0802559 -2.32817 
-0.000360072 0.00543035 0.489807 

-0.00764709 -0.024814 -0.0195757 
0.0417635 0.00332795 0.162433 
0.0326903 0.0121582 -0.0362194 

-0.00278524 -0.0114774 -0.693819 
-0.0128852 0.0169353 1.1239 
0.00116184 -0.000954638 -0.00861053 

-0.0763303 0.278193 0.40281 
-0.24997 0.226342 1.50057 
0.0186095 -0.00145483 -0.166706 

-0.0199377 -0.00534831 -0.24095 
-0.0443477 -0.00777693 -0.0883291 
-0.00858921 0.00334075 0.100986 

0.0222738 -0.0100765 0.0589679 
-0.00435557 0.00105015 -0.103628 
-0.00199061 7.90882e-05 0.00788421 

-0.388466 0.0149904 2.85953 
-0.0116057 0.138808 1.41555 
0.0106876 -0.00210693 -0.00969003 

-0.0148269 0.00275934 -0.0800229 
0.00220906 -0.00265201 0.0895042 
-0.000932974 0.00139139 0.0293409 

-0.0126065 -0.00584623 0.0295229 
0.0103842 0.01076 -0.0352088 
-0.000209275 0.000455956 0.0141844 

-0.0554115 -0.159446 -0.391847 
-0.0938088 0.0396539 -0.0132774 
0.000106716 0.00015978 0.00851814 

-0.0163988 0.00668674 -0.186669 
-0.00183733 0.0323061 -0.69364 
0.00319346 -0.00102024 0.0221488 

-0.133189 0.235105 0.149753 
0.0641482 0.0250599 -0.0598367 
0.00478244 -0.00235352 -0.0611778 

-0.0176725 -0.0194303 0.0104335 
0.0118292 0.00119664 -0.0275239 
0.000289981 0.000801395 0.0147844 

-0.0352021 0.0114715 1.44227 
-0.0543209 0.0252228 0.676526 
-0.0197116 0.0155208 -0.447245 

-0.00777198 -0.0183413 0.0166708 
0.00430305 0.0142903 -0.00516526 
-0.00190541 -0.000543765 0.00396765 

-0.0255184 0.0214637 -0.0930559 
-0.0257091 0.00727123 -0.032712 
-0.00778197 0.00771861 -0.0772649 

0.000879566 -0.167852 0.00606001 
0.114816 -0.0211699 0.0655299 
0.0127061 0.0151172 -0.0249748 

-0.00977195 0.0128671 0.00564836 
-0.00997135 0.00941534 -0.0208243 
-0.00345597 0.000206101 -0.0376597 

-0.015545 0.00635619 -0.0214982 
-0.0177572 0.0109488 0.00966113 
0.00121397 5.85249e-05 -0.00642637 

-0.00456988 -0.00108908 -0.01726 
0.00630641 0.00288073 0.0440598 
-0.000647336 -0.000217563 0.00212779 

-0.185186 -0.086223 -2.96706 
0.138751 0.146217 2.13746 
0.0118248 -0.0269139 0.303252 

-0.0163222 0.0210472 0.00268692 
-0.040571 0.0122015 -0.00127294 
0.000458529 4.48933e-05 0.0143888 

-0.00662376 -0.0330856 -0.01574 
0.026451 0.00280344 0.00514157 
0.000100673 -0.000122352 0.0110743 

-0.111413 -0.134786 -0.687119 
0.0316997 0.0198032 -0.999731 
0.00249162 -0.0143392 -0.236719 

0.0054002 0.0326741 0.00554107 
-0.0461075 -0.00473071 0.00298079 
0.0019392 3.176e-05 0.000268683 

-0.10304 -0.210536 -0.0694589 
0.137778 0.028607 -0.22934 
-0.00753754 0.00496102 0.13454 

-0.0165981 0.00113559 0.0588095 
-0.0146491 0.0193195 -0.00254973 
-9.26413e-05 -0.000385084 -0.0105901 

-0.0119477 -0.00199496 0.00255402 
0.00669336 -0.00044407 -0.00698114 
0.000487506 0.000512973 0.0162917 

-0.0210887 0.00282864 0.742888 
-0.0118174 -0.00551832 0.223491 
0.00703013 0.00359822 0.245233 

0.0495427 -0.14037 0.358924 
0.0450185 -0.0625896 0.0427676 
-0.026845 0.0655725 0.149028 

0.0848322 -0.165631 0.27441 
-0.0339281 -0.0824154 -0.568905 
-0.00919618 0.0531155 0.146138 

-0.0122978 0.0613401 -0.0877693 
0.00310837 0.00473129 -0.025361 
-0.000711401 -0.0100887 0.0210974 

0.00128247 -0.000736482 -0.0406534 
0.00362038 -0.00703754 -0.0125583 
0.00510921 -0.00454178 -0.0205255 

0.00520673 -0.00949083 -0.0296661 
-0.0109645 -0.00896076 0.0177351 
0.00149289 0.000715666 0.0108688 

-0.0965538 0.00110919 -0.069231 
0.243337 0.120507 0.0433549 
0.00101884 -0.00168964 0.012245 

-0.0139324 0.0330319 0.251137 
-0.0341083 -0.00598005 0.0686086 
0.000266069 -0.000284612 0.0714927 

-0.0067638 -0.00909564 -0.0107427 
-0.00287207 -0.00319806 -0.0161118 
0.000287203 0.000559325 0.0131542 

-0.734027 0.268023 0.047153 
0.581038 0.36811 -0.832377 
-0.0296338 0.105717 0.674087 

0.00361468 0.0107412 -0.0085263 
-0.00858708 -0.0047721 0.0337246 
-0.000120352 -0.000102601 0.000522177 

-0.00438031 0.0186402 0.00733996 
-0.0194621 0.00476557 0.00290086 
0.000458737 0.000169189 0.00339677 

-0.533333 0.34788 -0.498024 
-0.500069 0.46153 0.378344 
0.0022259 0.0637192 0.854561 

-0.0136434 -0.0953643 -0.0298681 
0.0950163 0.0234103 -0.0496792 
-0.00151843 -0.0057828 0.0177676 

-0.0122856 0.0039546 0.551742 
-0.00174077 0.0098148 -0.454236 
9.67519e-05 -0.00209076 0.277085 

-0.00191564 -0.00433912 -0.00190431 
-0.00717875 -0.0155888 0.0134439 
-0.00113595 -0.00234618 0.0213777 

-0.252844 0.517798 -1.07691 
-0.793226 0.482995 0.24116 
0.0477911 0.0222498 0.155764 

-0.0372186 0.0241818 0.132471 
-0.0205943 0.0267231 -0.0689074 
-0.0737743 -0.0353067 0.767358 

-0.0332531 -0.0422413 0.0705742 
0.083677 0.113808 -0.20319 
0.00131293 0.00462154 0.133018 

-0.0860887 -0.00352285 -0.202191 
0.0141742 0.13236 -0.061143 
-0.0283673 0.0148653 0.732221 

-0.00525396 0.00846234 -0.025221 
0.00659185 0.00668408 0.00970794 
0.000361237 9.24411e-05 0.00736758 

-0.0257405 0.0409592 -0.0128449 
-0.0121641 0.0191504 -0.00560643 
-0.0052667 0.00175683 -0.0214528 

-0.0762864 -0.139391 -0.44644 
0.114268 0.073664 0.1036 
-0.00097831 0.000102674 0.0507224 

-0.0103363 -0.0320395 0.00562995 
0.0453397 0.0116031 0.0238066 
0.00019685 -0.0012709 -0.00741308 

0.0731776 -0.472482 -0.218271 
0.23653 -0.0239983 0.267288 
-0.0595729 0.0755822 0.327314 

-0.0389955 -0.23231 -0.0854597 
0.210561 0.120313 -0.15341 
0.00546783 -0.00572054 0.0129163 

-0.0997037 0.00531873 0.809523 
0.103883 0.110446 0.6679 
0.00314133 -0.0139854 0.0449357 

0.015302 0.00736318 0.28808 
-0.0039895 -0.00778205 0.0762351 
0.000125328 -0.000838974 0.0466108 

-0.00137416 -0.0222607 -0.0959127 
0.0196644 0.00296372 -0.0367608 
0.000757853 -0.00307092 0.0270095 

0.152102 -0.14793 0.831464 
0.595006 -0.0285605 -0.502022 
0.00675619 0.025425 0.0287404 

0.013024 -0.104929 -0.0728399 
0.123537 -0.00167268 -0.00674485 
0.00109535 0.00265867 -0.0060292 

-0.0966159 0.0842984 -0.0419195 
-0.046512 0.0915009 0.237919 
-0.0123728 -0.0436512 0.713136 

-0.0800126 0.280227 0.920751 
0.00259281 0.0291332 0.433567 
-0.00273406 -0.00471619 0.160393 

0.00721011 0.0114731 -0.0151272 
0.00399937 -0.0107319 0.0100304 
-0.000401976 -0.000365548 -0.00353819 

-0.145198 0.0238398 -0.0917983 
0.158962 0.127119 0.0703671 
-0.00189056 0.00945385 -0.0286136 

-0.00774864 0.00620336 0.0217134 
-0.00590169 -0.00556753 0.0417747 
-0.000338484 -0.000484828 0.00120797 

-0.0353924 -0.0306344 -0.029047 
-0.0428031 -0.00761144 0.0719626 
0.0715079 0.00959037 0.204769 

0.00501508 -0.0979588 -0.0672218 
-0.0529847 0.00700063 -0.14383 
-0.00388368 0.000462231 0.0050491 

-0.143729 0.00479916 0.266639 
0.087711 0.0320724 -0.145024 
0.00200902 0.00358169 0.433434 

-0.0124548 -0.0101493 0.0783958 
0.0455551 0.0226812 -0.0409462 
0.00147677 0.000184434 0.0251633 

-0.0145489 0.0202567 -0.0210663 
-0.0248007 0.00388841 -0.0225049 
-0.00937693 -0.0076063 0.118446 

-0.0148511 0.0101 -0.0126852 
-0.00339001 -0.017924 0.0512403 
-0.0017859 0.0038059 0.0231175 

-0.0069945 -0.00695957 0.00155152 
0.0103664 -0.00226171 0.0143582 
0.000431605 -0.000718422 0.0254371 

-0.0235789 -0.0685833 0.203192 
-0.268426 -0.00529699 -0.243088 
-0.0288044 -0.00735039 0.168998 

-0.0708301 0.265193 -0.561516 
0.191406 0.113025 0.420085 
0.0117922 0.000424423 0.0423928 

-0.00707126 -0.0613757 -0.0707997 
0.0616753 0.0183913 -0.0684752 
-0.00226319 0.000343151 -0.00228421 

-0.00660835 0.00217078 1.55705 
-1.7983e-05 0.0319941 -0.682449 
0.00190436 -0.000200012 0.0988983 

-0.0120062 -0.109989 0.440981 
0.120209 0.0271518 -1.03429 
0.00130347 -0.00175816 -0.0744259 

-0.0148006 -0.00569187 -0.165585 
-0.00306417 0.00682488 -0.0317845 
-5.43715e-05 0.00041301 0.0141476 

-0.00977177 -0.023093 0.10767 
-0.00591316 -0.0116867 0.0968459 
0.000265366 0.00167895 -0.00457107 

-0.00946922 -0.00244756 0.017372 
-0.000488522 0.00301556 -0.00778643 
3.62004e-05 0.000310842 0.0124111 

-0.00512355 0.00150227 -0.000150308 
-0.0141119 -0.00241031 -0.000545214 
0.00238335 -0.00246334 0.02035 

0.00404203 0.0379194 0.0636936 
-0.0273234 0.0138827 0.161375 
0.00404221 -0.0172072 0.0324193 

-0.0159867 -0.0257582 0.0700062 
0.0142489 0.00725126 -0.117971 
0.00778786 -0.00670495 0.108286 

-0.0162845 -0.012032 0.034202 
0.0304578 -0.00292332 -0.0357568 
-0.002996 0.00279819 0.0480711 

-0.0429169 0.0372453 -0.237223 
-0.0477189 0.0171955 0.0353687 
0.00296208 -0.0202028 -0.0191014 

-0.0290782 0.0237881 -0.428986 
-0.0193812 0.0288239 0.583594 
4.39425e-05 -0.0021013 -0.0354828 

0.00468744 0.0276773 0.415696 
-0.053901 -0.0098177 -0.0497091 
-0.000683738 -0.00428898 0.0958099 

-0.00268512 -0.00754665 0.0435266 
0.0185149 -0.00660656 -0.0115803 
0.000408186 -0.000689312 0.0132753 

-0.103811 -0.0403959 0.25798 
-0.138458 0.125609 -0.802141 
-0.0175086 -0.00468897 0.00708754 

-0.143817 0.209112 -0.0743816 
0.00274696 0.191184 -0.519223 
0.00138385 -8.33688e-05 -0.00217979 

-0.0132809 0.00508637 -0.0335604 
-0.00852379 0.00120839 0.110882 
-0.0090326 0.0124783 0.118235 

-0.0138409 0.00445937 -0.00241079 
0.0279741 0.0151543 0.029354 
0.000667592 -0.00180632 0.00118522 

-0.128048 0.214153 0.69227 
-0.0542119 0.117178 0.085039 
8.02578e-05 0.00298207 0.0019159 

-0.24194 -0.104177 0.117117 
-0.102995 0.278774 -0.325654 
-0.0030676 0.00598104 0.000200521 

-0.0444441 -0.13779 0.156895 
0.251523 0.0523899 -0.215545 
0.0103905 -0.00805604 0.0486859 

-0.163514 0.131015 -0.192516 
-0.0412322 0.158815 -0.10928 
0.0842634 0.0751618 0.00103679 

0.00396233 0.220263 -0.19764 
-0.0538722 0.0363774 0.175829 
0.0931374 -0.0225429 0.162103 

-0.00964355 -0.00172196 0.00472591 
0.0033562 0.00432194 -0.00243162 
9.77502e-06 0.000370046 0.0085179 

0.048105 0.0461306 0.080326 
0.10311 -0.132384 -0.299317 
-0.00321756 0.00286735 0.00447324 

-0.011906 0.000684439 -2.63869 
0.00188718 0.0157826 -4.72585 
-0.000189132 7.87848e-05 0.7506 

-0.00909118 -0.000770292 -0.146836 
0.00386446 -0.00874981 0.169698 
-0.0009724 -0.000408633 0.0214215 

-0.028254 0.0271864 -0.0497101 
0.00686198 0.0544947 0.120162 
0.0293525 0.0292083 -0.0613699 

-0.105253 0.152676 -0.180732 
0.036313 0.0703266 -0.554853 
0.00245524 -0.0011869 -0.047283 

-0.0022507 -0.121526 0.0234617 
0.122264 0.00397977 -0.0856534 
-0.00102505 0.000839516 0.060252 

-0.0058221 0.00874396 -0.282027 
0.00921051 -0.00148299 0.263396 
0.00151312 -0.00269003 0.193738 

-0.362688 0.304973 -0.123273 
-0.0760321 0.246359 -0.112885 
-0.0529337 -0.0375178 0.891765 

-0.0948324 -0.154959 -0.0991062 
0.109689 0.0158582 -0.124032 
0.00766178 0.00559968 0.0819075 

-0.138896 -0.0184514 0.914439 
-0.183931 0.136204 -0.738599 
-0.00423694 -0.000223088 -0.0117027 

-0.00655449 0.0323226 -0.00970483 
-0.015981 -0.0188029 0.0393903 
-0.00358145 0.000673534 0.0332791 

-0.0533179 -0.130891 -0.478898 
-0.17841 0.0885176 0.298034 
-0.00190052 -0.00497826 -0.0021639 

-0.00249991 0.00324594 0.0172765 
-0.00362432 0.000309442 0.00623661 
-0.000225034 0.000124066 0.00168934 

-0.398068 0.671992 -2.86381 
0.0132777 0.232677 -0.0732215 
0.0117505 -0.0536622 0.0914827 

-0.00286981 0.000762231 0.00365409 
-0.000674399 0.00106718 0.00323183 
0.000103951 0.00012777 0.0078569 

-0.0281808 -0.0482348 -0.00484373 
0.0421452 0.000340671 0.038974 
-0.001514 -0.00363366 0.0478718 

-0.0121181 -0.029525 0.0217287 
0.081422 0.00646583 -0.00817822 
0.0319887 -0.00952383 -0.0451552 

-0.0103066 -0.0195828 -0.0934062 
0.00801834 -0.00542289 0.0451123 
-0.000557013 -1.71728e-05 0.0434529 

0.00458937 0.0136486 0.00407932 
-0.0154305 -0.000161284 0.01958 
0.000824016 -0.000422955 -0.00784618 

-0.0112569 -0.0302939 0.0764659 
-0.0243604 -0.0216978 0.0734075 
0.00200265 -0.00033648 -0.0280332 

-0.0165884 -0.0249539 -0.0379269 
0.0233346 0.010505 0.052379 
7.08559e-05 -0.000195854 0.0201918 

-0.0217957 -0.00768714 -0.0689679 
0.0263679 0.0248295 0.0351387 
-0.0013674 0.00129451 0.00454957 

0.00902517 -0.220034 0.0788309 
0.252085 0.0544041 -0.0212575 
0.00113312 -0.000431163 0.0112909 

0.0473292 -0.0555976 0.117571 
-0.0215015 0.0123124 0.208259 
-0.0430596 -0.0110925 0.015297 

-0.00924991 0.0196582 -0.0158781 
-0.00745083 -0.00187176 -0.0181838 
-4.96103e-05 -0.00136053 0.0869139 

-0.00495379 -0.00521394 0.554568 
-0.0222506 0.0206898 -0.396381 
-0.00332803 -0.000528166 0.0894707 

0.0229536 0.0491088 -0.292855 
0.144396 0.000938235 -0.19489 
0.00266268 -0.00443295 -0.00427015 

-0.00678826 -0.000530795 -0.372454 
0.00315123 0.00163211 0.153031 
1.01814e-05 -5.73406e-05 0.00734619 

-0.0261069 -0.0042388 0.0352516 
-0.0156218 0.0297422 -0.217641 
-0.000793179 0.000953902 0.0235035 

-0.010604 0.00585582 0.193356 
-0.00388308 0.00263255 0.201922 
-0.00622032 -0.00378537 -0.0218398 

-0.0103173 0.0159623 -0.0596203 
-0.0153741 0.00188495 0.170184 
0.0047098 -0.0040961 0.16819 

-0.0034187 0.0278724 -0.210997 
-0.0239796 0.00943353 0.613263 
-0.000688055 -0.000303347 0.0609283 

-0.187961 -0.0110468 -0.50553 
0.216142 0.221578 0.191201 
0.00341336 -0.0221821 0.19728 

0.0374058 -0.0367466 -0.00217582 
-0.0234753 -0.0498909 -0.631907 
0.00400406 -0.0025347 0.0892634 

-0.0168816 0.0116872 -0.91097 
0.000978661 0.00648483 -0.359172 
0.000219574 0.000101901 -0.0275569 

-0.0137787 -0.456143 21.3124 
0.0660622 0.0427226 2.87973 
-0.00210514 0.00557245 0.0922667 

-0.0333016 0.00627569 0.57833 
-0.021692 -0.00298837 -0.0504699 
0.00743818 -0.000251091 -0.0813952 

-0.0743556 -0.0236508 0.460077 
0.0471845 0.11324 -0.582322 
-0.00685503 -0.00828767 -0.0117869 

-0.0470707 0.107051 -0.124552 
-0.200947 -0.0546443 0.946683 
-0.015775 0.0792556 0.109708 

-0.060152 -0.00104144 0.135078 
0.0699018 0.110016 -0.200453 
0.0219891 0.00945918 -0.0828502 

-0.102894 0.0675818 0.300335 
-0.0104786 0.287814 -2.4556 
0.00274091 0.00966989 0.170767 

-0.0840827 -0.17162 -0.47774 
-0.036834 0.0908796 -0.439392 
-0.0120874 -0.0114134 -0.0817369 

-0.028893 -0.166583 -0.350539 
0.178328 0.0798939 0.0728419 
0.00338789 0.0403467 0.046273 

0.00619617 0.0286832 0.00519519 
-0.0379259 0.0117302 -0.0411602 
-0.000486053 0.001444 -0.0325228 

-0.0100024 -0.0077095 0.0341308 
0.0315707 -0.00590809 0.000768351 
0.0530236 0.0394466 0.376583 

-0.00716174 -0.000981849 -0.0155788 
-0.00062989 0.00483924 0.000396834 
-0.000548014 0.00132134 -6.21924e-05 

-0.0574057 -0.00877505 -0.129191 
0.0234848 0.0542973 0.374904 
-0.000536219 0.00464631 0.0322882 

-0.00340456 0.00155521 0.0024873 
-0.00453309 3.13262e-05 -6.93577e-05 
3.68441e-05 0.000600428 0.0071613 

-0.00582696 0.00183897 -0.0134413 
-0.00163298 0.000694309 0.00681869 
-9.67202e-05 -0.00113353 0.00879751 

0.00586561 -0.072716 0.0942986 
-0.000544748 -0.0311946 -0.00454114 
-0.00435009 -0.00454617 0.0186147 

-0.0544554 0.00629833 0.484408 
-0.0274375 0.0644998 0.443848 
0.00461205 -0.00093842 0.0258406 

-0.00655978 -0.023688 -0.00740939 
0.0351607 -0.00118899 0.0168 
0.0068863 -0.00636799 0.00640846 

-0.0308521 -0.0765334 0.156931 
0.0938678 0.0579787 -0.853881 
0.000755803 -0.0031996 0.0184715 

0.00983642 -0.0355267 0.94016 
-0.0783098 -0.0113844 0.543503 
0.00397086 -0.0108521 0.196858 

-0.0104137 0.00139711 0.00187102 
-0.0121847 0.0041704 -0.00272728 
0.000856326 -0.000323313 0.00828465 

-0.0128373 0.0120287 0.0190081 
-0.0299566 0.00404038 0.0547395 
-0.00177777 -0.000805595 0.0283114 

-0.0176895 -0.0152731 -0.0224069 
0.0110154 0.00930686 -0.0129473 
0.0018277 0.00173773 0.0074916 

-0.0904858 -0.00705158 0.366549 
0.0869985 0.0588596 -0.306758 
-0.00427649 0.0104269 0.153311 

-0.000138028 -0.0475666 -0.195671 
0.0521956 0.0173185 0.00744045 
0.00576109 -0.0438236 0.420948 

-0.0190955 0.0164083 -0.00425292 
-0.0128545 0.0154915 0.0119641 
-0.00181012 0.00658639 0.108968 

-0.0119769 -0.0171083 -0.187155 
0.01572 0.000753472 -1.40948 
-0.00289647 0.000955408 0.183144 

0.00797442 -0.00319322 -0.00617388 
0.0266175 0.00628272 0.0806849 
0.000279892 0.00105443 -0.00593367 

-0.0228835 -0.00739337 -0.00833517 
0.000922374 -0.00223189 0.0309868 
-0.000901734 0.000781547 0.0563457 

-0.00325335 0.00211987 0.0182059 
-0.00130307 0.00307593 0.0367968 
8.57671e-05 0.0002694 -0.00462715 

-0.468331 0.362476 0.224608 
0.673561 0.282455 0.15502 
-0.04327 0.0317336 0.292817 

-0.0302044 -0.040697 -0.40785 
0.0359389 0.00623422 -1.23392 
0.00050468 -0.000994824 0.0660731 

-0.0550163 0.0224541 0.00192773 
0.0232718 -0.0233801 0.0952732 
0.00168186 -0.0127195 0.107067 

-0.736417 0.483529 -1.42819 
0.337315 0.402445 0.397224 
0.0151366 0.0250647 0.0196412 

-0.00956508 -0.011524 0.00649733 
0.0105377 0.00381437 0.00498811 
0.00232189 0.000155511 0.00585609 

-1.32532 -1.45615 0.266132 
-0.100358 0.436493 -0.227626 
0.0252032 -0.128397 0.272448 

-0.165325 -0.0664999 0.600979 
-0.0340781 0.170947 0.581527 
-0.00484125 -0.00747028 0.0140263 

-0.279326 0.00394171 -0.0148779 
0.0254567 0.211993 0.0196971 
-0.00366116 0.00310648 0.0786427 

-0.0082878 0.0344466 0.0149506 
-0.0378233 0.00164578 0.0124552 
0.000856126 0.000181704 0.00958039 

0.0444708 0.00203404 0.177708 
0.0435182 -0.048216 0.2232 
-0.0222699 0.0310352 -0.0288237 

-0.089522 -0.154565 -0.0355979 
0.111181 0.0621669 0.486123 
-0.000999362 0.000591858 0.0263438 

-0.0340421 -0.0315546 0.00673437 
0.0100689 0.0100888 0.0230726 
0.00137424 -0.00309132 0.0498171 

0.0368357 -0.10766 0.166374 
0.0440557 -0.00563634 0.0524474 
0.00594404 -0.0175223 0.00128241 

0.000239319 -0.0936879 0.019736 
0.169101 0.00115167 -0.171765 