# vtk DataFile Version 3.0
Output file generated by Yade's KinematicLocalisationAnalyser
ASCII
DATASET UNSTRUCTURED_GRID

POINTS 13483 float
600.751 30.8008 0.523071
723.878 76.137 0.442925
118.721 6.1525 -0.532079
755.439 5.65118 0.339867
495.416 7.76273 0.322254
312.14 35.3359 -0.471756
154.247 6.96765 0.454693
566.481 10.7035 0.161518
492.438 24.7673 -0.209066
700.035 11.9714 -0.585879
207.887 8.79143 0.12647
254.509 6.31213 -0.254374
643.829 35.2376 -0.237008
625.298 18.4336 -0.186301
135.708 17.8349 0.523748
218.632 34.8015 0.401479
215.201 12.9598 -0.292146
286.352 9.73018 0.3957
338.609 32.6932 -0.496687
519.265 8.70462 0.339907
408.351 36.9376 0.095987
584.569 47.1494 0.322428
750.184 40.4757 -0.503418
682.665 53.1303 -0.509509
456.186 16.796 -0.404943
238.274 44.5385 0.141317
487.29 28.9538 -0.464312
582.755 20.6704 0.236407
44.6987 15.8985 -0.39552
693.328 31.5623 0.345393
478.951 5.05085 0.369617
16.2216 23.9376 -0.324323
737.941 80.466 -0.251402
491.259 2.5751 0.469251
77.2162 44.9886 -0.110375
517.698 31.2947 0.329301
526.026 16.7158 0.436518
341.376 22.5879 -0.23109
529.483 25.7123 0.320022
347.759 33.4503 0.498036
238.557 14.7535 -0.310887
431.896 35.8436 0.0896762
661.693 7.36866 0.299841
190.116 6.26509 0.374203
55.0203 7.0204 -0.119807
68.0926 8.98724 -0.303482
672.755 14.5956 -0.54349
23.0064 11.877 -0.272868
604.25 51.742 0.395529
661.825 37.6678 0.331763
170.306 32.552 0.328429
727.588 60.9866 0.165155
34.5547 28.5619 0.119331
529.586 3.02186 0.323202
140.308 7.4668 -0.573214
589.21 37.2979 0.410704
499.628 28.4401 -0.169416
173.032 0.947132 -0.276419
32.2213 2.38807 -0.316285
346.492 17.8876 0.275786
611.872 53.6859 0.131753
458.93 34.8143 -0.17473
396.738 1.02894 0.201706
681.071 7.29617 0.591909
26.2341 43.7746 -0.235773
253.86 30.7462 0.286014
701.284 6.30938 -0.290681
653.336 59.2873 -0.154824
415.055 8.64029 -0.51762
567.089 4.04076 -0.500346
714.288 45.0728 0.406996
129.173 7.79533 0.269543
494.409 26.6892 -0.164058
475.449 15.7164 -0.120023
292.502 16.7914 -0.349066
20.2894 13.862 0.308008
748.595 76.4873 0.339207
331.008 39.2026 -0.291503
663.912 26.3847 -0.409006
671.811 19.5984 -0.224519
742.864 15.0879 0.297533
462.292 35.7836 0.203819
91.5352 39.1857 -0.278731
670.836 48.1853 0.274174
639.767 46.6177 0.160459
758.115 47.8628 -0.120476
738.638 0.735846 -0.533814
289.205 28.7918 0.473725
617.096 8.49668 0.162169
24.1577 5.51035 -0.609182
132.025 39.1481 -0.167881
509.371 15.5351 0.209425
746.188 63.794 -0.509001
193.817 29.142 -0.232805
43.9843 34.6738 0.312827
490.138 1.29103 0.136602
233.983 8.96399 -0.383637
708.606 57.5241 0.264967
735.028 56.7418 0.264991
359.972 21.4526 -0.258637
161.987 27.0832 -0.430397
547.243 39.1153 0.446201
378.349 15.8258 -0.446369
412.129 29.9212 0.120217
376.383 4.58467 0.421967
545.625 10.8708 -0.103258
757.866 16.3272 0.236876
79.4678 39.8439 -0.392127
334.164 4.99092 -0.215627
560.064 9.6377 -0.375903
358.718 44.3411 0.451501
25.6666 25.5333 -0.508662
30.0339 5.90568 -0.295562
567.539 32.6749 0.4036
502.378 25.7931 -0.164732
26.1598 37.5919 -0.433549
92.6947 31.2084 0.234478
324.091 16.0339 -0.286886
596.998 19.4299 0.169866
473.669 39.5375 0.298656
717.841 11.1812 -0.45688
710.317 7.84876 -0.210626
386.404 37.5249 -0.107517
630.075 31.023 0.148627
236.969 17.2242 0.494585
329.597 3.8769 0.458707
102.989 32.0544 0.387235
116.071 25.0539 0.323904
542.612 39.9075 -0.0980717
305.637 19.014 0.461646
690.67 37.0269 0.120146
657.775 57.3223 0.110783
480.345 21.5023 -0.424321
746.91 46.3035 -0.24378
428.685 23.3326 -0.255558
276.021 24.5036 0.303042
660.752 44.4208 -0.304205
278.32 28.5538 -0.449359
577.052 12.7953 -0.210769
332.015 35.9066 0.207336
503.852 12.0992 0.51932
366.683 32.1925 0.0847082
430.726 16.7439 -0.111729
318.209 42.367 0.429099
190.013 30.1889 0.139904
728.604 75.8573 -0.157721
754.514 17.0015 -0.326698
6.0622 12.5184 -0.490076
434.765 22.3818 -0.435068
38.0774 22.8948 -0.0948964
376.839 31.7145 -0.342492
395.637 25.1637 0.262113
75.1214 12.1097 0.502186
51.7538 33.5004 0.423762
225.412 13.5828 0.422036
613.664 42.1945 0.493474
580.153 22.3733 -0.434417
75.0638 21.2004 0.449041
685.734 54.9438 -0.579683
735.536 28.7898 -0.675019
647.376 54.3205 -0.522394
677.153 3.49027 -0.669376
551.198 26.9048 0.426476
585.636 48.2272 -0.48733
512.614 18.9947 -0.407076
752.641 3.98693 0.354816
223.237 24.9578 0.160298
127.935 36.1958 0.231793
247.423 6.55006 0.396415
94.5136 4.46673 0.282339
64.4366 10.2286 0.223606
276.417 36.123 0.335713
16.3258 25.6832 0.413876
557.412 19.8702 -0.507955
603.362 46.4102 0.188969
464.502 21.9407 -0.403172
756.769 87.6059 0.357473
408.176 8.68021 -0.110374
437.401 37.2971 -0.430349
538.083 3.3582 -0.209218
22.8524 24.4767 -0.400701
578.66 4.94903 0.534879
547.859 4.2968 -0.324995
206.132 11.2886 0.490808
426.906 16.5643 -0.21335
312.528 6.30649 0.372993
389.744 19.2985 -0.320975
702.017 53.2309 0.107916
192.322 26.0909 -0.448901
733.009 6.35395 -0.440907
702.797 47.8969 -0.327488
384.917 10.4381 0.196612
698.697 2.26391 0.449311
604.428 28.5506 -0.434486
717.975 30.2175 0.465393
432.328 44.3995 0.278189
498.467 12.7192 0.399222
466.712 45.755 -0.228056
448.29 8.89127 -0.166677
650.656 52.3353 0.267302
649.594 46.8496 -0.346006
192.328 39.5163 -0.365981
741.007 15.9884 -0.135924
587.141 48.6823 0.262878
11.5776 16.8489 0.217086
409.661 25.4479 0.453184
187.397 23.5394 0.399256
93.2505 40.0695 -0.219511
746.174 60.3701 -0.406519
646.114 60.0989 -0.226211
320.811 25.8032 -0.386891
535.16 10.2476 0.325403
82.272 45.1841 -0.168887
248.252 26.0483 -0.503576
559.848 24.1102 0.402712
489.874 19.4011 -0.422873
263.947 0.880097 -0.339983
556.439 40.189 -0.380306
537.003 41.1536 -0.443533
483.834 34.9953 -0.308117
502.058 1.70692 -0.672564
685.167 19.0811 0.470851
179.724 12.6163 -0.207902
503.229 38.0799 0.453853
567.578 40.831 0.115432
73.3985 0.973522 0.276708
252.732 4.73906 0.186225
753.569 18.8636 0.148506
743.349 16.7688 -0.539698
759.206 23.6067 -0.694236
305.133 8.62201 -0.232496
719.293 35.995 -0.417034
409.824 41.9653 0.213337
452.419 0.798567 -0.421994
645.531 40.8135 0.445124
27.1427 31.1866 0.296528
333.105 41.8349 0.57155
253.58 2.87573 0.348159
742.154 79.5692 -0.173823
687.899 68.2631 0.102757
288.854 11.0794 0.247526
655.059 39.629 -0.0968065
562.012 2.61641 0.280291
545.646 6.46096 0.449395
97.2995 18.7338 -0.496358
304.994 1.0402 -0.228905
345.403 2.24015 -0.374361
14.0032 7.60691 -0.462619
4.46083 31.2675 -0.282819
161.849 19.193 0.405358
68.6067 42.0131 0.226605
66.9215 29.144 0.379841
426.541 14.6637 -0.432679
369.597 35.6437 0.478197
725.511 61.6454 -0.1494
19.6903 4.03161 0.266368
71.1323 7.00602 0.132267
622.298 43.5335 -0.132607
296.333 0.925031 0.377398
367.647 16.526 -0.0935976
236.508 4.73638 -0.384804
648.825 25.7004 -0.190409
455.45 8.35809 0.452019
721.821 37.5023 0.462
628.956 34.2207 0.321371
662.762 24.7737 -0.0720735
423.592 26.6147 0.557575
102.591 45.4438 0.322109
546.621 43.0229 0.0760473
717.377 21.2504 0.27434
238.814 30.7142 -0.271486
32.0949 17.5336 -0.21942
338.939 13.829 0.517487
108.201 41.1649 -0.463631
269.312 42.4226 -0.217173
429.087 1.60593 -0.336442
748.811 71.5249 0.359113
672.703 2.28298 0.57771
334.662 3.45099 0.573007
302.23 26.5852 -0.158283
465.643 42.6669 0.24404
82.2147 8.33923 0.471062
198.229 45.6515 0.379258
736.32 60.0953 0.393309
498.445 40.847 -0.0843452
200.733 41.7015 -0.303659
160.994 42.81 0.385225
759.392 41.7759 -0.587826
756.196 16.0518 -0.585222
610.16 3.29954 -0.642386
191.011 24.9724 0.115084
552.827 28.0157 0.114228
554.807 27.6724 -0.280497
412.738 5.69619 -0.142586
485.204 0.968604 0.409092
721.935 63.5441 -0.532514
85.5029 31.6117 0.214439
652.113 21.7758 -0.451137
276.153 15.6559 -0.367654
9.5462 2.34816 0.344977
126.599 38.0496 -0.205194
67.4642 23.4384 0.540182
687.158 39.398 -0.459657
744.356 87.4734 0.163735
186.234 28.8432 -0.19605
751.866 14.6671 -0.395207
45.4973 36.8542 -0.266909
91.5665 29.5288 0.194539
633.795 15.7691 0.37242
417.007 18.6532 -0.537432
522.753 16.7881 0.123488
239.313 28.6937 -0.184792
623.061 4.34124 0.62113
760.156 17.6859 0.474117
29.8027 32.2282 0.300835
272.008 7.79963 0.200498
223.084 15.2412 0.258072
1.05727 35.8191 -0.158978
226.393 14.6269 -0.377799
212.737 11.0695 -0.101739
215.24 26.5144 -0.282563
133.698 28.6093 0.225672
552.161 15.0122 -0.377648
167.63 14.2562 -0.362445
736.481 77.4444 0.229301
174.993 3.84158 0.512221
47.811 37.8497 -0.434469
698.403 63.0414 -0.514274
283.256 31.4446 -0.379518
665.105 34.419 -0.495241
757.659 76.6384 0.467981
303.184 9.24193 -0.105534
707.577 36.8205 -0.457133
331.623 2.50011 -0.435407
419.968 24.1962 0.344539
663.911 18.6987 0.559248
106.478 12.1125 -0.482032
487.164 3.92271 -0.535477
724.452 37.7905 0.188398
89.0217 7.75818 -0.242523
283.86 14.8485 0.199269
427.321 11.8984 -0.208546
752.974 5.8196 0.579857
401.676 1.99583 -0.535464
177.505 39.1879 -0.296948
720.691 21.4282 -0.529738
129.739 37.2132 -0.225048
264.942 31.5332 -0.388353
404.462 21.8796 0.21851
579.657 14.6195 0.38664
390.719 9.91003 -0.507508
460.903 29.0477 -0.427552
725.207 75.3385 0.436328
47.7625 11.3795 -0.126714
301.855 38.716 -0.257087
383.297 27.4216 0.339217
413.786 20.8337 0.286099
527.718 45.1308 0.0625991
716.878 58.6682 0.190583
653.64 47.8296 0.356152
227.206 34.5332 -0.387364
13.7886 32.0968 0.156049
648.154 48.4356 -0.136189
513.783 42.6899 0.466529
230.813 39.676 0.120595
672.006 42.67 -0.125588
151.494 9.33317 0.249003
370.098 21.6837 0.36704
467.443 43.7003 0.103652
417.914 19.9663 0.240792
719.991 75.4105 -0.290796
430.513 3.88217 0.532321
50.0876 25.4291 -0.282691
474.481 32.9317 0.336417
438.682 43.6073 -0.38752
742.152 73.4278 -0.236107
706.4 33.7333 0.2879
545.857 18.3508 -0.209921
734.026 69.9274 0.433007
295.916 2.20989 -0.467172
382.019 29.8821 0.506978
29.2672 39.3551 -0.333051
708.642 38.9929 -0.151264
611.439 21.3181 0.555239
467.243 0.804695 0.467393
126.52 4.68977 -0.359209
430.882 39.9408 0.109131
11.9908 0.902825 -0.316086
752.405 8.05107 0.242114
[...]
POINT_DATA 13483
TENSORS Strain_matrix float
-0.164448 0.116344 1.19244 
-0.14436 0.215332 -3.73465 
0.0148974 0.00476872 0.221726 

-0.219807 0.301968 11.0559 
-0.10114 0.404179 11.13 
-0.00178466 0.000376694 -0.0457168 

-0.0431887 -0.013377 0.227953 
0.0276458 0.0279586 0.282684 
0.0052424 -0.0070934 -0.636684 

-0.23293 0.616392 0.779294 
-0.18565 0.304251 -0.711767 
1.33835e-05 -0.0218552 0.113917 

-0.0358998 -0.0491734 -0.0816007 
-0.00991821 0.00356853 0.0607889 
0.0120752 -0.0336216 0.209642 

-0.00611439 0.00196588 -0.0450294 
0.00355401 0.000924974 -0.00708996 
7.21562e-05 0.000510006 0.0045944 

-0.0159873 -0.016375 -0.0210222 
0.00892973 0.00407599 0.000980316 
-0.00281749 -0.000321731 0.00636652 

-0.0307849 -0.0637601 0.00336333 
0.117553 0.0224666 0.0590853 
0.00116092 0.0039534 -0.00143522 

-0.17165 0.0251496 -0.985415 
-0.158813 0.0829379 -0.569151 
0.0332766 -0.0597147 1.06365 

-0.0381982 -0.100929 0.0545802 
0.120628 0.0294098 0.829511 
-0.00758433 0.00813622 0.203948 

-0.0107722 -0.00235205 0.0131241 
0.00297514 0.00393967 0.00191389 
-0.000773878 -0.000382439 0.0181242 

-0.00730985 -0.0056602 0.00532466 
0.00138547 0.00334667 0.00226749 
0.00039062 0.000221027 0.00157923 

-0.0420734 0.0483465 0.129453 
-0.111874 0.0138305 0.297745 
0.024353 -0.0231578 0.0765342 

-0.115967 -0.0989509 -0.0317387 
0.121978 0.0318993 0.0670578 
0.00230028 0.0596575 0.450808 

-0.126477 -0.0277684 -0.987126 
0.00483154 0.0305391 -1.41558 
0.0257282 -0.0708144 -0.33845 

-0.0125193 -0.0129472 0.115533 
0.028616 0.0184293 0.365571 
-0.0531601 -0.0324716 0.0195068 

-0.00722263 0.00166255 0.00294834 
-0.0021476 -0.00119012 -0.00270978 
0.000367099 0.000109262 0.0100083 

-0.0128414 0.0050446 0.00697533 
-0.000143037 0.00373176 -0.0123206 
-0.000189659 0.000515776 0.0155274 

-0.0275936 0.00951673 -2.11523 
0.000984893 0.0268176 -1.97258 
0.000552582 0.00102072 -0.141457 

-0.00597376 0.00397661 0.0375168 
-0.019987 0.00882719 0.00943108 
0.000620326 0.00424383 -0.077742 

-0.0825372 -0.059801 0.16953 
0.0823883 0.0379142 -0.0261905 
0.00222165 0.00445499 0.0831903 

-0.0797309 -0.102536 -0.0746286 
0.1209 0.0450675 0.246555 
0.000583982 0.000563268 0.0694868 

-0.250517 0.147349 -2.9395 
-0.184523 0.304519 -2.01898 
0.00247579 -0.00191977 -0.129835 

-0.0830174 0.104888 2.63581 
-0.192256 0.115129 2.14746 
0.0254341 -0.0381348 1.36012 

-0.0521755 0.01399 0.265713 
-0.0285958 0.00685275 -0.299788 
0.00760462 -0.0192823 0.104545 

-0.0106053 -0.00455209 -0.0172201 
0.00507855 0.00597718 -0.00543507 
0.000800215 5.14133e-05 0.0100269 

-0.0977137 -0.0672654 0.0754705 
0.153525 0.0162821 -0.182497 
-0.0364298 -0.0126786 0.123606 

-0.400597 0.0644004 -0.521899 
0.541112 0.222121 -0.0181179 
-0.0234218 0.0682305 0.113974 

-0.00347044 0.0139217 0.13885 
-0.00497284 -0.0111481 -0.0341547 
-0.00053309 0.00171527 0.03999 

-0.0403344 -0.0273126 -0.0920863 
0.00298306 0.0122381 0.0720009 
-0.0149696 -0.00848002 0.0481595 

-0.00806954 -0.00623392 0.0357795 
-0.0334593 -0.013933 0.0888055 
0.000619735 -0.00214391 0.0646163 

-0.00920528 -0.00698359 -0.00355595 
0.00409806 -0.00203428 0.00496854 
-0.000214196 -0.000449202 0.0142012 

0.0309012 -0.0687381 -0.171388 
0.110674 0.0144679 -0.0252228 
0.00444826 0.00113191 -0.0538185 

-0.0193779 -0.0126062 0.0395426 
-0.00179438 0.00498912 -0.0223511 
0.000247161 0.00358702 0.0340585 

0.00558438 -0.0274256 0.0796121 
0.0070862 -0.0167702 0.0755542 
0.000674372 0.00281673 0.0162301 

-0.12397 0.0650921 -0.0685674 
-0.128486 0.106771 -0.192025 
0.0141433 0.00890615 -0.00535721 

-0.0153342 0.0176328 0.145813 
-0.0141944 0.00736625 0.306025 
-0.000574877 -0.00346383 -0.0407346 

-0.0150029 0.0027386 -0.0202057 
0.00353458 -0.0079185 -0.0226048 
-0.00107726 0.00029107 0.0239338 

-0.0619905 -0.0330293 -0.141605 
-0.00596528 0.0550489 0.0700972 
-0.038572 0.0445294 0.197553 

-0.0253864 -0.00583366 1.42541 
0.0276032 0.019757 0.574897 
0.00191415 -0.00186638 0.155936 

-0.0161949 -0.00811589 -0.0192621 
-0.00468255 0.00445939 0.00160973 
-0.000874219 0.000418099 0.00779728 

-0.0439483 -0.118978 0.195828 
0.278184 0.0822204 -0.0957395 
-0.0350782 -0.0432624 0.70212 

-0.0459714 -0.29076 -0.0490806 
0.180664 0.0401902 0.110651 
0.0393139 -0.0135877 0.165292 

-0.0206595 0.0479469 -0.0880934 
-0.0180556 0.0152504 -0.14566 
0.00353125 -0.0078303 0.154433 

0.00752968 0.000772484 -0.0150373 
-0.0101709 0.0027169 -0.0140402 
0.0207384 -0.000225787 0.00711625 

-0.00381866 0.00590014 -0.0110671 
-0.0136319 0.00341732 -0.0119895 
-0.000923791 0.000416637 -0.00284988 

-0.253021 -0.103756 0.508634 
-0.261526 0.163926 -0.137526 
0.010604 0.0152049 0.216423 

0.00343879 -0.0150809 -0.00692507 
0.0258479 -0.00273859 0.00420826 
9.10677e-05 -0.000201584 0.000893858 

0.00725578 0.0067071 -0.136513 
0.086712 -0.0144962 -0.0792552 
0.0326341 0.0515381 0.0828483 

-0.0301655 0.0586646 0.965688 
-0.0224109 0.0822516 -1.84418 
0.00165429 -0.00731573 -0.231342 

-0.00915702 -0.016622 -0.0162088 
0.0140395 0.00390355 -0.00376769 
-0.00208158 -0.000580618 -0.00898243 

0.0098663 -0.114822 0.0394138 
0.130278 0.00581801 -0.00697194 
0.000378402 -0.000709583 -0.00447123 

-0.00568077 0.00243545 0.000370015 
-0.000849341 -0.000263732 -0.00409484 
0.000459949 0.000174132 0.00887816 

-0.00932909 0.00760436 0.00182944 
-0.000579583 0.000605536 -0.0379903 
0.00123709 0.00105294 0.00753816 

-0.0309338 0.00257479 -0.485582 
-0.0163482 0.008992 -0.428817 
0.00150076 -0.0019821 0.0270503 

-0.0508799 -0.241094 -0.4849 
0.195979 0.0916136 0.47083 
0.0273818 -0.0148662 -0.0458181 

-0.0898518 0.0273589 -0.400374 
0.0703786 0.0459719 0.483568 
0.0062121 0.0095022 -0.0444161 

-0.0129968 0.101535 0.258671 
0.00286035 0.0168664 -0.103106 
-0.0111881 -0.0109531 0.844096 

-0.00730709 -0.0577669 -0.221964 
-0.0145531 0.0184509 -0.045563 
-0.00110176 0.000571682 0.0173578 

-0.00518944 -0.00365983 0.00425979 
0.0121757 -0.00518605 -0.00904619 
8.46783e-05 0.000497719 0.0161775 

-0.544408 -0.521809 0.27312 
0.299129 0.503646 -0.750621 
0.0238839 0.06821 0.88762 

0.0231167 -0.0628406 -0.0187898 
0.060357 -0.0340313 0.152337 
0.00522204 -0.0018997 0.0963855 

-0.010376 -0.00332822 0.0148602 
-0.00343884 0.00157667 -0.00717233 
0.000335891 0.000391697 0.0136119 

-0.0846842 -0.110772 -0.753895 
0.047575 0.00284418 -0.26673 
-0.0110926 0.0066775 -0.0470394 

-0.0120759 -0.0015092 -0.0037803 
0.00275472 0.00431069 0.00201295 
-0.00181392 0.00831354 0.039618 

-0.0157141 0.00311023 -0.0105977 
-0.00274791 0.0095037 0.0166422 
-0.00708353 0.0077726 0.0362365 

-0.0678375 -0.205173 0.457592 
0.131373 0.0619551 -0.001727 
-0.0306136 -0.0439045 0.0634216 

0.03584 -0.0330122 0.0607084 
-0.0423851 -0.00472463 -0.160016 
-0.000396788 0.000670761 -0.0367794 

-0.0054096 0.00405742 -0.324096 
-0.0064852 0.00344753 0.491914 
-0.000267056 -0.00053932 0.105545 

-0.136568 0.12589 -0.324935 
-0.071449 0.0126646 -0.284004 
-0.0351756 -0.0566315 0.415445 

-0.0264881 -0.129433 0.0229172 
0.0976293 0.0216035 -0.00245863 
-0.000417039 0.0348487 0.0462836 

-0.0258128 0.0239165 0.0195561 
-0.0345793 0.0221669 0.00502275 
0.000911922 -0.000220014 0.00821051 

-0.0479741 0.149203 -0.418314 
-0.269124 0.11958 0.0355919 
0.0725684 -0.0598473 0.672135 

-0.0920016 -0.0175163 0.122993 
-0.0140898 0.145846 -0.540708 
0.0148874 0.0700393 0.448693 

-0.0053587 0.00400386 0.0489895 
-0.000472892 0.00257125 -0.0224247 
-0.000346758 -6.92641e-05 0.0201121 

-0.023649 -0.0130563 -0.0157611 
0.0166574 0.016284 -0.0175422 
-0.00335536 0.00113 0.0265831 

-0.00127046 -0.0212802 0.0133236 
0.0764088 0.0172152 0.0107892 
0.00169542 -0.00248578 -0.00656606 

0.00902858 0.0236767 0.0525777 
-0.00813474 0.00178256 0.00156286 
0.00201696 -0.000526158 -0.0158214 

-0.927161 -0.610022 -1.30417 
0.370709 0.442767 0.656584 
0.0338763 0.0827924 0.494873 

-0.161396 -0.225921 0.148628 
-0.012372 0.118834 0.0178922 
-0.00607866 -0.0120018 0.040665 

-0.0439532 -0.132299 0.0359019 
0.0165912 0.061208 0.184502 
-0.0219693 0.0209294 0.121874 

0.0112221 -0.0888452 -0.665325 
0.0500283 0.0700719 -0.486694 
-0.00260081 0.0237792 0.0228232 

-0.00862906 -0.00372907 -0.013454 
0.00937869 0.00127965 0.0402261 
0.000373973 -0.000378516 0.0119595 

-0.218195 -0.0195148 0.107536 
-0.00214685 0.15831 -0.420573 
0.0254837 0.0899462 0.137979 

-0.0289671 0.0583967 -0.0379125 
-0.0958332 -0.0431745 0.0660268 
-0.0162761 -0.0206679 0.0975646 

0.0217917 -0.000375209 -0.016328 
0.0218685 0.0125015 0.0436625 
-0.0185312 -0.0155298 -0.0479455 

-0.0943882 2.72357 2.6711 
-0.0295584 1.03892 1.43891 
0.00368078 0.154169 0.51582 

-0.0104875 0.00305864 -0.0130071 
-0.0146559 -0.00601721 -0.0369626 
0.00310775 -0.00100942 -0.00423698 

-0.185188 0.0527938 0.220137 
-0.166589 0.0139646 -0.0866504 
0.0698097 0.0672336 0.3736 

-0.0153936 -0.0128802 -0.54485 
0.00241142 0.000849193 -1.95119 
-0.000281375 -0.000147317 0.248998 

-0.00659997 -0.00645063 -0.00171887 
0.000124548 -0.000955577 -0.00334842 
-2.28328e-05 0.000402016 0.01005 

-0.120039 0.143358 -0.167073 
-0.0504176 0.109976 -0.0460234 
-0.0145213 -0.000246207 -0.0307111 

0.00344754 -0.10895 -0.627029 
0.0965811 0.0115917 0.634122 
-0.000129466 0.000535647 -0.0556898 

-0.00438387 0.00311831 -0.00890007 
-0.00687277 0.000508166 0.000465754 
0.00228021 -0.00228002 0.00484703 

-0.00659147 0.00329777 0.0519211 
-0.00504563 0.0012631 0.00859554 
0.000115256 -0.000513507 0.0153239 

-0.0197081 -0.00839037 0.0152705 
-0.000379173 -0.00436192 0.0130474 
-0.00241713 -0.00912958 0.0322071 

-0.0112615 0.000273333 0.0243878 
0.00352417 0.00191333 -0.0148909 
-0.000305126 -0.0002566 0.0206681 

-0.00576127 -0.318071 -0.382293 
0.0142859 0.0523894 0.0249295 
-0.00239447 -0.00470357 -0.00147591 

0.00565693 -0.0901713 -0.00436287 
0.103549 0.00814815 -0.0608782 
-0.000703768 0.000388286 -0.0114177 

-0.0256989 -0.0161032 0.0991486 
0.0339208 0.019927 -0.0138114 
0.026378 0.00567149 0.148822 

-0.00939068 -0.0113329 -0.031675 
0.000320307 0.00921643 0.033678 
-0.00957624 -0.0054059 0.0585507 

-0.0649197 0.0909176 -0.442766 
-0.0794973 0.0538911 -0.0710004 
0.00328245 0.0103638 0.218619 

-0.0344214 -0.0055179 -0.350586 
0.00296498 0.0187799 -0.133147 
-0.0180963 -0.00121899 -0.0296958 

-0.034223 0.0265415 0.103335 
0.0396183 -0.0276321 -0.00660431 
-0.00167518 0.017467 0.200945 

-0.0332417 0.0361648 0.0870232 
-0.0269346 0.0140449 0.523486 
3.3675e-05 0.00074509 0.161084 

-0.0081531 0.00147325 0.0110535 
0.00450446 -0.0086294 0.00346939 
-0.00212141 -0.000270544 0.031742 

0.0335486 -0.209905 -0.293296 
0.313374 0.000552716 -0.249267 
0.00278388 0.00288008 0.151414 

-0.0335614 0.0268563 -0.210056 
0.00359325 0.0213105 0.0951806 
0.0175101 0.0117359 -0.0835021 

-0.0112894 0.00335317 -0.00240572 
0.00466988 -0.00367153 0.00375705 
0.000506794 0.000445647 0.0284453 

-0.0189536 -0.0148164 0.117594 
0.0383344 -0.00288371 -0.104383 
-0.000588169 -0.000625555 -0.0127956 

-0.000859177 0.0113179 3.59924 
0.00495284 -0.00398168 -0.0610092 
0.000423821 -0.000523385 0.133207 

-0.00871336 -0.000435783 -0.281327 
0.00305397 0.00239081 -0.0860797 
0.000255797 -7.33501e-06 0.0675579 

-0.00652146 0.0301592 -0.0496787 
-0.0379294 0.022472 -0.0632244 
0.010821 0.00439001 0.0176446 

-0.0583725 -0.0135128 -0.0607863 
0.00347066 0.029049 -0.175486 
-0.0273126 -0.0364558 0.134654 

-0.0374383 -0.0866211 -0.373367 
0.0201788 0.0199987 0.0434132 
-0.0620711 -0.00564637 0.866539 

-0.00736274 0.000167137 -0.0921168 
0.00385041 0.000825258 0.00510493 
-0.000463951 9.67213e-06 0.0320161 

-0.0171335 -0.0112402 0.0240925 
0.00363257 0.00813476 -0.00564785 
-0.00233958 0.0038318 0.0237395 

-0.0184269 0.0174671 -0.00457469 
-0.0300288 -0.00311332 -0.0102283 
-0.00464544 0.000294576 0.0449576 

-0.23066 -0.535811 -0.544962 
0.116971 0.171925 0.00360361 
0.101385 -0.0149149 0.273333 

-0.0330513 -0.0552388 0.24639 
0.0839455 0.0541724 0.740459 
-0.00227649 0.00774626 0.0283916 

-0.0797048 -0.0515796 -0.00777485 
0.178014 0.239502 0.174922 
0.00668645 0.0149903 -0.115564 

0.00822745 -0.0741278 0.0963595 
0.183425 -0.0115674 0.0357831 
0.00256093 -0.00315753 0.0479462 

-0.00449668 0.00175559 -0.00608525 
-0.00307133 0.00185039 0.0155738 
0.000536978 -0.000557183 0.00542654 

-0.0346339 -0.112523 -0.0112072 
0.0779081 -0.0261693 0.0388344 
0.00199344 -0.013206 0.105836 

-0.0092215 -0.00882703 0.346489 
0.00226662 0.00332086 -0.11308 
-0.0110579 0.0117312 -0.422689 

-0.00780038 0.00271429 -0.00796724 
-0.0050279 -0.00555071 0.022572 
-0.000193276 0.000203147 0.0157321 

-0.00737455 -0.0034659 0.00703944 
0.00759446 0.00240049 0.00443351 
0.00261271 0.00439747 -0.0149122 

-0.0149134 0.00446756 -0.113354 
0.0254474 -0.00750712 0.121469 
-0.000346376 0.000609836 0.020797 

-0.111253 -0.0655284 -0.348947 
0.0623422 0.0737083 0.223452 
-0.00351385 -0.00662274 -0.0156445 

-0.00885115 0.0104355 -0.0701152 
0.00468864 0.00530076 0.11585 
0.000172159 -0.000920888 0.0472564 

-0.023342 0.115127 0.460272 
0.0984724 0.0327222 0.216514 
0.00336983 -0.0079447 0.0376453 

0.016068 0.00930629 -0.00143294 
-0.00999516 -0.000882307 0.0046994 
8.6421e-05 0.000534157 -0.0221322 

-0.014092 0.00267931 -0.146179 
0.00346535 0.0209658 -0.564271 
-0.015989 0.0354657 0.824603 

-0.0392715 0.0407777 -0.018626 
0.103041 0.0327019 0.149351 
-0.00791944 -0.00600428 -0.0300748 

-0.014159 0.0194857 -0.00820331 
-0.0229384 0.000731362 -0.00582352 
-0.00123463 -0.0019356 0.026129 

-0.0183031 0.00320649 0.0186768 
-0.00210412 0.00321512 -0.0257278 
-0.0238 -0.00843647 0.238934 

-0.106809 0.0103197 -0.278451 
-0.0120148 0.0759177 0.151911 
0.0145075 0.00228847 -0.0101845 

-0.00901585 0.00719316 -0.0246514 
-0.00813408 -0.0019579 -0.046649 
0.0013486 0.00280379 0.0418195 

-0.0220491 0.132331 -0.161179 
-0.0799906 0.00634098 -0.070451 
-0.00266235 0.0468672 0.189686 

-0.0115436 0.0437232 -0.009768 
-0.0076665 0.00536983 0.00418129 
0.000885103 -0.000323543 -0.0152992 

-0.0302774 -0.0906459 -0.569379 
0.00713145 0.0526124 -0.120465 
0.050157 -0.0529375 -0.22158 

0.00246394 -0.0221961 -0.0408911 
0.00680288 -0.00934189 -0.00259667 
-0.0484347 0.0504293 0.110448 

-0.00232921 0.000923527 -0.000616643 
-0.00477752 -0.00477138 0.00322691 
-0.00291669 0.000179898 0.0174826 

0.00378347 0.00215905 0.0213785 
0.00189716 -0.0041421 -0.104538 
-0.000542133 -0.000397177 -0.000264501 

-0.00686697 0.00164521 -0.00135751 
-0.00425456 0.00130383 -0.00883505 
1.74356e-05 -0.000427165 0.0032711 

0.00776157 -0.0975079 -0.00484772 
0.105515 0.00705906 -0.00344125 
4.93801e-05 0.000439969 -0.0193063 

-0.485293 -0.170438 0.026118 
0.00305009 0.305941 -0.0902377 
-0.0105202 0.0401593 0.0522207 

-0.00114946 -0.00644107 0.123318 
0.00796974 -0.00171865 -0.146204 
0.000979428 -0.000693758 0.0328227 

-0.0203075 0.00123071 -0.101666 
-0.00486323 -0.00658855 0.0856161 
-0.00297843 -0.00240032 0.0817508 

-0.00792136 0.00307265 0.0114972 
-0.00626803 0.000315195 0.00310901 
0.000383417 4.0506e-05 0.0108581 

-0.0134952 0.00407717 0.00410289 
-0.0220547 -0.000607447 0.00824492 
0.0016049 0.00243339 0.0405086 

-0.00399883 0.010102 -0.00317933 
-0.00234822 0.00127404 0.00643442 
0.000807438 -0.00310136 0.00335855 

-0.00661539 0.00537622 0.00677823 
-0.00250413 0.00201606 -0.062898 
0.000164243 0.000134862 -0.000211163 

-0.00789037 0.00162738 0.0362813 
-0.00685137 0.00217363 -0.0001744 
-3.60586e-05 -0.000633354 0.00429723 

-0.0143113 0.00038833 0.00223509 
0.00433443 0.0061141 0.0341605 
0.00786861 0.00481578 -0.00546847 

-0.158091 0.0614839 5.93408 
-0.00338173 0.191295 4.94487 
-0.00443082 -0.00705857 -0.51236 

-0.0342242 0.0330307 0.660317 
0.0163432 0.140636 -0.364651 
0.0215712 -0.0081596 0.188747 

-0.00188771 0.00356344 -0.0465234 
-0.00194671 -0.00238104 -0.0190451 
-0.000116785 0.000574764 0.0194465 

-0.24661 -0.0193964 1.19314 
-0.0853746 0.105549 4.75502 
0.00239074 -0.000777548 -0.639183 

-0.197474 -0.104352 5.53374 
-0.0334511 0.0872281 11.2006 
7.66759e-05 -0.0016212 -0.0850065 

-0.106303 -0.170858 2.93863 
-0.0287846 -0.0012044 4.8739 
-0.0113463 0.0330371 -0.425042 

-0.103641 -0.137963 -2.92237 
0.0208094 -0.047547 -0.66859 
-0.0167148 0.000861807 0.177744 

-0.117207 -0.148797 0.395431 
0.104834 0.0509753 0.468773 
0.0257122 0.00971642 0.154297 

-0.0704034 -0.184032 0.0519733 
0.0658554 0.272548 -1.21897 
0.000703071 0.00164824 0.151888 

-0.0331727 -0.0396442 0.296694 
-0.131435 0.0170741 0.285374 
-0.0747076 0.0650578 0.272576 

-0.382738 0.448945 -0.293605 
-0.263217 0.310953 -0.763121 
0.0807616 0.0297092 0.233282 

-0.0193073 -0.0134413 -0.00400236 
0.00826179 0.00518784 0.0240424 
-0.000705622 -0.00161309 0.000666096 

-0.00816973 0.0085514 0.0198802 
0.0118 0.00502115 0.0132228 
-0.000497048 -0.000205349 0.00899385 

-0.00942087 0.00114594 0.0167002 
0.00286475 0.00527488 -0.0227613 
-0.000343522 -0.000493549 0.00733611 

-0.00797355 -0.00318969 0.00129838 
0.00373487 2.97304e-05 0.00380973 
-7.41074e-05 0.00150016 0.0437299 

-0.0202898 0.0160662 0.0273511 
0.00455925 0.0114418 -0.029781 
0.0227328 -0.0228764 0.2647 

-0.0084318 0.005947 -0.0164409 
-0.00101638 0.000292769 -0.0292461 
-0.00105117 0.000545964 0.0278844 

-0.00770887 -0.00751589 0.186812 
0.00406972 0.0015867 0.0383001 
-0.000361121 -0.00164411 -0.00340474 

-0.06285 -0.0653361 -0.225499 
0.0442057 0.0419102 -1.32286 
0.00810112 -0.00779389 0.00432408 

-0.139856 0.299542 0.164267 
0.010205 0.0979465 -0.641403 
-0.00960375 -0.0502599 0.194224 

-0.00699382 -0.05562 0.00241384 
0.0503128 -0.0012136 -0.0627138 
-0.00339594 -0.00127813 0.0174204 

0.0308181 0.0494537 0.198195 
0.000113509 -0.0165485 -0.126062 
-0.000421582 -0.00314441 -0.0682228 

-0.00133784 -0.00430037 -0.00336965 
-0.002671 -0.00251976 -0.00264277 
0.000162369 -4.55966e-05 0.00688547 

-0.0412306 0.0096013 0.533287 
-0.0796151 0.0442855 0.0358394 
-0.0154849 0.00280784 0.170059 

-0.00487071 0.00508104 0.0140981 
-0.00548892 -0.0145977 -0.00487765 
0.00153836 0.000972654 0.0338485 

-0.00916356 -0.00338598 -0.00744307 
0.00921598 0.00352554 -0.00620849 
-0.00158119 0.00334904 0.0153591 

-0.131346 0.0853043 1.64202 
-0.0867404 0.134309 0.303337 
-0.0235114 -0.0276056 1.14303 

-0.00542949 -0.00565107 -0.00022606 
0.000969739 -0.00765454 -0.0137704 
0.000399608 0.000421595 0.024489 

-0.00763752 0.000155875 0.277153 
-0.00264185 0.00134755 0.185645 
0.000205076 -0.00372189 0.0348538 

-0.0164568 0.0150757 0.00883985 
-0.0221438 0.00437133 0.0108776 
0.00367962 -0.00209541 0.0177607 

-0.0147302 -0.00262919 -0.0179731 
0.000501099 0.0020658 0.0285338 
0.000691983 -0.000131632 0.0254799 

-0.00186061 0.00707275 -0.0102682 
-0.00700972 0.00425001 -0.00704518 
1.78549e-05 -0.000420328 0.00511119 

0.0214831 -0.454597 0.234387 
0.205435 0.122819 0.0752555 
0.00320331 -0.0152404 0.0332622 

-0.00790445 0.00111371 0.0325348 
-0.00501627 0.00201182 0.039222 
0.000957535 9.76603e-05 0.0255583 

-0.0306329 -0.134531 -0.498481 
-0.0115007 -0.00464902 -0.433646 
0.0105886 -0.00694718 0.012899 

-0.169647 -0.0253989 0.192767 
0.00985084 0.179683 1.22375 
0.00488663 0.00103286 0.0103683 

-0.0435774 0.00192998 -0.0639189 
0.0328248 0.0277851 0.0542835 
0.00144013 0.00315169 0.0221789 

0.00459712 -0.027928 0.689413 
-0.046336 -0.0557251 0.11298 
-0.00846446 -0.0148928 0.0547561 

-0.143334 0.202316 -0.169344 
-0.371172 0.17535 0.553806 
-0.0265433 0.00662355 0.338586 

-0.0602607 -0.203017 0.0196705 
0.140081 0.0938755 -0.160842 
-0.0238575 -0.000406062 0.11862 

-0.151852 -0.0712688 -0.140946 
0.224188 0.111221 -0.365271 
-0.00636096 0.00148966 0.146629 

-0.0108803 -0.119189 -0.0493818 
0.121624 0.0248638 -0.0717837 
-0.120352 0.0790254 0.528568 

-0.0656166 -0.0429637 0.0914075 
0.0113208 0.0903252 -0.281305 
0.0105625 -0.122029 -0.0118335 

-0.0639709 0.0565845 0.0682596 
-0.0354426 0.0329038 0.0374581 
-0.0283272 -0.0528286 0.241692 

-0.117609 -0.0172165 -0.0954763 
-0.0449317 0.156854 0.0369201 
0.00235838 0.0590817 0.883814 
