# vtk DataFile Version 3.0
Output file generated by Yade's KinematicLocalisationAnalyser
ASCII
DATASET UNSTRUCTURED_GRID

POINTS 13483 float
626.894 27.8959 0.511585
803.06 61.6965 0.446225
122.06 6.06627 -0.465139
833.562 5.50529 0.374313
510.621 7.78015 -0.262209
320.397 34.9799 -0.465759
159.091 6.88452 0.436066
585.992 10.1021 0.147283
507.086 23.4709 -0.203847
756.473 11.7064 -0.416814
214.021 8.83303 -0.0837978
261.525 6.29828 -0.259693
678.271 28.356 -0.177322
656.061 14.1927 0.0783534
139.461 17.2189 0.418963
225.143 34.6629 0.408872
221.423 12.9234 -0.294757
294.026 9.67447 0.394942
347.26 32.7113 -0.507617
536.924 8.58336 0.348888
418.823 36.5804 0.098485
609.967 44.3256 0.255728
833.395 33.824 -0.551197
730.157 41.6643 -0.477085
468.345 16.1785 0.290398
245.058 44.2988 0.1367
502.041 27.5402 -0.492749
603.674 19.9233 0.234546
45.919 15.5692 -0.40013
751.498 31.3732 0.0217402
492.934 4.94237 0.31426
16.8824 23.5871 -0.302975
818.097 61.6435 -0.258687
506.327 2.52023 0.466166
79.3925 44.5061 -0.105767
533.978 29.9957 0.359074
543.604 16.5458 -0.40365
350.424 22.622 -0.214423
546.992 25.2277 -0.344034
357.114 33.4327 0.468723
245.269 14.674 -0.303111
443.009 35.5946 0.0758957
705.112 7.01067 0.172689
195.899 6.26504 0.346294
56.4653 6.97668 -0.128145
69.8688 8.90899 -0.309117
722.601 8.97847 -0.455907
23.7448 11.6289 -0.278517
631.4 44.2282 0.354988
706.957 23.9823 0.413046
175.673 32.3833 0.29089
802.318 46.0806 0.162433
35.559 28.1737 0.11444
547.596 2.96404 0.32661
144.544 7.45081 -0.502241
612.487 33.7959 0.438219
515.737 26.6614 -0.159207
178.187 0.941723 -0.267132
33.1972 2.38889 -0.310842
355.574 17.8406 0.271429
642.482 45.5713 -0.139577
472.095 33.5052 -0.18915
407.399 1.02727 0.198353
733.671 7.67248 0.356934
26.9797 43.2857 -0.235859
260.978 30.4927 0.28564
756.721 7.33329 0.220628
698.855 44.8121 0.354655
426.198 8.63931 -0.50193
586.893 3.53514 -0.345271
784.946 34.1904 -0.394115
133.024 7.7044 0.283452
509.739 25.7927 0.150788
488.55 14.8977 -0.150646
300.305 16.7354 -0.342912
20.9124 13.5764 0.282966
827.295 54.5961 0.338004
339.445 38.8464 -0.296884
704.767 20.556 -0.374098
722.125 12.8466 -0.273649
820.178 13.5056 0.273629
475.597 34.3745 -0.166623
94.0261 38.6527 -0.273682
716.699 34.9136 -0.229166
674.408 39.5145 0.10817
839.114 40.5662 0.144455
813.373 0.779163 -0.474756
296.995 28.7536 0.459075
644.522 6.35636 -0.119705
24.6516 5.26266 -0.534126
135.484 38.2146 -0.172158
525.649 14.5746 0.227339
820.364 43.4835 -0.520212
199.512 28.8181 -0.229877
45.1806 34.2784 0.303433
505.251 1.16468 0.134606
240.577 8.95582 -0.372602
783.241 46.2301 0.264085
808.122 39.8627 0.28543
369.267 21.0649 -0.262502
167.267 26.8325 -0.461085
566.137 38.1494 0.42748
388.551 15.6159 -0.448988
423.082 29.5406 -0.0928395
386.59 4.53005 0.412101
564.364 10.8378 -0.0963602
837.87 11.4704 0.17163
81.7243 39.4382 -0.395759
342.975 4.98967 -0.200351
579.308 9.47313 -0.353912
368.528 43.8087 0.449694
26.5094 25.139 -0.491972
30.853 5.76277 -0.33079
587.687 31.9766 -0.421251
518.727 24.3054 0.149015
26.9885 37.2191 -0.427523
95.0484 30.7434 0.223674
332.656 16.0044 -0.278383
622.499 18.9362 -0.147829
487.976 37.7291 0.31563
776.226 7.94841 -0.377032
767.087 6.02697 -0.207249
396.553 37.0534 0.0921638
662.494 25.4421 0.118866
243.758 17.1102 0.492447
338.267 3.87726 0.459136
105.941 31.5844 0.358876
119.121 24.3903 0.284404
561.317 38.3653 -0.0880078
313.684 18.9111 0.459427
747.084 35.2021 -0.104218
702.962 44.0782 0.119644
494.319 20.4586 -0.423012
817.12 25.8483 0.266342
440.263 23.3153 -0.237194
283.535 24.3392 0.297177
705.909 31.6111 -0.301619
285.861 28.3718 -0.431691
597.867 12.1201 -0.187015
340.597 35.5761 0.209146
520.051 11.2574 0.468763
376.442 31.5427 0.0919522
442.424 16.7412 -0.108886
326.579 41.9091 0.357676
195.672 29.8931 0.134286
807.673 60.1945 -0.159351
833.971 12.5797 -0.352897
6.15296 12.4854 -0.482149
446.56 22.4037 -0.420169
39.1456 22.516 -0.088841
386.726 31.2407 -0.295958
406.085 24.8807 0.250577
76.9204 11.9893 0.501435
53.1352 33.1704 0.422119
231.875 13.5174 0.417679
644.463 37.7816 0.524445
599.985 21.0112 -0.488997
76.8998 21.0276 0.405344
732.718 45.0897 -0.461139
802.393 13.649 -0.604812
690.81 40.6885 -0.496977
728.897 2.39184 -0.371544
570.554 26.4538 0.418383
611.522 44.9527 -0.436815
529.565 18.0521 -0.411809
831.444 3.03578 -0.202515
229.672 24.8662 0.145823
131.11 35.561 0.228505
254.3 6.46404 0.380188
96.994 4.41796 0.280998
66.1901 10.065 0.198663
283.848 35.8914 0.325694
17.0284 25.336 0.402257
576.898 19.3633 -0.401489
631.003 39.1339 0.2386
477.698 21.0443 -0.382328
838.78 62.787 0.365486
419.21 8.60211 -0.104938
449.607 35.9399 -0.386185
556.322 3.44251 -0.185507
23.6402 24.1416 -0.39392
600.385 4.46246 0.473601
566.529 4.33366 -0.289402
212.21 11.2949 0.488306
438.511 16.537 -0.194941
320.83 6.34132 0.342279
400.084 19.0591 -0.320504
774.233 42.7985 0.144864
197.95 25.8269 -0.445823
807.674 6.57693 -0.370578
772.838 37.8538 -0.470815
395.282 10.1966 -0.161055
753.825 2.33769 0.454238
630.819 25.1127 -0.301019
782.533 19.9512 0.489343
444.859 42.6689 -0.310822
514.326 12.6439 0.383674
480.997 43.9729 -0.224622
460.273 8.60936 0.122298
694.343 39.9028 -0.319422
691.87 36.054 0.289832
198.054 39.1674 -0.360589
818.132 14.0275 -0.106099
613.336 45.013 -0.161768
11.831 16.7736 0.224096
420.395 25.1858 0.384122
192.976 23.2718 0.396963
95.7532 39.5237 -0.213037
819.074 40.365 -0.466411
688.792 45.7943 -0.246364
329.367 25.5598 0.338728
553.051 10.1681 0.320551
84.5331 44.6703 -0.167695
255.225 25.8869 -0.49812
579.524 23.6395 0.387833
504.152 18.6637 0.376047
271.035 0.887786 -0.344099
575.604 39.5421 -0.370039
554.606 40.4719 -0.468613
498.865 33.1027 -0.339513
517.391 0.819053 -0.534273
740.399 18.7024 0.392048
185.069 12.3186 -0.194557
518.74 36.4103 0.448484
588.489 39.6554 0.138066
75.3338 0.946869 0.272554
259.716 4.726 0.179677
833.319 14.387 0.256226
820.877 15.1587 -0.534841
840.903 16.6242 -0.678471
313.244 8.58888 -0.229154
786.364 26.0316 -0.367988
420.668 41.3039 -0.30996
464.58 0.812233 -0.402718
679.809 35.9287 0.444067
28.0593 30.7888 0.297528
341.504 41.5037 0.577048
260.573 2.85841 0.332912
821.812 59.4321 -0.195691
750.3 47.3702 0.31146
296.636 11.0151 0.235179
699.073 29.8236 -0.101447
581.12 2.6551 0.300618
564.247 6.41344 0.419536
99.6985 18.4272 -0.511652
313.131 1.03308 -0.225523
354.444 2.25219 -0.368521
14.2738 7.60545 -0.448904
4.54237 30.942 -0.267542
166.954 18.9086 0.368283
70.3013 41.7973 0.218089
68.7071 28.9439 0.371054
438.172 14.6619 -0.434252
379.411 35.0023 0.476163
800.485 47.2352 -0.140414
19.9804 4.02807 0.266749
72.9483 6.915 0.126037
654.185 37.2393 -0.199242
304.322 0.918089 0.361637
377.263 16.2165 -0.0925717
243.233 4.71313 -0.3926
685.166 21.2588 -0.210502
467.81 8.31079 0.420281
789.988 25.658 0.453486
661.685 28.8294 0.344947
703.475 18.9092 -0.111728
434.872 26.5113 0.533106
105.339 44.7763 0.319277
564.989 41.9314 0.0741819
780.33 14.7135 0.23281
245.615 30.4775 -0.26474
33.035 17.1303 -0.201236
347.879 13.8502 0.508586
111.054 40.4989 -0.460881
276.611 42.2017 -0.209857
440.495 1.59766 -0.29472
825.697 49.9107 0.367927
721.664 0.794251 0.541768
343.494 3.43026 0.554989
310.212 26.4665 -0.154398
479.814 40.8334 0.224484
84.346 8.1809 0.357472
204.253 45.1709 0.377615
810.21 42.6986 0.455804
513.863 38.9394 -0.0822144
206.754 41.3397 -0.262398
166.298 42.5338 0.329983
841.565 35.6546 -0.515162
836.256 12.1457 -0.602531
634.714 3.47238 -0.455668
196.619 24.7034 0.109996
572.403 27.4141 0.104767
574.454 27.1978 -0.268485
423.848 5.67971 -0.139441
500.106 0.923862 -0.298598
797.667 50.0784 -0.539566
87.7309 31.1688 0.221244
690.907 19.0536 -0.422357
283.675 15.5575 -0.347592
9.75202 2.3438 0.34762
129.768 37.1935 -0.193789
69.2087 23.2906 0.517375
740.691 35.877 -0.357489
826.702 65.7307 0.170675
191.849 28.562 -0.194147
829.32 11.8529 0.406474
46.6689 36.4544 -0.265291
93.8973 29.0936 0.182401
665.655 12.6633 0.548157
428.355 18.3683 -0.463499
540.253 16.5634 0.127297
246.144 28.4774 -0.182276
651.95 4.46073 -0.374765
840.688 10.7043 0.330386
30.7491 31.8362 0.288146
279.433 7.72696 0.194064
229.514 15.1723 0.253868
1.07696 35.5353 -0.148341
232.858 14.5678 -0.365398
218.931 11.0564 -0.10343
221.506 26.4226 -0.272236
137.483 27.9454 0.147513
571.105 14.9516 -0.353265
172.777 14.1521 -0.361475
815.818 59.3274 0.246659
180.207 3.82326 0.507597
49.062 37.4467 -0.416783
774.117 53.5033 -0.432291
290.893 31.2867 -0.37741
712.941 23.221 -0.558126
836.288 52.3367 0.452545
311.28 9.20319 -0.106785
774.556 29.8175 -0.395254
340.376 2.5383 -0.404904
431.253 24.0254 0.346195
709.265 15.8931 0.468821
109.063 11.9514 -0.466885
501.841 3.79458 -0.523071
792.746 25.1247 0.264773
91.4042 7.68653 -0.227848
291.512 14.7802 0.201532
438.964 11.8469 -0.206679
829.905 3.64575 0.602029
412.378 1.93581 -0.535855
183.035 38.9031 -0.288259
783.163 12.7298 -0.356008
132.942 36.5397 -0.209477
272.206 31.3429 -0.385499
415.052 21.6485 0.217546
600.34 14.0394 -0.318707
401.207 9.76851 -0.488868
473.922 27.5445 -0.336028
804.205 60.6486 0.396788
49.1484 11.0304 -0.111833
309.933 38.478 -0.255416
393.476 26.9978 0.345821
424.689 21.0207 0.249476
542.616 43.8888 0.356374
791.658 46.7079 -0.186532
697.979 35.5881 -0.376873
233.769 34.2696 -0.378631
14.3758 31.5022 0.167537
690.211 37.0755 -0.135957
529.616 40.9575 0.44473
237.489 39.3954 0.111597
719.207 30.7464 0.108841
156.318 9.26194 0.219568
379.864 21.3825 0.329548
481.62 41.8944 0.103245
429.306 19.782 0.214156
799.223 61.9251 -0.290827
442.027 3.85308 0.499605
51.3844 25.1293 -0.284772
488.311 31.474 0.35764
451.371 41.9114 0.353269
820.104 53.8466 -0.228203
772.076 28.5465 -0.301637
564.616 18.2893 -0.193878
810.98 52.8983 0.438333
303.857 2.20638 -0.462153
392.206 29.4347 0.492107
30.1632 38.9471 -0.321252
776.706 31.1603 -0.224691
639.184 19.5403 0.5121
480.993 0.778247 -0.474198
130.455 4.5809 0.267364
442.651 40.0709 0.111598
12.2133 0.912228 -0.315368
829.015 5.85107 0.276728
[...]
POINT_DATA 13483
TENSORS Strain_matrix float
-0.0263091 -0.00480301 0.0652958 
0.0269156 0.0312297 -0.71083 
-0.0115588 0.0045038 -0.014025 

0.0339846 -0.191546 -0.312118 
0.171205 0.0315162 0.432969 
-0.00302796 0.00236753 -0.0166687 

-0.0242414 -0.00340322 -0.332049 
0.0200763 0.0181893 -0.246583 
0.00193313 0.00354147 1.72969 

0.00374694 0.00213288 -0.0211312 
0.00641027 -0.016552 -0.00853972 
0.00330361 0.0016401 0.00304092 

-0.0756216 -0.00522172 0.034141 
0.0149152 0.0378655 -0.131717 
-0.0291566 0.0347047 0.199313 

-0.00964087 -0.0122614 -0.0551313 
0.00775765 0.00112121 -0.0626625 
0.000301772 -7.86356e-05 0.0351115 

-0.0105396 0.00630953 -0.00969455 
-0.00434177 0.00480947 -0.00993278 
0.000762787 0.000546166 -0.00439382 

-0.00744595 -0.0165893 0.0101256 
0.0150447 0.00747649 0.00869848 
0.000480398 -0.00112132 -0.0117484 

-0.0436868 -0.0242004 0.0894615 
0.0197945 0.0168928 0.0595895 
0.00236605 -0.00810454 0.0896165 

-0.0144965 -0.0518137 0.0818538 
0.015017 -0.0157433 -0.0174614 
0.00198884 -0.000768887 0.0610042 

-0.0102225 0.00292571 0.00744449 
0.00616091 0.000901604 -0.00655856 
0.000199838 -6.75555e-07 0.0140544 

-0.0128663 -0.0037491 0.00466276 
0.00568497 0.0051276 0.0010952 
0.000624536 0.000163898 0.00181281 

-0.0529296 0.110236 0.378077 
0.0256885 0.102834 0.0626921 
0.000869354 -0.00452806 -0.0117665 

-0.011901 0.0107554 0.00883425 
0.0185782 0.0119849 -0.0422948 
-0.00234439 -0.00296179 -0.000449657 

-0.0196352 -0.00864773 -0.0378012 
-0.00400278 0.0066537 -0.039572 
-0.000163159 0.000268463 0.0101717 

-0.0122341 0.0132048 0.00133975 
-0.0201925 0.00321216 -0.0230675 
0.000411456 0.000664388 0.00991457 

-0.0117536 -0.0010026 0.0054541 
0.00478383 0.00275041 -0.00551755 
0.000345316 0.000219648 0.00701109 

-0.0137872 -0.00352131 0.00928658 
-0.00280771 -0.0020974 -0.0154751 
0.000442209 0.000429665 0.0254747 

-0.0394537 0.00796585 -0.600384 
0.00179913 0.0053637 -0.207444 
-0.0045656 0.00545763 -0.14998 

-0.00399789 -0.00243274 0.063484 
-0.0158949 0.00426094 0.147199 
-0.00162392 -0.00339845 0.0800408 

-0.01454 -0.00779614 0.0135624 
0.00408646 0.00648956 0.0166644 
0.000466103 -0.000821907 0.011184 

-0.0156043 0.0179852 0.0379844 
-0.011453 0.0106886 0.0442235 
-0.000123897 -0.00211752 0.0453738 

-0.219185 -0.00131176 0.18627 
0.0184014 0.113244 -0.28586 
-0.0517091 0.0370048 0.0497777 

-0.0551846 0.0408705 0.295623 
-0.071448 0.0383466 -1.02655 
0.00784976 0.0212851 0.0874659 

-0.0124354 0.00277125 -0.0147763 
-0.00540508 0.00338823 0.00306227 
0.00932835 0.0034848 0.0747909 

-0.0459444 -0.01679 0.0315008 
0.0191719 0.0194586 -0.0745433 
0.0241824 0.00804246 0.0236195 

-0.0151829 -0.00667287 -1.24995 
0.0112975 0.000640099 0.841283 
0.000112687 0.00135731 0.0722582 

-0.0259767 -0.0424243 -0.326113 
-0.0262549 -0.0172569 -0.250631 
0.0119301 -0.0240365 -0.058951 

-0.0126639 0.00369038 -0.0617077 
-0.00523235 0.00291078 -0.0812551 
-0.000890195 -0.00070461 -0.0101507 

0.0283949 -0.0306342 0.0588639 
0.0879416 0.0314221 0.243985 
-0.0313792 -0.0260715 0.0565417 

-0.00354263 0.00298423 -0.0101752 
0.00223063 0.00192658 -0.00514684 
0.00046791 -0.0005967 0.00538624 

-0.0167962 0.00556381 -0.0331287 
-0.0208174 0.00168338 -0.0153305 
0.0103034 -0.000907706 0.0425386 

0.0459273 -0.189135 0.219926 
0.173506 0.0230021 -0.34104 
-0.0534767 -0.000373686 0.430018 

-0.0162018 0.0282137 -0.205513 
-0.00372222 0.0163302 0.0104918 
-0.0044746 -0.029858 0.00751057 

-0.0157635 -0.0139594 0.0363246 
0.00215653 -0.0104763 0.0737275 
-0.000110231 0.000490025 0.0158566 

-0.00690575 0.00386903 -0.0139311 
-0.00592614 0.00203523 0.0201765 
6.96563e-05 0.000569191 0.0120534 

-0.00488294 0.00294869 0.0127437 
-0.000325198 0.0025397 -0.00168664 
7.76968e-05 -5.58796e-05 0.00258821 

-0.0551742 0.0139316 -0.0826173 
-0.01501 -0.0108396 0.0289321 
-0.0420506 -0.0178908 0.134221 

-0.00378314 0.00087552 0.00425699 
0.00252704 0.000390948 -0.000548349 
-0.000539284 -0.000353988 0.0039791 

-0.0169925 0.0083327 0.268776 
-0.0103051 0.00990407 0.382268 
-7.70713e-05 -2.02865e-05 0.02196 

-0.0137295 -0.00577241 -0.00714007 
-8.72431e-05 0.000928356 -0.000767317 
0.00027477 -0.000343918 0.0119055 

-0.0107286 0.00589433 0.00651467 
-0.00788505 0.00300399 0.00372748 
0.000374662 0.00336655 0.0274496 

-0.0439238 0.0202138 0.00319579 
-0.00349716 -0.00532985 0.039411 
-0.0557339 0.0201753 0.0809757 

-0.019832 0.0174165 0.0469397 
-0.00635918 0.0133751 0.0609563 
0.0122097 0.00554572 0.0480681 

-0.0205874 0.0127238 -0.000811689 
-0.0115388 0.0103668 -0.00982769 
-0.000906063 -0.000280732 0.00422767 

-0.0133396 -0.00236752 -0.00237039 
0.00492864 -0.000471353 -0.0341611 
0.0010347 -0.000233925 0.0203188 

-0.0211867 -0.00118359 0.0269387 
-0.0184879 -0.00226391 -0.0200667 
-0.00126406 0.000159756 0.0251822 

-0.0141821 0.00679654 -0.00973754 
-0.00913154 0.00360544 0.00489764 
0.00187721 0.000229108 0.0141326 

-0.00581044 0.00845777 -0.0128669 
-0.00661491 -0.000124608 -0.0134213 
0.0041476 -0.000948445 0.0258453 

-0.0230069 0.109029 0.127882 
-0.0697328 0.012414 -0.0802622 
-0.0621147 0.00103458 -0.157781 

-0.0120852 -0.0127994 -0.0335917 
0.0178965 0.000754611 -0.048463 
0.00167427 0.00123325 0.032104 

0.0200331 -0.152509 -0.463995 
0.184001 0.0691238 0.48704 
0.0221145 -0.0449582 0.0826441 

-0.01443 0.0199112 -0.00546666 
-0.0135722 0.00391688 0.0215073 
-0.00694326 -0.0139142 0.12659 

-0.00548025 0.00624375 0.0169559 
-0.00164064 0.00196389 0.00543172 
0.000254733 -0.000387216 -0.00179886 

-0.027154 0.00447219 0.426008 
-0.0105707 0.00670784 -0.33068 
-0.00297396 0.00172132 0.0260597 

-0.00179206 0.00824564 -0.0681557 
-0.014965 1.82031e-05 -0.225828 
0.00201107 -0.0167895 0.525035 

-0.0151771 0.00753404 0.0225876 
-0.0178865 0.00775923 -0.0270165 
0.000320976 0.00101115 0.0135138 

-0.0164493 0.0764821 0.743321 
1.78413e-07 0.03398 -0.106126 
0.00281129 -0.200573 0.513786 

-0.0024215 -0.0143176 -0.0435252 
-0.00176435 -0.00610339 -0.0313822 
0.00426426 -0.00399325 -0.0242465 

-0.00166041 -0.0271485 -0.0622804 
0.0140891 0.0103747 0.0436476 
-0.00299206 -0.000779896 -0.0119574 

-0.0648576 -0.0566837 -0.132178 
0.0973164 0.274635 0.282485 
0.00226344 0.00920632 0.0526713 

-0.0128702 -0.0215631 -0.0871232 
0.00165329 -0.0159901 -0.11901 
0.0211754 0.0146211 0.199922 

-0.0119266 0.00221584 0.00222596 
-0.00633515 0.000194011 -0.00979429 
0.000593901 -0.000439619 0.0214305 

-0.0212373 -0.0159008 0.0400353 
-0.0119217 -0.00350745 0.00367855 
0.00058169 -0.000396125 0.0169377 

-0.0260587 0.0102521 0.0101566 
-0.014918 0.0229932 -0.0109708 
-0.00494147 0.0254235 0.0749003 

-0.0237471 0.00739097 -0.0221603 
-0.0243522 0.0304949 0.0348333 
0.0613444 -0.0552202 0.00705232 

-0.00531973 -0.0149731 -0.0171673 
0.00282311 -0.0337555 0.0149934 
-0.00247565 -0.00201035 0.0447003 

-0.0037813 0.0186887 -0.0287904 
0.0368984 0.0221277 0.0330376 
0.00863902 0.0500388 0.230144 

-0.0119063 -0.00317456 0.187244 
0.00190416 0.00239429 -1.57382 
0.00014717 7.20165e-05 0.0976628 

-0.00175933 -0.00573887 0.0150446 
0.00463388 0.00660846 -0.00475841 
0.00054563 -0.000224938 -0.00408558 

-0.423621 -0.394615 0.234886 
0.645465 0.527093 0.328432 
-0.0742269 0.00247683 0.497086 

-0.0145145 0.00698707 -0.00831514 
-0.00225007 0.0066896 -0.00549108 
4.01841e-06 -0.000170826 0.0144802 

-0.0136325 0.000803065 -0.00563825 
-0.00513653 -0.0138755 -0.000757116 
0.00540188 0.0165744 0.0813117 

-0.00798215 -0.00646152 0.0218927 
-0.00160251 0.00284424 -0.0154023 
-0.000495989 -0.000272615 0.0113262 

-0.00817763 0.00216215 -0.0519989 
-0.00635715 0.00193706 -0.0714243 
0.000175626 8.75603e-05 0.0217557 

-0.0135525 0.0197117 0.0240841 
-0.00618098 0.00719304 -0.00290012 
8.89761e-05 0.00190639 -0.0044082 

0.0942028 -0.206759 -0.0220076 
0.259652 -0.00330841 0.102047 
-0.0121386 0.0208404 -0.0845854 

-0.0243457 -0.0241781 -0.0813575 
0.031925 0.00582933 -0.0586231 
-0.000738805 -0.000566366 0.0401716 

-0.125477 -0.0201239 -0.0335271 
-0.0637726 0.108479 -0.119757 
0.031972 0.0346371 -0.0330455 

-0.00932364 0.0128972 0.0478462 
-0.0127372 -0.0092313 0.00470213 
0.00115282 0.000220956 0.058868 

-0.0536921 -0.00050014 0.460414 
-0.0846893 0.097501 -0.317536 
-0.00600203 -0.0124544 0.0671974 

-0.00336531 -0.00830455 0.102886 
0.0306154 0.000832223 -0.0744442 
-0.061142 -0.0220126 0.28689 

-0.00212628 0.00350295 -0.0554054 
0.00254029 -0.00429307 0.0356865 
8.06738e-05 0.000138538 0.0121511 

-0.00425185 0.0443501 0.0181742 
-0.042284 0.00365034 0.0028096 
-0.0198519 0.025542 0.095364 

0.0537347 -0.0213832 -0.0189424 
0.0472851 -0.0175426 0.0599761 
0.00450399 -0.000484911 -0.0331361 

-0.0449237 -0.0538857 0.121289 
0.0990183 0.0266303 0.122156 
-0.0506701 0.0315361 0.273324 

-0.0489299 -2.57101 -0.21575 
0.010994 0.0603643 -0.0219396 
0.00234036 -0.0312574 -0.0271075 

-0.0275694 0.0206155 0.0196525 
-0.0327119 -0.0045172 -0.0879346 
0.00274765 0.00211976 0.08201 

-0.00461953 0.00266169 0.00854349 
0.00975796 0.00301218 0.00816015 
-0.000111084 0.000236611 0.0040211 

0.039249 0.827523 242.201 
0.00143354 0.00371009 1.5064 
0.00737729 0.0697645 5.81742 

-0.0286178 -0.0237898 0.0234402 
-0.014012 -0.00770584 -0.0740448 
-0.00216192 0.0100561 0.0484261 

-0.02575 -0.0327277 -0.0185382 
0.0107901 0.0145935 -0.013524 
0.000855596 0.000118359 -0.00587613 

0.0225658 -0.115208 0.0658378 
0.224287 0.0149924 -0.454885 
0.00371892 -0.00724545 0.0884502 

-0.00827229 -0.00321193 -0.0346567 
-0.001772 0.00132708 0.0167113 
0.00227578 -0.000705083 0.00629389 

-0.021217 0.0165833 0.130986 
-0.00652941 0.00417657 0.0458757 
0.000437491 -0.000790442 0.099689 

-0.0177625 0.031021 -0.0917802 
0.00646304 0.0107227 0.0314251 
0.000580173 -0.177757 0.0981811 

-0.0141884 0.00107668 0.00851233 
-0.00500943 0.00328547 -0.0201167 
-0.000966724 0.000306913 0.00703194 

0.033833 -0.151361 -0.062513 
0.177838 0.0441672 -0.00822315 
0.00473222 -0.024175 -0.0673622 

0.068651 -0.165222 0.0785544 
0.231438 0.0182985 -0.0465798 
-0.00145826 0.00327952 -0.122838 

-0.0164425 -0.00533832 0.0285579 
-0.000393287 0.00187428 -0.0471061 
0.000483396 -0.00287062 0.0281608 

-0.0207981 -0.00635269 -0.106619 
0.00806087 0.00687842 -0.377591 
0.00532011 0.000338438 -0.127322 

-0.0163047 -0.00461046 -0.0512954 
-0.00338627 -0.00839905 0.00973541 
-0.0170487 -0.00868273 -0.0284114 

-0.0136309 -0.0101056 -0.427376 
0.00607177 0.0074138 -0.203695 
0.0218556 0.0467167 -0.564891 

-0.00802569 0.00665107 0.0430275 
0.0218802 0.0185711 0.0490855 
-0.0143635 -0.0494331 0.123385 

-0.0173543 0.00283219 0.106814 
0.00683607 0.00850878 -0.0103714 
0.0123815 -0.0113633 -0.0156134 

-0.00617491 -0.00343522 -0.0034944 
-0.00122849 -0.00074017 -0.00270884 
-0.000712191 -8.03743e-05 0.0102427 

0.00324115 -0.011106 0.0159959 
0.00672376 -0.0338777 -0.030966 
-0.00418321 -0.00863838 0.0289019 

-0.0258399 0.00794177 0.0790866 
-0.00579338 0.00850335 0.0581282 
0.000796651 -0.000641747 0.0166137 

-0.0155916 0.0165431 0.0133165 
0.0191244 -0.00785693 -0.0453222 
-0.00163948 0.00590771 0.0845428 

-0.00819598 -0.00616907 0.018555 
0.00184298 0.00182581 0.00672684 
-0.000572006 0.000196954 0.0161062 

-0.0233094 0.0109 -0.108857 
0.000496616 0.00607 0.598805 
0.00080861 -0.00244246 -0.00547184 

-0.047266 0.0138363 -0.0868153 
-0.00910091 0.0146298 1.02279 
0.0167249 0.0008641 0.279136 

0.00163874 0.0054063 0.0224105 
-0.00474233 -0.000169109 -0.00481892 
0.00147266 -0.000335163 0.00511708 

-0.0262934 0.0486517 0.433005 
0.0173268 0.0451049 0.103615 
-0.00746757 0.0211149 -0.0149547 

-0.00955084 0.0123328 0.00844741 
0.00378522 0.00970452 -0.00931133 
0.00177045 -0.000541078 0.00787251 

-0.0204864 0.00746165 0.0212952 
-0.00520104 0.00450451 -0.296978 
-0.000728696 0.00160833 0.0347943 

-0.0328735 -0.000115957 0.0277223 
-0.0113854 0.0212349 0.0395042 
0.00811912 0.0535953 -0.0873048 

-0.0357145 0.0114594 -0.0667125 
-0.00288191 0.0305182 0.0643668 
-0.0224844 0.0409296 0.252792 

0.00801546 0.0398382 -0.020496 
-0.0535508 0.0127651 -0.00199418 
0.0159132 0.0355547 0.0344637 

-0.0108386 -0.00440361 -0.0330994 
0.00192304 0.00444173 0.00603687 
0.000795459 -0.00017687 0.00212334 

-0.0344716 -0.128364 0.234341 
0.117074 0.0939807 0.177988 
0.0261426 0.00334751 0.106635 

-0.00625258 -0.0100691 0.0437881 
0.0318368 -0.0118276 0.0288077 
-0.000688777 -0.00199024 0.0396402 

-0.00960859 0.000451622 0.00999928 
0.00108053 0.00462458 -0.00789708 
1.01271e-06 0.000263662 0.0103789 

0.00150546 0.0255572 -0.081708 
0.013683 0.00127767 -0.0698669 
0.0612501 0.0129096 0.121704 

-0.0156512 -0.00163454 0.170706 
-0.00209864 0.00242375 0.144461 
7.0103e-05 0.000425783 0.0818276 

-0.0280364 -0.0216006 -0.093032 
0.000939543 0.0323721 0.00833575 
0.0286892 -0.0949561 0.255279 

-0.0144824 -0.012753 0.0449514 
0.0117796 0.00331495 -0.0318413 
-0.00645345 0.00283167 0.0581961 

-0.0178014 0.00496379 -0.0347282 
0.00127007 0.00709212 0.014495 
0.00175252 -0.00169964 0.031907 

-0.0146301 -0.0105026 0.0636294 
0.0230207 0.0205282 -0.0198971 
0.0279205 -0.015031 0.0894491 

-0.0151986 -0.00404534 -0.0207866 
0.0089164 0.00644772 -0.023773 
-0.000715692 -0.00103894 0.00437503 

-0.228986 -0.0206105 -0.145305 
0.0663833 0.225872 0.713312 
-0.0366904 -0.0165155 0.553241 

-0.0388119 0.0134839 -0.00755275 
-0.00704857 -0.0164209 -0.0215358 
0.00659238 -0.0464562 0.245878 

-0.00526856 -0.0201448 -0.170973 
0.0134909 0.00111038 -0.329105 
0.00934536 -0.00949096 -0.194608 

-1.97326 2.2769 -3.71326 
-1.32506 1.84328 -2.51452 
-0.0104619 -0.0529794 0.230265 

-0.00916113 0.00349881 -0.0453809 
-0.00156271 0.00250786 0.00241085 
0.0012472 -0.000899402 0.0274815 

-0.0147883 0.0089784 -0.00977846 
0.0092697 0.00184715 -0.034403 
0.000259767 -0.0173635 0.111179 

-0.00346164 -0.0929363 0.0570554 
0.0470288 0.0132848 -0.279744 
0.00053254 -0.00967951 0.0235394 

-0.0107008 0.00229643 -0.0681083 
0.000359042 0.00265462 0.0297973 
0.000113143 0.000275665 0.00528411 

0.00688017 0.00207922 0.0355756 
0.0545048 -0.0161626 0.0141154 
0.00345369 -0.00590403 0.0172236 

-0.00481848 -0.0484087 0.0124952 
0.0553237 0.000371366 -0.000580936 
-0.00069466 0.00150375 0.00249941 

-0.0113414 0.000187903 0.002576 
-0.00219822 -0.00648131 -0.00614876 
-0.00053075 0.00444401 0.0437179 

-0.0109227 -0.00144936 0.0213 
0.000589688 0.00495964 0.00902112 
-0.000417824 0.00578753 0.0118462 

-0.00694233 -0.00190541 0.00344879 
-0.00573062 -0.0016611 0.000569747 
-0.00104437 0.000222363 0.0179023 

-0.0087903 -0.0145673 -0.000488695 
0.0085588 0.00173893 -0.0276389 
0.000771163 0.000640458 0.0180447 

-0.00737125 0.00638828 0.00132246 
-0.0122134 0.0052381 -0.00693664 
-0.00721304 -0.00180068 0.00144807 

0.0278008 -0.171077 -0.00843512 
0.181605 0.0147076 -0.0348419 
-0.000518011 0.00154607 -0.0272896 

-0.00757867 0.00452997 0.0442334 
0.013706 -0.0242086 0.0225924 
0.00362744 1.21374e-05 0.0158699 

-0.0348226 0.00390982 0.315114 
-0.0334327 -0.0010373 0.562209 
-0.0203451 -0.00343182 -0.116647 

-0.00709794 0.00339714 -0.0062148 
-0.00921115 0.00144702 -0.0109702 
-9.79331e-05 -0.000157742 0.00953778 

-0.0221423 0.0101633 0.0268774 
-0.0104429 0.00324756 -0.00163279 
0.00561087 0.0361903 0.0767728 

-0.00638088 0.00119172 -0.00565311 
-0.00236019 0.00709302 0.029692 
-0.00341495 0.0002195 0.00817222 

-0.0201077 -0.000397492 0.0231113 
0.0045865 0.00641903 0.0426785 
-0.00147189 -0.00545373 -0.000729378 

-0.018901 -0.0126477 -0.344604 
0.00834722 0.00414672 0.988513 
-6.85179e-05 0.00132903 0.0773487 

-0.0184155 0.00507758 0.029152 
-0.00392507 0.00136053 0.0660943 
0.000112024 3.28977e-05 0.0478074 

-0.0135647 6.9193e-05 0.0472864 
0.000666142 0.004012 -0.0320507 
-0.00114248 0.000958673 0.0209289 

-0.0547291 0.00161616 2.04192 
0.019245 0.0570745 7.5333 
0.00112849 0.00265227 -0.5985 

-0.0235964 -0.019459 -1.10653 
0.0529389 0.0146394 -1.56751 
0.0215142 0.0297091 -0.48289 

-0.0200836 -0.00367208 0.151967 
0.0023953 0.0114198 0.0390864 
-0.00191681 -0.00116032 0.0730603 

-0.129314 -0.182677 -0.407276 
0.000889309 0.271599 -1.58073 
9.29701e-05 -0.00961903 0.164911 

-1.48653 1.62592 4.85128 
-0.606011 0.84934 20.1264 
0.00672125 -0.0214259 0.332517 

-0.0189723 0.00522515 -1.07082 
0.00475573 0.0261093 -0.572134 
-0.0005565 -0.00272496 0.106075 

-0.0194601 -0.0101822 0.0151969 
-0.00942753 -0.00183578 0.00785685 
-0.000732509 0.000962832 0.0349317 

-0.00907838 -0.0496689 0.229444 
0.0398603 0.0319125 0.111464 
-0.00240121 0.00406982 -0.00369573 

-0.00804016 0.00773499 0.0885112 
-0.0139964 -0.0128803 0.119728 
0.000154279 -0.00367124 -0.0379317 

-0.000248555 -0.00115962 0.000155606 
-0.00200606 0.00231195 0.0471465 
-0.00110705 -0.000335351 -0.000406256 

0.0113362 0.0067127 -0.000733289 
0.00105475 -0.0157441 0.00717125 
-0.00171166 -0.00177745 0.00347638 

-0.019049 -0.00464642 -0.0270821 
-0.00480333 0.0059182 -0.0306467 
-2.33319e-06 -0.00201071 0.0158204 

-0.0148709 0.00255342 0.0176884 
-0.00757498 0.00639725 0.00527162 
1.32193e-05 -0.00228071 0.0200636 

-0.0124343 0.0056928 0.0019892 
0.00192705 0.00503501 -0.023768 
-2.21973e-05 -0.000536784 0.0158959 

-0.0725195 -0.0184431 0.196693 
0.0154667 0.0651099 -0.469837 
0.000522996 -0.0036809 0.0711245 

-0.0156124 0.00020477 0.012486 
-0.014728 0.00196505 0.0380535 
0.00146717 -0.00154142 0.00785797 

-0.010466 0.000122689 -0.00928565 
0.00620496 0.000836849 -0.0102457 
-0.000593758 -0.000694796 0.0250628 

-0.0178229 0.0116622 0.125626 
-0.0183301 0.00503488 0.000278124 
0.00382631 -0.00595045 0.0704276 

-0.0100365 -0.00652222 0.244346 
-0.00559044 0.0224251 0.0580547 
-0.00789942 -0.0114654 0.0624217 

-0.016257 -0.00682959 -0.024607 
-0.0207663 -0.0198079 -0.0346284 
-0.0304967 -0.0590762 -0.00798136 

-0.000640236 -0.00844984 -0.0336235 
0.00511151 0.00270371 0.00733766 
-0.000848736 0.000465328 0.00387119 

0.0927171 -0.464251 -0.323017 
0.502589 0.193521 0.97562 
0.103015 -0.0224064 0.305741 

-0.0155317 -0.000257366 -0.0321094 
0.00364837 0.00364077 0.00439153 
-0.00583538 -0.0421937 0.117595 

-0.0132877 0.00624284 -0.0158144 
-0.00827749 0.00293358 0.00492136 
0.0001172 -0.000357458 0.0282959 

-0.0159183 -0.00884383 -0.0107783 
0.0129299 0.00415452 0.0102687 
0.00356794 0.000766306 0.019227 

-0.0115546 0.0180919 0.0238904 
0.0199282 0.044021 -0.0222736 
-0.0256306 0.026258 0.0900764 

-0.132311 0.10339 0.881093 
-0.138609 0.0846492 -0.0745939 
-0.0313817 -0.067429 0.130666 

-0.00217426 -0.000216888 -0.00156201 
-0.000459841 -0.00144726 0.0040954 
0.00018998 6.60615e-06 0.00555077 

-0.0139717 0.00854447 0.0152728 
-0.00570343 -0.0029943 2.67251 
-0.00151734 -0.00120779 0.520895 

-0.0104824 -0.0051571 -0.00537633 
0.00721594 -0.000122876 -0.00672023 
0.00389736 -0.00186902 0.0142167 

-0.0160464 -0.00780317 -0.00674803 
0.00386083 0.00533819 -0.00899456 
0.00157891 -0.000151994 0.0132348 

-0.0175424 0.00462625 0.0459409 
-0.00841354 0.00594087 0.0123048 
0.00230444 -0.00121623 0.0270288 

-0.358594 -0.740813 -0.0201331 
0.281425 0.523211 -0.726043 
0.0251026 -0.0379079 0.661009 

-0.01016 -0.00222333 -0.0715121 
-0.0048117 0.00527447 0.206541 
0.0206747 0.00218076 -0.208944 

-0.0318691 0.138661 0.0760316 
-0.167691 -0.00135992 0.326683 
-0.00565871 0.00881113 0.184153 

-0.255768 -0.215303 -0.342334 
-0.00466997 0.207865 -0.252551 
-0.0369044 -0.0417253 0.0845091 

-0.0264992 -0.00726331 0.0391671 
0.0349157 0.00858755 -0.015588 
0.00308473 -0.0224913 0.123955 

-0.0321035 -0.00696841 -0.204754 
0.0177003 -0.00976325 -0.0916778 
0.00793697 0.00219555 0.0920026 

-0.0320821 0.00529432 0.33878 
-0.00101038 0.00339365 -0.233897 
-0.00936714 -0.00419783 -0.22896 

-0.138869 -0.138676 -0.0876531 
0.311632 0.0718956 0.764797 
-0.00267012 -0.0263366 0.0895508 

-0.0152346 0.0137504 0.00566387 
-0.0153393 0.00410751 0.000191154 
0.000218314 -0.000166535 0.0107237 

-0.0245898 0.0647104 0.00727013 
-0.0240493 -0.00302086 -0.0263978 
0.072388 0.0312936 0.128805 

-0.0342006 0.0132265 -0.0434042 