# vtk DataFile Version 3.0
Output file generated by Yade's KinematicLocalisationAnalyser
ASCII
DATASET UNSTRUCTURED_GRID

POINTS 13483 float
681.888 26.6873 0.409819
899.855 42.9818 -0.350252
133.324 5.93289 -0.449507
954.284 4.22708 0.25219
553.97 7.38188 -0.30371
347.903 34.1675 0.451171
173.449 6.71652 0.397385
635.764 9.88032 0.133874
550.514 22.1172 0.139588
830.472 11.6985 -0.353498
233.083 8.73381 -0.0967522
284.078 6.25123 -0.271635
738.713 27.6177 -0.134718
713.755 13.6086 0.0756604
151.998 16.7061 0.353219
245.213 33.8717 0.393964
240.876 12.6541 -0.2614
318.935 9.32465 0.380524
376.489 31.7536 0.185501
583.12 8.52586 0.338116
454.402 35.7152 0.0994631
662.717 42.1897 0.254174
949.514 27.995 -0.437881
799.124 39.7715 -0.42684
508.34 15.7576 0.289305
266.086 43.2234 -0.124253
545.058 26.4505 -0.473066
656.108 18.366 0.231827
49.9794 15.2121 -0.459336
824.791 29.7327 -0.316365
534.76 4.82077 0.315644
18.7168 22.4954 -0.276723
916.023 39.3687 -0.258839
549.348 2.49128 0.456994
86.7536 42.7245 0.100772
579.641 29.3104 0.324054
590.261 16.3206 -0.40758
380.153 21.9769 -0.17556
593.605 24.7026 -0.329297
387.684 32.3023 -0.249309
266.59 14.3681 -0.286659
480.602 34.3727 0.0660947
771.556 6.62492 -0.114678
213.859 6.10748 0.376693
61.355 6.79884 -0.126798
75.6985 8.76581 -0.283662
791.514 8.36471 -0.465889
26.1278 11.3562 -0.293872
686.549 42.4161 -0.358963
773.312 21.7203 0.346141
191.512 31.4862 0.281185
893.638 31.7796 0.124967
38.696 27.4535 0.110728
594.484 2.92665 0.313927
157.767 7.4043 -0.448796
665.245 32.1481 0.362143
560.238 25.138 -0.122172
193.709 0.914372 -0.266354
36.3028 2.43139 -0.272979
385.348 17.2541 0.267604
699.497 43.1373 -0.131795
512.44 32.561 -0.1718
441.593 1.03105 0.186617
804.764 7.2913 0.313969
29.2274 41.5858 0.235696
283.643 29.562 0.290721
830.51 7.15695 0.192516
764.046 41.732 -0.344587
462.178 8.46672 -0.457974
636.724 3.45896 -0.33338
867.797 27.5038 -0.372495
145.211 7.45875 0.276218
553.517 24.4225 -0.11441
530.037 14.6733 -0.110923
325.869 16.3617 -0.298791
22.9826 13.1543 0.2312
923.234 29.7686 0.313555
368.133 37.7839 -0.262562
770.488 18.645 -0.306306
791.121 12.0763 -0.230411
935.459 10.5228 -0.177159
516.208 33.4991 -0.16732
102.493 37.0556 -0.263477
784.289 31.7487 -0.206904
734.941 35.9305 0.100951
958.006 34.1739 -0.100263
926.698 1.13445 -0.46189
322.436 28.1833 0.419671
701.485 6.16725 0.0936063
27.063 5.20128 -0.413288
147.503 36.8878 -0.139294
571.014 13.9666 0.181215
912.589 22.545 -0.497824
217.278 27.9574 -0.227326
49.4916 33.4696 0.263862
548.13 1.16371 0.0946885
261.639 8.76421 -0.33921
871.039 36.3783 0.261838
898.117 24.2161 0.25082
400.567 20.2165 -0.255125
182.505 26.1306 -0.448134
614.85 36.6565 0.415832
421.577 14.9512 -0.436246
459.096 28.6946 -0.102989
419.608 4.43043 0.409233
612.526 10.6546 -0.0922264
959.903 11.0777 -0.147692
89.3798 37.8545 -0.390791
372.066 4.70342 -0.177095
628.608 9.1935 -0.310869
399.559 42.6003 0.443038
28.816 23.9462 -0.246231
33.9447 5.65815 -0.323369
638.084 30.5781 -0.391947
563.562 22.9104 0.150509
29.3721 35.9653 -0.371692
103.519 29.6327 0.223882
360.82 15.4649 -0.306414
676.46 18.0801 -0.121138
529.61 36.6677 0.297529
851.673 7.50886 -0.349889
841.58 6.06677 -0.17323
430.094 35.9982 0.0935857
721.148 23.9231 0.100576
265.108 16.7799 0.490954
366.8 3.62055 0.46438
115.615 30.5285 0.328745
129.638 23.2912 0.256377
609.717 37.206 0.0733384
340.216 18.4134 0.434112
818.824 32.5431 0.108467
769.011 40.8675 0.107689
536.682 19.8399 -0.375037
903.18 8.44128 0.273596
477.925 22.4416 0.223749
307.873 23.7088 0.319691
771.514 28.6524 0.00723202
310.303 27.682 -0.387382
648.861 11.2989 0.166963
369.433 34.5408 0.184682
564.733 11.1445 0.407749
408.443 30.3548 0.0864108
480.556 16.0898 -0.105935
354.441 40.7008 0.429352
212.997 28.8399 0.120516
905.725 40.9288 -0.150062
954.598 11.4824 -0.255689
6.69508 11.7898 -0.467796
484.902 21.7267 -0.391349
42.6651 21.7863 0.0869227
419.29 30.245 -0.454591
440.458 24.121 0.255901
83.5711 11.7125 0.324353
58.0281 32.2293 0.423443
252.392 13.0022 0.345533
700.943 36.7983 0.312841
651.85 19.3979 -0.427893
83.8011 20.5136 0.372838
802.065 43.2005 -0.405832
887.273 2.39383 0.404711
755.493 37.9469 -0.454276
799.516 2.31854 -0.374579
619.469 25.4366 0.386284
664.257 42.8778 -0.434251
575.491 17.759 -0.353482
950.924 2.86886 0.204686
250.004 24.2201 0.104325
142.826 34.0651 0.188031
276.384 6.29653 0.349871
105.866 3.96145 0.232261
71.7161 9.71108 0.193131
308.015 34.8914 0.295112
18.9115 24.2642 0.34487
626.136 18.6295 -0.384253
686.362 37.4041 0.19912
518.427 20.5434 -0.333204
938.251 34.6288 -0.351787
454.757 8.31656 0.0909441
488.033 34.6705 0.298618
603.939 3.39427 -0.176366
25.7684 23.3359 -0.384632
651.861 4.2195 -0.377937
614.759 4.33803 -0.278186
231.096 11.1837 0.45979
476.194 16.0501 0.180416
348.03 6.22463 0.303447
433.954 18.4868 -0.331085
856.489 39.6924 0.114419
215.364 25.0947 -0.395933
917.429 6.66057 -0.298857
855.446 35.966 -0.316867
428.904 9.84981 -0.198866
827.009 2.35787 0.381035
686.462 24.0759 -0.393558
861.011 17.4495 0.394099
482.639 41.125 -0.260762
558.143 12.0252 0.326138
522.071 42.6955 -0.21861
499.609 8.47671 0.149741
759.297 37.2458 -0.26724
756.731 33.755 0.288458
215.546 37.8313 -0.336123
933.037 10.3901 -0.107577
666.841 43.3123 0.241879
12.6633 16.5333 -0.1782
456.272 24.6764 0.346292
210.099 22.4513 0.393407
104.199 37.8764 0.196725
910.23 20.0776 -0.4163
751.634 41.4901 0.223369
357.132 24.7585 0.360405
600.381 9.97962 0.321373
92.1849 42.6985 -0.0275297
277.328 25.3795 -0.477753
629.033 22.5469 0.353452
546.936 17.8349 0.396213
294.386 0.889403 -0.340898
625.185 38.3133 -0.346047
602.334 39.5324 -0.374852
541.897 31.7712 0.382274
561.545 0.757366 -0.468516
811.699 17.6519 0.327201
201.705 11.5865 -0.172368
563.208 34.5895 0.409624
639.103 37.4563 0.109477
81.3414 0.952409 0.271771
282.144 4.6627 0.16467
953.872 13.3593 0.172196
935.791 12.4699 -0.35293
962.232 15.4067 -0.448066
339.91 8.38178 -0.226746
868.661 21.1398 0.390833
456.801 40.0667 0.308601
504.177 0.808109 -0.403229
742.776 33.0289 0.422526
30.6263 29.7599 0.295807
370.383 39.9416 0.452546
283.056 2.80823 0.299025
919.279 36.6347 -0.198458
823.589 44.3617 0.217468
322 10.6088 0.155985
764.225 27.2817 -0.0867809
630.294 2.64203 0.222628
612.403 6.34878 0.411987
108.695 17.4792 -0.450769
339.683 1.03197 -0.217444
384.993 2.2558 -0.365627
15.7341 7.53807 -0.293603
4.84435 29.876 -0.231128
182.068 18.4326 0.326127
76.6012 40.5284 0.21259
75.0507 27.7622 0.31642
475.557 14.3673 -0.357418
411.783 33.8773 0.462001
891.435 33.664 0.121137
22.0426 3.85461 0.292536
78.9997 6.757 0.134657
712.752 36.0178 -0.138807
330.602 0.932236 0.315871
409.115 15.5724 -0.0978434
264.647 4.56829 -0.385289
747.898 20.2331 -0.180783
507.594 8.18908 0.388898
871.968 19.2371 -0.34459
720.329 27.3173 0.307216
769.418 16.8121 -0.0765537
471.791 25.645 0.448277
114.693 43.2507 0.302453
613.824 40.4812 0.0663523
857.689 12.9546 -0.183882
266.904 29.6169 -0.238471
36.3711 16.5515 0.155296
377.197 13.5129 0.469243
121.291 39.3264 0.012181
300.243 41.2393 -0.186187
477.914 1.0467 0.195607
919.707 26.7892 -0.380382
791.262 0.805334 0.453655
372.692 2.99113 0.442285
336.513 25.88 -0.13895
520.904 39.519 0.197053
91.4585 7.72562 -0.453655
222.77 43.6791 0.377711
901.074 26.4501 0.349985
557.957 37.2945 -0.0695919
224.966 40.3148 -0.247202
180.854 40.7754 -0.38647
961.889 30.2532 -0.371746
957.984 11.0155 -0.429719
689.919 3.38115 -0.4325
213.931 23.8386 -0.0994973
621.64 26.5118 0.117536
623.738 26.2383 0.189517
459.684 5.50234 -0.138945
542.517 0.93667 -0.280473
889.116 35.753 -0.467708
95.731 29.8148 0.221797
753.912 17.4946 -0.411089
308.24 15.2677 -0.321143
11.2644 2.27943 0.331106
141.351 35.615 0.189239
75.4749 22.4065 0.262964
810.916 34.378 -0.292324
926.587 40.2877 -0.160575
209.076 27.4435 -0.178088
948.671 11.1458 -0.291338
50.7083 35.3075 -0.246603
102.4 28.0288 -0.148955
724.724 12.5251 0.352678
464.753 17.843 -0.440789
586.787 16.2207 0.106852
267.475 27.6563 -0.177978
709.299 4.44342 -0.419778
963.195 10.6189 0.297525
33.6459 30.7934 0.261489
303.447 7.67259 0.188302
249.837 14.6231 0.225902
1.11473 34.3897 -0.147808
253.379 14.138 -0.345939
238.17 10.8613 -0.111687
241.415 25.607 -0.285418
149.805 27.0999 0.124814
619.805 14.5445 -0.317828
188.48 13.7772 -0.331342
913.344 38.1341 0.215824
196.138 3.79285 0.448595
53.4533 36.3445 -0.343783
863.912 45.3876 -0.426482
315.623 30.5807 -0.372797
780.027 21.8946 -0.348936
931.523 26.3317 -0.494041
337.891 9.01438 -0.112841
853.308 27.9083 -0.324218
369.288 2.67208 -0.338215
467.888 23.2281 0.368833
776.562 15.3544 0.404768
119.088 11.6628 -0.325604
544.286 3.96871 -0.451274
876.019 16.9471 -0.191738
99.4186 7.48563 0.179374
316.46 14.3609 0.199614
476.433 11.4294 -0.197309
949.066 2.50799 0.358087
447.131 1.7643 -0.419319
199.534 37.7703 -0.266066
860.598 10.4185 -0.26913
144.803 35.1251 -0.175203
295.626 30.6218 -0.378294
450.4 21.0934 0.208048
651.687 12.9746 -0.318443
435.485 9.92583 -0.390385
514.215 26.8027 -0.258876
901.22 42.7507 0.357111
53.562 10.7353 -0.0896384
336.279 37.2911 -0.253725
426.748 26.1513 -0.33597
460.474 20.4431 0.249718
589.984 42.9078 0.356829
881.145 33.9094 0.192928
763.126 32.8258 -0.349222
253.973 33.2394 -0.385881
15.8286 30.2176 0.155029
754.847 34.4336 -0.127537
575.1 39.6286 -0.428758
258.284 38.037 -0.0897515
788.638 29.2515 -0.102508
170.526 9.00348 0.184822
412.331 20.4396 0.276929
522.698 40.6248 0.0988351
465.994 19.1536 0.180388
896.294 45.298 -0.290957
479.356 3.31406 0.408194
56.0325 24.3551 0.284772
530.146 30.449 0.349417
489.514 40.1932 0.351211
916.494 32.3097 -0.224226
850.407 26.958 0.237051
612.601 17.8409 -0.15067
905.857 34.1669 -0.326973
329.644 2.04633 -0.435225
425.532 28.119 0.209567
32.7905 37.7172 -0.219496
856.626 28.7496 -0.135164
695.622 19.1409 0.471018
522.171 0.794662 -0.45882
142.568 4.39435 0.288368
480.666 38.6546 -0.104139
13.8957 0.90238 -0.314662
947.756 5.21826 0.104756
416.501 37.9447 -0.27138
[...]
POINT_DATA 13483
TENSORS Strain_matrix float
-0.0455389 -0.00310265 -0.0127789 
0.0166588 -0.0498323 -0.542741 
-8.08076e-19 7.62203e-19 1 

-0.0686267 -0.0170473 -0.049674 
0.0180356 -0.0135534 0.147379 
1.40664e-17 2.04017e-18 1 

-0.00869178 0.00236877 0.965176 
-0.000307097 -0.0985038 0.117293 
1.28194e-18 -8.31896e-19 1 

-0.125523 -0.00694348 -0.202297 
-0.00835399 -0.0105774 0.0435529 
4.17182e-18 8.81036e-18 1 

-0.0249599 -0.00118759 -0.0238531 
0.0361048 -0.100278 -0.00708899 
5.04615e-18 7.75964e-18 1 

-0.0214008 0.00785242 1.02405 
-0.00369025 -0.0572676 1.98191 
1.59524e-18 -3.52692e-18 1 

-0.000341223 -0.019264 0.0152555 
0.00180626 -0.10781 -0.00179443 
-5.54826e-18 1.16792e-17 1 

-0.0344615 0.0090008 -0.0835234 
0.00439026 -0.0727202 -0.0537194 
5.52554e-18 2.73936e-18 1 

-0.0246273 0.0151399 -0.108262 
0.0234675 -0.0522709 -0.112095 
2.43177e-18 3.10139e-18 1 

-0.0859348 -0.0213218 0.120809 
-0.0367624 -0.0773996 -0.355592 
4.94497e-18 -3.00819e-18 1 

-0.0124477 0.0200074 -0.160971 
-0.0315904 -0.0731139 0.0066801 
1.97371e-18 -1.02633e-17 1 

-0.0339054 -0.0347465 0.00854482 
-0.0700749 -0.101055 0.0065553 
-2.60158e-18 4.55277e-18 1 

-0.0402197 0.0286398 0.139688 
0.0253386 -0.0310975 0.17801 
2.62855e-18 -8.46066e-18 1 

-0.0828978 0.0222752 -0.279126 
0.00210339 -0.0519078 0.162507 
-4.26587e-18 -2.80108e-18 1 

-0.0392457 -0.0113595 -0.0647996 
0.0200499 -0.0664571 -0.0324778 
-7.33461e-19 -7.57967e-18 1 

-0.00149021 -0.0304177 0.0481858 
-0.00857525 -0.050401 -0.223807 
-1.2552e-18 -5.71482e-18 1 

0.00023629 -0.0378719 0.119851 
0.00952245 -0.131797 -0.0431341 
1.90396e-18 -1.01124e-17 1 

-0.0514053 0.0132899 0.00279876 
0.0212593 -0.100122 -0.0541945 
-4.56771e-18 8.79987e-18 1 

-0.0391964 -0.0546211 -0.0449111 
-0.0475559 -0.048873 0.0770058 
1.93201e-18 7.38711e-18 1 

-0.0279875 0.0234905 0.195907 
-0.0591732 -0.0922037 -0.136011 
-7.16093e-19 -8.03615e-18 1 

-0.00890185 -0.00185921 -0.0943483 
0.0485126 -0.043973 -0.0112037 
1.9691e-17 -1.55164e-17 1 

-0.0696273 -0.00895533 0.358823 
0.0501912 0.00076961 -0.197997 
-1.36784e-17 5.64056e-19 1 

-0.100299 -0.00258799 0.103816 
-0.00701237 -0.011719 -0.380347 
8.63066e-18 -1.68097e-18 1 

-0.0634715 -0.0182019 0.0930739 
0.00142542 -0.0298233 -0.0354477 
-6.07725e-18 -1.08574e-17 1 

-0.0140555 -0.0194542 -0.10099 
0.0706063 -0.0663374 0.0578082 
6.89631e-18 2.17713e-18 1 

0.00418626 0.0175571 -0.0294592 
-0.0628615 -0.022306 0.203671 
-4.65761e-19 -5.15077e-18 1 

-0.0316927 -0.00268306 0.111478 
-0.00712125 -0.053054 -4.92706 
5.51951e-18 6.16743e-18 1 

-0.0361003 0.000471117 -0.0274444 
-0.00477069 -0.057154 0.0376919 
5.54445e-20 -2.994e-18 1 

-0.0225083 0.00947285 0.888327 
0.0462431 -0.0872414 -0.539054 
-2.25582e-18 -4.30116e-18 1 

-0.16545 -0.0281316 -0.0142746 
-0.0196311 0.0130667 -0.0341899 
-9.68854e-18 -3.19013e-18 1 

-0.0358877 -0.0375852 -0.025401 
0.00890289 -0.158884 0.389566 
8.49497e-18 -1.93907e-18 1 

0.00351753 0.0158845 0.149852 
0.0538459 -0.105984 0.0158105 
-7.33358e-18 -2.33707e-18 1 

-0.0737628 0.0265319 0.268487 
-0.0252741 -0.0152247 0.121761 
4.01968e-18 3.47512e-18 1 

-0.00733173 0.00360552 -0.195706 
-0.0149336 -0.00888238 0.561992 
2.77247e-18 -3.00983e-17 1 

-0.0363312 0.045542 0.0264875 
-0.0620988 -0.071767 0.0457208 
6.16484e-18 -4.7565e-18 1 

-0.0352089 -0.0264668 -0.0939439 
0.00786063 -0.0461791 0.0351904 
1.30105e-17 -2.57633e-18 1 

-0.0301785 0.00569094 0.25405 
-0.0107236 -0.0659063 -0.133945 
4.13445e-18 4.60205e-18 1 

0.0397333 -0.00788918 0.104863 
-0.034876 -0.173167 -0.0552306 
-9.3596e-19 -1.67804e-17 1 

-0.0200667 -0.0255663 -0.0734876 
0.0546898 -0.0647817 0.0594888 
5.38788e-18 7.11607e-19 1 

-0.00446967 -0.00963479 0.0126396 
0.0140296 -0.0733023 -0.0661553 
1.03161e-18 1.34246e-17 1 

-0.0226789 0.010274 0.0610381 
-0.0617915 -0.0687653 -0.0548388 
7.14436e-19 4.85816e-18 1 

0.0226406 0.00311841 -0.00506435 
-0.0765991 -0.053097 0.0944177 
-5.08023e-18 -5.71662e-18 1 

-0.0469457 -0.0341003 -0.0538755 
0.00785246 -0.0756453 -0.118473 
2.12578e-18 -3.07241e-19 1 

-0.0199645 -0.0242657 0.135543 
-0.00845457 -0.0958372 -0.257031 
-4.06181e-18 1.04708e-17 1 

-0.0101035 0.0139808 -0.00451187 
-0.0195381 -0.126648 0.156188 
-1.03616e-17 5.80083e-18 1 

-0.00966791 -0.00260918 -0.075238 
0.0286688 -0.0907118 -0.0215951 
-2.8158e-18 9.35985e-18 1 

-0.0469814 -0.000840659 -0.0963859 
-0.0121578 -0.0763097 -0.885274 
-4.79874e-18 -1.19504e-18 1 

-0.0130922 0.00299885 0.000827989 
-0.0238854 -0.146177 0.0113776 
-9.17627e-18 3.12248e-18 1 

-0.0747254 -0.0228896 0.118979 
-0.0252489 -0.0313347 0.106178 
-7.05669e-19 -1.27763e-17 1 

-0.055033 0.0197958 -0.0133637 
0.0165883 -0.0606206 -0.0430415 
-4.0432e-19 -2.18663e-18 1 

-0.0190986 0.0239627 0.0125581 
-0.0501038 -0.0379633 -0.0427272 
-1.02634e-17 6.90033e-18 1 

-0.0492251 -0.0219925 0.00896745 
0.0353661 -0.044438 0.0542319 
-5.55706e-18 8.10762e-18 1 

-0.0166955 -0.00790209 0.127112 
-0.0130037 -0.0365051 0.0447706 
-1.93008e-18 6.84987e-18 1 

-0.0401193 0.0127159 0.0102835 
0.0122482 -0.0688812 -0.166447 
-4.93809e-19 4.0945e-18 1 

-0.0205203 -0.00707664 0.323738 
0.0132275 -0.10493 -0.592153 
-3.06428e-18 5.4476e-18 1 

-0.0323619 0.014285 -0.389856 
-0.00118232 -0.0450162 -0.313532 
-9.64571e-19 2.89147e-18 1 

-0.027721 -0.0195035 0.101437 
0.01707 -0.0757729 -0.160576 
9.22046e-18 -4.9969e-18 1 

-0.0138081 0.0744054 0.106502 
-0.0236549 -0.173896 -0.0458983 
4.06648e-20 4.89892e-18 1 

-0.0127525 0.0228907 0.0858563 
0.00840798 -0.150921 -0.113965 
4.09064e-18 2.06391e-17 1 

-0.0279699 0.0104476 0.0341222 
-0.047321 -0.0851168 0.104362 
-3.70163e-18 -3.26977e-18 1 

-0.0240733 0.0793841 0.0385938 
0.00814077 -0.0351324 -0.10666 
8.1643e-19 1.45026e-17 1 

-0.0138671 -0.0311011 0.180638 
0.0455545 -0.0273279 0.207018 
5.20151e-19 -3.11591e-18 1 

-0.0303041 0.00432629 -0.0699574 
0.00162508 0.00921509 0.0479872 
9.78171e-18 7.85358e-18 1 

-0.0574614 -0.039547 0.0270083 
0.000469942 -0.0737819 -0.0514878 
-4.15673e-18 -2.47029e-18 1 

0.0204403 0.0446794 -0.289756 
0.0368351 -0.0735565 -0.214411 
-1.95307e-18 4.79957e-18 1 

-0.0251271 -0.0300311 -0.0417584 
0.0352295 -0.0992942 0.00621303 
-3.60806e-18 -1.26787e-18 1 

-0.0746011 0.036572 -0.0354049 
0.0077699 -0.0812783 0.000562152 
1.50319e-17 -4.97066e-18 1 

-0.0261767 0.0537705 0.267371 
-0.062557 0.027301 -0.0547142 
-9.10577e-19 -8.82559e-18 1 

-0.0357003 0.00153364 0.391332 
-0.0364775 -0.0991499 0.0497603 
-7.46946e-18 4.72213e-18 1 

-0.062223 -0.0239688 0.0954873 
-0.00589541 -0.110642 0.0892967 
-8.57235e-18 5.59877e-18 1 

-0.0797421 0.0230989 0.0411238 
-0.0485812 -0.019849 0.0400555 
-1.31637e-17 3.57202e-18 1 

-0.00464092 0.00453585 0.0414242 
-0.00268716 -0.0933926 0.0715644 
1.20115e-17 -9.23248e-19 1 

-0.0240379 0.0043182 0.1257 
-0.0177497 -0.0755842 0.16587 
7.47456e-18 -5.2399e-18 1 

-0.0179973 -0.0135974 -0.0261329 
-0.0231947 -0.0702437 -0.105878 
-3.62446e-18 4.66481e-18 1 

-0.034498 -0.0111373 -0.0981027 
-0.00277802 -0.056022 -0.231507 
-4.70689e-18 -2.30028e-18 1 

-0.00160196 0.00627404 -0.0427357 
-0.0406686 -0.131956 -0.0716206 
6.86054e-18 2.05437e-18 1 

-0.0633777 -0.00748336 -0.111241 
0.0260682 -0.0376358 -0.0525488 
-7.68217e-18 -1.49057e-18 1 

-0.0376571 0.0191079 -0.243112 
-0.0326329 -0.0720776 0.10814 
-1.88752e-18 -3.00791e-18 1 

-0.080367 -0.0187244 0.116034 
0.0524964 -0.0507724 0.115865 
5.54565e-18 -5.69012e-18 1 

-0.0420706 0.0154999 0.0455926 
-0.0200575 -0.0516731 -0.0680105 
4.67308e-18 5.10779e-18 1 

-0.0888235 0.0283563 -0.0781105 
-0.0129271 -0.0730234 0.214788 
-1.36924e-18 -6.70594e-18 1 

-0.00927542 -0.0153794 0.0802728 
0.013468 -0.027958 0.0476422 
-3.95121e-18 1.4817e-18 1 

-0.0152359 0.0168674 0.0568828 
-0.0302533 -0.0288654 -0.156798 
4.37987e-19 1.18776e-19 1 

-0.0221946 -0.0153059 -0.0765291 
-0.018952 -0.0694898 0.189612 
-1.20484e-17 -2.29594e-17 1 

-0.0368466 0.00246205 -0.122162 
-0.0251085 -0.0345521 -0.0269641 
8.57749e-19 9.72969e-19 1 

-0.0432809 0.00180394 0.0107162 
-0.0208053 -0.0117912 0.0571326 
1.07433e-17 -7.08216e-18 1 

-0.0909107 0.0391399 -0.406375 
0.00754817 -0.0599111 0.411643 
4.74527e-19 1.15859e-18 1 

-0.0129922 0.00505456 0.0513719 
0.0357527 -0.0736082 -0.174061 
-1.28816e-17 4.71256e-18 1 

-0.0445982 -0.00590844 0.0149625 
0.0440166 -0.085521 -0.0937199 
-7.45822e-18 -2.53482e-18 1 

-0.0330871 0.0014928 0.0493508 
0.0110731 -0.102424 -0.0977316 
-4.59572e-18 -9.04437e-18 1 

-0.0382376 -0.0119944 0.146338 
-0.000986638 -0.0391396 -0.0384482 
-1.28021e-17 -1.36368e-18 1 

-0.0165484 0.00679438 0.0234122 
0.017909 -0.075632 0.106516 
3.42206e-18 8.93539e-18 1 

-0.0977278 -0.0203382 6.0582 
-0.00536838 -0.038642 2.31406 
4.90659e-18 7.40002e-18 1 

-0.0229425 -0.0218959 0.118959 
0.0142497 -0.0794108 -0.0613581 
8.40519e-18 4.611e-19 1 

-0.0216004 0.0036604 0.0257271 
0.00168224 -0.0289196 0.00493151 
4.608e-18 1.0415e-17 1 

-0.0223848 -0.0255936 0.122994 
-0.0205887 0.00676536 -0.283951 
-3.52623e-18 1.6964e-18 1 

-0.0366875 0.00457269 -0.0320474 
-0.0140617 -0.064789 -0.0113368 
8.82914e-18 -7.38045e-18 1 

-0.0574623 -0.000317812 0.0264934 
-0.02579 -0.0524349 -0.0465159 
3.8414e-18 4.86577e-19 1 

-0.0809123 -0.0160336 -0.0247022 
-0.00390549 -0.0202935 -0.0302601 
-5.25663e-18 -1.04049e-17 1 

-0.00650936 0.0192401 0.110706 
-0.0418986 -0.0789801 -0.0495643 
-4.82769e-18 -1.47709e-17 1 

-0.0183218 -0.0129246 -0.724437 
0.00154312 -0.0582703 1.45402 
-4.53594e-18 -2.41113e-18 1 

-0.0307626 0.001939 0.125542 
0.00216909 -0.0477096 0.485212 
-4.59855e-19 -3.86406e-19 1 

-0.0201427 0.0172779 -1.23072 
0.0196815 -0.100937 1.57372 
-1.81776e-18 3.71703e-18 1 

-0.0273489 0.0064254 0.00148916 
-0.0404894 -0.0591624 -0.010039 
-3.25684e-18 2.64068e-19 1 

-0.0243188 -0.0210113 0.0184182 
0.0215065 -0.0941653 -0.134951 
4.51764e-18 -2.61051e-18 1 

-0.0289349 0.0108564 0.225881 
0.0351181 -0.0842473 0.0453217 
4.45103e-18 9.9703e-18 1 

-0.0613993 0.0159874 0.0156681 
-0.00255046 -0.0422058 0.0104869 
-8.20278e-18 -7.27853e-18 1 

0.00564969 0.00430458 -0.102812 
-0.0355854 -0.0635274 -0.0688108 
5.19559e-18 6.45166e-18 1 

-0.0348716 -0.0166277 -0.0491824 
0.00388621 -0.0932698 0.074899 
-4.25824e-18 -1.72864e-17 1 

-0.0459272 0.0264636 0.273091 
0.023186 -0.0967419 -0.49809 
1.91872e-18 3.19787e-19 1 

-0.0260886 0.00112019 0.372148 
0.0268287 -0.0566277 -0.278261 
-3.40897e-18 4.69975e-18 1 

-0.00210255 0.0164268 -0.0594477 
0.0296912 -0.0924354 -0.0666665 
7.43441e-18 3.88e-18 1 

-0.025006 0.0146931 -0.0683769 
-0.00498271 -0.123081 -0.0266996 
1.13679e-17 -8.24555e-18 1 

-0.0112393 -0.00137633 -0.466619 
0.0176111 -0.0521802 0.301478 
-1.40675e-19 -3.51689e-18 1 

-0.0396934 -0.0245262 -0.0242033 
0.0213124 -0.0618199 0.166064 
4.37764e-18 -3.38686e-18 1 

-0.0123622 -0.00829157 0.067197 
0.00380429 -0.0408612 0.0471494 
-1.074e-18 -6.67412e-18 1 

-0.00995874 0.0035129 0.0779719 
0.0303586 -0.0946884 -0.169724 
2.20765e-18 -2.92053e-18 1 

-0.0275251 0.0133783 -0.0626589 
0.0451636 -0.0696498 -0.0789359 
1.0059e-17 1.50885e-17 1 

-0.0351313 0.0360889 -0.0231605 
-0.0379065 -0.0792508 -0.024771 
1.52428e-18 8.12949e-18 1 

-0.0457502 0.0193899 -0.0115751 
-0.00737443 -0.0156637 -0.110296 
5.93843e-18 -3.65014e-18 1 

-0.0733385 0.00484081 -0.0766072 
0.00463309 -0.115259 -0.104827 
5.49466e-18 -8.43016e-19 1 

-0.0622562 0.0228398 0.0440627 
-0.0297202 -0.0598224 0.0325967 
-2.03939e-17 -8.06747e-18 1 

-0.0332951 0.0151163 0.0355643 
-0.039481 -0.0106802 -0.176342 
2.40846e-18 6.08063e-18 1 

-0.0450979 0.0230548 -0.130727 
-0.0314777 -0.0464894 0.0727182 
-6.21837e-19 -1.3431e-18 1 

-0.0160441 -0.008821 -0.674238 
5.91825e-05 -0.0810567 -0.074259 
4.55227e-19 -2.22411e-18 1 

-0.0279603 -0.0049533 -0.138659 
-0.0117384 -0.129611 0.266943 
6.94865e-18 6.81355e-18 1 

-0.0502828 -0.01592 0.0175633 
0.0530567 -0.059949 -0.0573446 
-6.0168e-18 0 1 

-0.0239555 0.0198237 0.0739907 
0.0043386 -0.0848554 -0.0617496 
2.11004e-18 4.10298e-18 1 

-0.0221323 0.00482217 -0.0720295 
-0.040537 -0.0417517 -0.148546 
4.87068e-18 -3.92185e-18 1 

-0.0209097 0.00201103 0.430511 
-0.0100509 -0.0707115 0.325203 
2.4035e-18 1.26376e-18 1 

-0.0420424 -0.0109532 -0.160898 
0.0156021 -0.0195059 0.0912877 
-5.5682e-18 -3.37466e-18 1 

-0.0760799 0.0228246 0.0542336 
-0.0049133 0.0176978 -0.0851334 
3.57279e-18 -3.39303e-18 1 

-0.0239756 0.0125054 -0.130369 
-0.0131373 -0.0665394 -0.212768 
1.92388e-18 2.74452e-18 1 

-0.0697806 -0.0159352 0.101938 
0.0171008 -0.0609134 0.065865 
3.32625e-18 -1.71974e-18 1 

-0.0177349 -0.00444635 0.0432684 
-0.0247936 -0.0398287 -0.0230273 
1.67553e-18 7.5822e-18 1 

-0.0144789 0.0015021 -0.2439 
-0.0178017 -0.046654 0.316237 
-3.32021e-18 -7.02758e-18 1 

-0.0713316 0.00307939 0.0642177 
0.0242712 -0.0197771 0.0371301 
4.86825e-18 -4.96582e-18 1 

-0.0473168 -0.0135927 0.0296165 
0.0389267 -0.0648646 -0.00877862 
1.08424e-19 -3.42196e-18 1 

-0.0318502 -0.00163489 -0.0142752 
0.0159693 -0.0770957 0.0887247 
-5.19415e-18 -1.52259e-18 1 

-0.0326141 0.0107375 -0.00602426 
-0.0768441 -0.0329656 -0.19288 
-7.67972e-18 2.48114e-18 1 

-0.0295562 -0.0226095 -0.01598 
0.0023812 -0.0646435 -0.0293087 
-7.39688e-18 9.73766e-19 1 

-0.0223576 -0.015141 -0.0277109 
0.0487359 -0.0539312 0.0414094 
-7.55752e-18 1.30022e-17 1 

-0.00861375 -0.00213554 -0.0496145 
-0.0159699 -0.0556471 -0.0949156 
8.28756e-18 2.83821e-19 1 

-0.00788783 0.0150058 0.401901 
-0.00834652 -0.0358022 -0.950855 
2.50369e-18 -1.67547e-18 1 

-0.0213071 0.0304906 -0.0237556 
-0.0197071 -0.0439706 -0.091586 
0 3.37347e-18 1 

-0.036207 -0.0251573 0.10209 
-0.00168695 -0.00537373 0.0700085 
8.02783e-19 -1.80217e-19 1 

-0.0719317 0.00969049 -0.000608849 
0.00382419 -0.0610278 -0.00143695 
9.76498e-19 3.74731e-18 1 

-0.0168305 -0.00582123 0.866511 
0.00556029 -0.134169 -1.73997 
1.27569e-19 5.74059e-19 1 

-0.0330518 -0.0153916 0.091946 
-0.000461174 -0.0753033 -0.220628 
-1.35983e-17 3.76382e-18 1 

-0.00553283 -0.0136488 -0.0274076 
0.0115485 -0.0611848 0.068734 
-1.35972e-18 9.56215e-18 1 

-0.0177123 -0.0116838 -0.433505 
0.0145768 -0.0561367 1.64238 
5.31045e-18 -3.48276e-18 1 

-0.0340563 0.0331902 0.00477993 
-0.00488861 -0.0654966 0.0271252 
-9.45537e-19 6.14599e-18 1 

-0.0289917 0.014333 0.0864707 
-0.00306783 -0.0709656 0.0893462 
8.54804e-19 -7.14927e-18 1 

-0.0115037 -0.00257481 -0.00548006 
0.00741616 -0.058039 0.177857 
6.94302e-18 5.6552e-18 1 

-0.0253159 -0.0325069 0.0407253 
-0.00959335 -0.065695 0.0533652 
-7.97764e-19 5.4393e-18 1 

-0.0704567 -0.013077 0.015639 
-0.00563442 -0.00853989 0.155967 
-3.01302e-18 4.74107e-18 1 

-0.0422083 0.00664901 -0.150448 
0.0246464 -0.0585006 0.224197 
-1.07923e-18 -4.71849e-18 1 

-0.0248469 -0.00971115 -0.0272908 
-0.003886 -0.0583388 -0.0585749 
-1.28443e-18 -5.52407e-18 1 

-0.0459482 -0.0152656 -0.0140648 
0.0146685 0.00780444 -0.199913 
-4.31784e-18 2.0992e-17 1 

-0.0872032 0.0236893 -0.0577022 
0.023893 -0.125451 0.109077 
-3.72485e-18 4.42176e-17 1 

-0.0471417 -0.0069142 0.0233267 
-0.000926663 -0.0369259 1.10362 
-6.52186e-20 -2.38048e-18 1 

-0.0400375 -0.0121218 0.0848016 
-0.00632364 -0.0965096 0.0195941 
3.36577e-18 2.45e-17 1 

-0.0321265 0.00137461 0.13789 
0.0148016 -0.0670573 -0.274434 
-4.61566e-18 -2.18507e-18 1 

-0.0426399 -0.0395467 2.94803 
0.0189491 -0.0465429 0.273611 
-2.9584e-18 1.39532e-17 1 

-0.0199258 -0.0205215 -0.0125789 
0.0575318 -0.0959643 0.288035 
1.57155e-17 -3.386e-18 1 

-0.0890589 0.0941711 -0.146467 
0.0105776 -0.0984211 0.21721 
3.72494e-18 -6.04424e-18 1 

-0.0176364 0.00178382 0.0193635 
0.0227626 -0.0522078 0.0194912 
9.70914e-19 1.05414e-17 1 

-0.0454567 0.0109797 -0.0199472 
0.00152003 -0.0151757 0.194154 
-8.43906e-20 7.93271e-18 1 

0.007935 -0.0832196 -0.280914 
0.0137334 -0.130469 0.0145728 
9.98347e-19 1.09818e-17 1 

-0.0180958 -0.00532298 -0.0589064 
-0.0198505 -0.131401 -0.424168 
6.54207e-18 -5.27e-18 1 

-0.0146157 -0.00301638 -0.0334164 
0.00702302 -0.075162 0.0112215 
-1.1144e-18 6.6864e-19 1 

-0.00404853 -0.0107693 -0.00738213 
0.00909053 -0.0591461 0.0454477 
1.07836e-18 5.96503e-18 1 

-0.00359176 -0.00479078 0.068431 
0.00962113 -0.106766 0.21415 
2.88173e-18 2.29177e-18 1 

-0.0496979 -0.00909865 -0.280235 
-0.00156013 -0.0433268 0.157121 
-7.48002e-18 1.06706e-17 1 

-0.0291826 0.0236583 -0.0317051 
-0.0331951 -0.0225327 -0.0519543 
-1.04128e-18 3.44925e-18 1 

-0.0523994 0.00355687 0.0496351 
-0.00941523 -0.0837142 0.0562474 
4.75983e-18 7.29481e-18 1 

-0.0750565 0.0240864 0.000573221 
-0.00863236 -0.0177524 -0.187903 
8.60088e-18 -2.95921e-18 1 

-0.0315753 0.0052448 0.0214638 
0.0117041 -0.069187 -0.131816 
-2.03239e-18 -2.50589e-19 1 

-0.0298317 -0.0216961 0.0988824 
0.0238891 -0.0204096 0.0361775 
-1.98187e-19 -2.36409e-18 1 

-0.0280453 0.034947 0.0311857 
-0.0277374 -0.101815 -0.0314408 
6.01736e-18 4.42453e-18 1 

-0.0328656 0.00364123 -0.101231 
-0.0723952 -0.0913949 -0.0945519 
6.60348e-18 -1.3207e-17 1 

-0.0404962 -0.0288369 -0.0559165 
0.0377223 -0.112566 0.0272634 
2.8456e-18 1.5154e-17 1 

-0.0220271 0.00225688 -0.0823629 
-0.037943 -0.072754 0.0479593 
-4.61327e-18 -2.7634e-18 1 

-0.030164 0.000910901 -0.445108 
0.0175836 -0.0885992 -0.0037919 
7.55683e-18 -6.04764e-18 1 

-0.0346777 -0.0114394 -0.0160451 
0.0480383 -0.0499554 -0.146246 
-1.13073e-18 -1.94344e-18 1 

-0.0432724 0.0134897 0.0167118 
-0.0736505 -0.0671428 0.1286 
-1.03168e-18 5.15841e-19 1 

-0.027707 -0.00773031 0.0634802 
-0.0133456 -0.0725655 0.1923 
-5.28883e-19 1.03888e-19 1 

-0.088003 -0.0593139 0.0818884 
0.0221191 -0.0283155 -0.0640699 
2.43699e-18 4.8857e-18 1 

-0.016949 0.0134182 -0.197975 
0.0100063 -0.0969353 -0.210611 
-3.75422e-18 8.82531e-18 1 

-0.0507675 0.0479576 0.102069 
-0.0103438 -0.0560458 -0.0829217 
9.37568e-18 -7.09383e-19 1 

-0.057791 -0.0347903 0.0310819 
0.0225108 -0.0410512 -0.025537 
-2.88556e-18 1.63262e-18 1 

-0.0236273 -0.0378763 -0.143722 
-0.0206021 -0.0885322 -0.0493753 
1.0007e-18 -2.50176e-19 1 

-0.0679919 0.00136958 -0.111565 
-0.0134603 -0.0607845 -0.157974 
2.56967e-18 2.37022e-17 1 

-0.0486139 0.00346775 -0.335644 
-0.010303 -0.0493729 -0.19893 
-1.55711e-18 3.1951e-18 1 

-0.134214 0.0432572 -0.2452 
0.00216288 -0.0646218 0.00654923 
-4.42422e-18 -2.30635e-18 1 

-0.0434261 0.0182496 0.118023 
-0.0195392 -0.025267 -0.034227 
-9.10682e-18 -7.45686e-18 1 

-0.0230081 -0.0170718 -0.0812222 
0.0354522 -0.108544 -0.083157 
1.2574e-17 4.91916e-18 1 

-0.00918689 0.041987 -0.26562 
-0.0273243 0.0145201 -0.0627904 
-3.47809e-18 8.14086e-18 1 

-0.0129609 -0.0192008 0.00162425 
-0.0311428 -0.10213 0.202119 
-5.26776e-18 -1.64617e-17 1 

-0.0512759 -0.00352099 0.0860374 
0.0194528 -0.0294628 0.0677991 
6.98334e-18 -1.04163e-18 1 

-0.0180367 0.0173581 -0.070752 
-0.00420261 -0.0731041 -0.0666874 
5.47396e-18 -9.32199e-18 1 

-0.0293969 -0.00401201 0.0393101 
0.0247284 -0.0453314 -0.14673 
1.99037e-18 -6.31305e-18 1 

-0.0911498 -0.00756789 -0.0138831 
-0.00173431 -0.041937 0.184485 
-3.23799e-18 4.39402e-18 1 

-0.0469778 -0.0254499 0.331012 
0.0114417 -0.0606067 -0.723493 
-2.56339e-19 9.96598e-18 1 

-0.0228058 -0.0160087 -0.0079317 
0.0222955 -0.0901771 -0.0277737 
5.30884e-18 5.08166e-18 1 

-0.0283892 0.00718054 -0.0593195 
-0.023518 -0.0611719 -0.207211 
-1.29454e-17 -5.48532e-19 1 

-0.0226001 -0.0104186 -0.0111768 
0.00120309 -0.0629037 0.560523 
-2.34117e-18 1.10815e-17 1 

-0.0261513 0.0173874 0.0856284 
-0.020799 -0.0276399 -0.0664602 
1.74605e-18 1.15508e-17 1 

-0.111342 -0.0301131 -0.0137778 
-0.0324192 -0.0584206 -0.420715 
6.78302e-18 -4.77205e-18 1 

-0.0264629 -0.0386534 0.0354071 
0.00306621 -0.0402417 -0.0904194 
2.33423e-18 -5.03213e-18 1 

-0.0226694 0.0135518 -0.182289 
-0.0409167 -0.0610376 0.484586 
-1.99317e-18 -5.27445e-18 1 

-0.0660029 -0.00710553 -0.0707283 
0.0181338 -0.0677832 -0.431357 
-1.02025e-17 2.53484e-19 1 

-0.0246956 0.0123414 0.174063 