# vtk DataFile Version 3.0
Output file generated by Yade's KinematicLocalisationAnalyser
ASCII
DATASET UNSTRUCTURED_GRID

POINTS 13483 float
446.634 54.7045 -0.481971
521.37 83.0649 0.454758
104.717 5.94886 -0.58427
551.099 5.49861 0.402529
397.453 10.9644 0.615428
273.68 44.5916 -0.470898
138.836 7.08598 0.460059
426.072 40.8669 0.1655
394.413 27.7603 -0.188049
508.966 15.8516 -0.559701
185.241 8.96736 0.127562
227.36 6.65701 0.326378
480.494 70.4127 -0.169168
460.827 54.5897 0.0742602
120.948 17.9658 0.549882
195.256 37.4899 0.41201
192.394 13.0447 -0.322988
254.684 11.5537 0.538116
294.588 41.8931 0.467456
417.637 8.09332 0.488831
340.464 47.0659 -0.155117
435.334 81.0678 -0.277463
546.285 47.5033 0.434309
495.323 65.8511 -0.393897
376.527 24.5305 -0.362839
210.76 51.1373 0.123095
388.761 37.5479 0.486529
434.89 49.9185 -0.255548
39.2949 16.9679 -0.457868
500.179 34.4936 0.370789
385.82 5.96238 -0.49149
15.7753 25.4204 -0.341175
534.165 90.5945 -0.253262
392.892 2.30123 0.568877
68.8009 48.1956 0.1106
416.744 32.9879 -0.458423
423.372 16.1321 0.539164
296.077 27.1591 0.186267
422.777 30.5844 -0.379357
301.518 45.527 0.469989
213.167 15.6972 -0.33011
357.522 46.4649 0.0741036
475.762 6.70747 0.194961
170.02 6.09823 0.452876
49.0038 7.36437 -0.0729689
59.5407 9.1945 0.260972
485.559 13.9489 -0.594815
20.7918 12.2166 -0.26455
438.594 94.7718 -0.353833
490.432 62.6075 -0.302306
151.443 34.2312 -0.218773
527.479 68.8534 0.163429
29.6764 31.1301 0.144677
426.63 2.68041 0.530873
125.903 7.72713 -0.558296
438.037 68.9812 -0.399078
400.267 31.3347 0.128793
157.5 0.993581 0.249183
29.7087 2.30625 -0.361757
300.659 19.8545 0.41886
449.339 94.5597 -0.132094
367.951 54.1364 -0.176913
333.061 1.00486 0.245449
493.683 6.83829 0.618774
22.7812 48.8882 0.247905
227.706 33.2741 -0.291053
511.477 10.6537 -0.249757
489.327 99.6627 -0.342454
346.173 9.03602 -0.63416
434.943 23.0429 -0.456519
517.515 50.7961 0.442171
114.873 7.8062 0.277395
395.557 30.947 0.181563
384.338 21.3757 -0.154096
259.717 17.2829 -0.571624
18.3255 14.5841 0.266627
545.088 88.3372 0.32273
286.773 47.3047 -0.299062
476.121 27.7693 -0.453154
484.647 19.7491 0.379299
539.54 14.8299 0.337044
369.948 54.8955 0.165964
82.5955 42.5756 0.0160102
495.26 73.4696 0.214194
477.01 82.3704 0.112525
553.377 50.4511 -0.146826
536.399 0.765985 -0.592394
256.608 31.6835 0.48367
456.382 24.2203 0.132038
22.1011 5.81226 -0.658979
116.581 41.9554 -0.137174
409.024 15.6169 0.206138
544.526 75.0353 -0.521917
174.439 32.5192 -0.276504
38.5563 37.3759 0.285093
391.988 1.11687 -0.11221
208.89 9.67236 -0.428574
510.41 63.4513 0.332785
535.307 66.0996 0.278614
308.748 29.2216 -0.333895
144.891 28.1345 -0.458593
397.942 75.5138 0.389172
321.323 20.5379 -0.537298
341.835 39.0971 0.157215
319.097 9.82421 0.472837
437.675 19.8612 -0.145499
553.588 16.1098 0.2736
70.7937 43.1832 -0.539289
290.979 7.83943 0.290972
422.009 37.5824 0.437429
304.056 63.733 0.499474
22.9172 28.8393 -0.542535
27.6108 6.10281 -0.333904
418.239 67.3677 0.450588
403.26 27.4537 -0.218259
21.9824 42.2015 -0.424775
83.0258 33.6382 0.271862
282.838 19.8133 0.402336
445.356 41.6103 0.164842
381.49 54.8139 0.379417
523.877 17.4354 -0.546424
517.629 14.6296 0.232249
324.224 51.0995 -0.100236
465.295 68.2609 0.135427
212.08 18.4321 0.551127
288.256 6.40739 0.508246
92.1219 34.2249 -0.299515
102.548 26.12 0.264656
394.92 79.5846 0.0718927
269.333 22.4045 0.639358
495.962 40.3995 -0.183626
493.444 96.8972 -0.102968
385.101 30.2198 0.428422
548.662 57.6188 -0.252522
354.258 30.3986 -0.296716
245.651 27.3958 -0.343545
492.201 80.5867 -0.339927
247.105 33.0573 -0.497742
433.911 40.5522 0.248542
288.239 44.146 0.198354
403.539 13.2593 -0.672911
312.505 44.7995 -0.118116
354.05 20.4336 -0.207852
277.054 54.6944 -0.431829
170.721 33.4988 0.159022
526.008 83.9374 -0.172592
550.605 16.8584 -0.396677
5.80238 13.3211 -0.43548
358.13 27.6521 -0.437223
33.3138 25.477 -0.0992204
321.037 41.2003 0.506683
332.379 30.4242 -0.279812
65.9706 12.733 0.553462
45.6753 35.264 0.374809
201.502 15.3175 0.55065
449.275 83.1799 0.430487
431.88 54.4401 -0.539898
66.6407 23.2137 0.633122
498.379 62.9969 -0.518905
539.633 38.7699 -0.634678
480.94 95.4062 -0.448798
490.107 2.74653 -0.6844
401.863 62.0624 -0.414249
436.187 82.4431 0.488624
412.368 19.2056 -0.42392
548.412 3.89663 0.53144
198.933 26.9885 0.18424
113.321 37.6904 -0.243655
220.561 6.83258 0.474775
82.8595 4.79974 0.283389
56.6314 11.8346 0.299608
245.997 41.5277 -0.298657
15.9697 27.1816 0.357792
414.388 52.5422 0.414307
436.879 90.0947 0.195398
370.02 39.7686 0.38553
551.172 101.502 0.362448
341.626 10.9285 -0.186146
352.493 56.3104 -0.364261
434.059 3.2472 -0.37979
20.5646 26.8168 0.565408
440.817 20.3485 0.522133
439.011 7.97367 -0.532571
184.253 11.7689 0.513811
351.934 19.7924 -0.484907
275.832 6.12631 0.474867
329.352 24.487 -0.516133
505.355 57.839 -0.124072
173.397 29.4725 -0.477225
531.105 6.08271 -0.524219
506.139 52.5959 -0.351485
326.591 11.9671 0.234561
510.331 1.97485 -0.603722
450.098 51.763 -0.43786
522.755 37.39 0.519992
341.284 62.6415 -0.261209
400.538 16.4146 0.542702
377.526 62.9946 0.24336
367.526 11.4727 -0.141484
484.673 94.1582 0.259809
483.32 89.7316 -0.281374
171.59 43.1556 -0.423327
537.88 16.0765 -0.233445
419.98 84.1667 -0.241698
10.9638 18.1546 0.221613
338.494 33.9964 0.425038
168.456 26.8152 0.410826
83.841 44.0166 -0.252393
545.215 71.553 -0.403861
478.267 100.7 0.231527
280.445 31.3441 -0.493473
431.407 10.0997 0.524606
73.6821 47.9975 -0.205692
222.337 28.1461 -0.539182
411.95 58.6543 -0.331216
393.268 26.3644 0.482372
235.214 0.875967 -0.482807
408.389 76.6127 -0.360605
389.078 80.0653 -0.440827
388.992 45.7672 -0.458556
401.534 2.47101 -0.641038
495.899 18.3543 0.679869
161.975 14.5117 -0.275274
404.942 40.1221 0.603146
418.829 75.7777 0.107175
64.8531 0.973645 0.3491
225.417 4.72504 0.237469
549.819 18.725 0.194323
539.913 16.3995 -0.560526
554.978 23.7283 -0.619003
269.185 8.84901 -0.469851
523.222 43.1543 -0.452592
342.274 53.4608 0.396423
369.364 0.787842 0.619251
482.334 77.37 -0.430382
23.4762 35.9189 -0.344962
288.753 50.4502 0.51644
226.354 3.00609 0.430874
538.438 90.4132 0.169785
513.157 91.043 -0.236805
256.61 13.0899 0.396685
485.53 78.4083 -0.0846449
447.634 2.64888 0.270429
435.595 12.7147 0.625152
86.9764 20.2288 -0.445656
268.969 0.909242 0.252405
299.14 2.31996 -0.361848
12.8703 8.06731 -0.609135
4.30326 32.4933 -0.314003
145.018 20.0417 0.349898
60.8485 44.7909 0.242324
58.8188 31.939 -0.298986
351.475 16.0243 -0.605213
316.352 56.803 0.470356
525.323 69.1196 -0.143789
17.9505 4.02786 0.292396
62.7099 7.42757 0.163422
457.759 81.548 0.130604
261.985 2.37313 0.508901
313.532 24.3853 -0.120096
211.076 5.40675 0.412804
483.214 58.6357 0.228108
370.89 8.95654 0.642102
525.631 44.9633 0.511582
464.322 71.4833 0.290704
475.734 25.7604 -0.102797
351.36 33.9352 0.584689
92.2576 49.5428 0.309378
399.363 82.2828 -0.0658544
523.811 28.5006 0.344141
213.647 32.6561 -0.276605
27.9165 19.5329 -0.212954
294.987 16.8696 0.569395
97.3159 44.6423 -0.458589
239.182 47.2911 -0.200895
358.342 4.04736 -0.277277
545.533 83.3674 0.384965
485.557 2.17356 0.67257
290.181 4.92802 -0.511954
265.207 32.6981 -0.147133
375.621 60.3928 -0.219957
72.1839 9.44802 0.599256
177.238 50.1788 0.392023
535.931 69.5674 0.448046
401.958 43.3807 -0.148551
179.629 46.2249 -0.309258
142.407 44.975 0.508032
554.581 44.2022 -0.523281
552.05 15.6898 -0.59139
450.623 17.4115 -0.663754
172.067 28.3409 0.103623
403.653 64.5884 0.103931
405.684 64.0758 -0.288674
344.541 6.46243 0.130539
391.35 3.05707 0.332741
521.696 70.2616 -0.541217
76.9139 34.032 0.238485
469.624 39.292 -0.424149
244.98 16.6061 -0.580177
8.13771 2.7109 -0.432466
113.659 42.1092 -0.206432
59.7053 25.2601 0.634448
492.367 42.0677 -0.396251
538.911 98.8069 0.160799
167.11 31.9273 -0.192314
548.198 14.4673 -0.484348
40.1313 38.9229 -0.296256
82.0378 31.8655 0.238571
469.092 51.1273 0.515555
345.641 24.4799 -0.660609
420.44 16.6588 0.156077
214.111 30.6274 -0.187985
460.093 12.9048 0.682724
555.304 17.2727 0.605711
26.0416 37.1194 0.34618
242.081 7.9081 0.233969
199.066 16.3868 0.286234
1.05266 36.9511 -0.156845
202.297 16.1194 -0.470504
190.046 10.9542 0.226546
192.435 29.1802 -0.3116
118.515 29.3011 0.191906
415.344 42.5542 -0.411498
150.303 15.2865 -0.376332
533.164 87.3564 0.226233
158.1 5.0268 0.612685
42.3194 40.1695 -0.479824
504.804 76.0847 -0.45585
251.717 35.4691 0.436559
477.321 48.7563 -0.588058
553.695 91.155 0.484332
268.129 10.2375 0.257606
511.697 42.113 -0.484513
288.822 2.49259 0.50787
347.589 30.9616 -0.511193
476.901 18.8645 0.736596
93.6307 13.2259 -0.603355
392.571 6.66934 -0.66509
528.048 45.6294 0.181163
78.0446 8.30245 -0.28375
251.989 16.3065 0.210404
352.543 14.4459 -0.329045
549.343 6.09387 0.577642
337.88 2.02748 -0.519257
158.343 42.0465 -0.318796
527.001 29.2685 -0.531486
115.142 38.7357 0.179727
236.182 34.0117 -0.443304
337.584 27.4901 0.243516
436.107 42.6614 0.635845
329.296 10.287 -0.587681
367.569 47.8585 -0.41924
522.865 82.6938 0.416532
42.5654 12.7964 -0.231096
263.463 46.1703 -0.277142
326.245 36.5893 -0.374967
343.569 25.7549 -0.372164
376.199 82.3028 0.354952
517.536 64.4532 0.215202
487.645 87.9567 0.365442
203.558 37.3498 -0.426954
12.4469 33.1072 -0.184571
481.736 91.0375 0.123345
366.422 72.3284 -0.446742
206.928 42.3185 0.133007
482.098 48.0092 -0.121893
136.078 9.5022 0.26143
314.324 32.181 0.411732
377.622 60.7908 0.108564
345.44 26.3304 -0.22085
517.991 81.5928 -0.0677309
356.482 7.84855 0.61883
43.3579 27.545 0.336701
379.886 47.7306 -0.356004
347.012 69.0443 0.291936
539.194 84.2431 -0.238765
510.907 38.9666 0.356367
408.429 50.6642 -0.159389
532.18 79.1147 0.453085
262.127 3.55584 -0.568691
318.881 44.6748 0.524626
25.0562 44.1901 -0.316162
512.491 44.4363 -0.173816
456.418 44.2298 -0.492265
379.212 2.58087 0.719251
112.277 4.71094 -0.380315
356.465 50.8422 0.114601
10.3747 0.960653 0.461816
548.644 8.03979 0.374145
320.211 61.346 -0.399273
[...]
POINT_DATA 13483
TENSORS Strain_matrix float
0.00665272 0.0113569 -1.00672 
-0.0187389 -0.00570442 0.0125093 
-0.00247785 -0.000381097 -0.0168466 

-0.167372 0.304937 2.99561 
-0.128011 0.20768 -0.11315 
-0.0214316 0.0166942 0.0121546 

-0.00542292 -0.0310015 -1.68082 
0.0058834 -0.0573643 -1.53527 
-0.00121334 -0.00089743 0.334828 

-0.0863716 0.0543695 -0.0896246 
-0.0300807 0.112883 0.0851829 
0.0166089 0.0346157 -0.0598823 

-0.024991 -0.0434259 -0.235658 
0.0271798 -0.000405675 -0.200703 
-0.00182635 0.000723501 0.0473587 

-0.0186852 0.0286136 -0.261158 
-0.0430048 0.0390227 0.713123 
-0.00228967 -0.0168421 -0.442529 

0.00640675 -0.029917 0.137021 
0.0060506 0.00491223 -0.00466395 
0.00189525 0.00211592 -0.00674963 

-0.0132271 -0.0446399 -0.042114 
0.0681075 0.0158027 0.023808 
0.00148333 -0.00219191 0.0179038 

-0.16394 -0.10859 -0.851597 
-0.182309 0.173979 -0.914786 
-0.0284567 -0.0170238 0.320509 

0.0062666 -0.0259127 0.027232 
0.0304323 -0.00305863 0.0902419 
0.000433073 0.00425049 0.000263087 

-0.0693216 0.0426453 -0.00895024 
-0.126697 0.0962 -0.110942 
0.0295168 -0.00987256 0.0847663 

-0.0795021 0.026842 -0.173312 
0.11781 0.0666909 -0.483809 
0.0567748 -0.0155264 0.218984 

0.0188995 -0.0744626 -0.322088 
-0.0557104 0.0248962 0.202321 
0.00416155 0.0563164 0.40485 

0.00604645 -0.025755 -0.0158532 
0.0270302 -0.0136299 0.0303146 
0.00200328 -0.0035325 0.0191166 

0.00529368 -0.0207584 0.468829 
0.00464589 0.00643714 -0.487008 
-0.00070872 -0.00222222 0.18039 

-0.00692918 0.00629691 -0.0991575 
-0.000794203 0.0233997 0.165034 
0.000555532 -0.000472635 -0.0386484 

-0.0743774 -0.0434338 0.06572 
0.0689394 0.00480284 0.0399805 
0.0285876 0.027438 -0.0404139 

-0.0275014 -0.0183596 0.035006 
0.0322761 -0.00546971 0.0496122 
-0.00172568 0.00227755 0.045111 

-0.00875093 0.068031 -5.91873 
0.144516 -0.00740345 -5.86015 
-0.01144 -0.0119444 0.407236 

-0.0177466 -0.00554087 -0.0198477 
0.040116 0.0203208 0.00589346 
0.00471971 -0.00398406 -0.00288574 

0.0270675 0.123981 -0.00178956 
-0.114372 0.00687249 -0.00891729 
0.00103602 0.00287169 -0.0226565 

0.0511468 0.0479581 -0.0404223 
-0.0352023 -0.0549675 0.1078 
-0.00243142 0.00621283 -0.0438224 

-0.147441 -0.117893 0.199749 
-0.420459 0.0288633 -0.825824 
-0.00891995 -0.0135223 0.0379384 

-0.0298596 -0.121844 0.0372613 
-0.264573 0.132858 -0.102933 
-0.000870437 0.011166 -0.106673 

0.0118607 0.133758 0.750609 
-0.0897099 -0.0219906 0.277288 
-0.00243463 -0.00601016 0.217753 

-0.071594 -0.275925 -2.9 
0.0257671 0.492067 -0.630715 
-0.0140361 0.04359 0.307361 

-0.0500068 -0.0830586 0.520703 
-0.123199 0.0588879 3.79075 
-0.00322063 0.00358102 0.105243 

0.00762761 -0.0466259 -0.0542605 
0.023068 -0.00325875 0.0437623 
-0.00110306 0.016308 -0.0543778 

0.013837 0.0030099 0.0328266 
0.00394769 -0.00785735 -0.0583502 
0.000604992 -0.000745745 -0.0234195 

-0.00795255 -0.00704942 -0.0136211 
-0.00599965 0.00819375 -0.00841549 
-0.00082293 -0.000133017 0.00369875 

0.00244777 -0.0181034 0.00248485 
0.0098486 -0.0253552 0.00345409 
0.00148488 -0.00662442 0.0267286 

-0.0617634 0.0624991 0.4154 
0.0204721 0.0686984 0.0238828 
0.00435063 0.004461 -0.0239932 

-0.0180883 0.0340889 -0.0775869 
0.0361923 0.0753826 0.931022 
-0.00128763 -0.00186719 0.0187595 

-0.0171343 0.0116055 -0.128941 
0.084634 0.0353053 0.604995 
0.0174204 -0.00179525 0.066036 

-0.0110186 -0.0273312 -0.109364 
0.0504485 0.00874389 0.0339047 
-0.0292478 -0.120369 0.350925 

-0.506362 -0.348067 -0.0591542 
0.232192 0.287669 -0.173902 
0.0100939 0.0175684 0.0788886 

-0.0153367 -0.0331164 -0.0613754 
0.00204813 0.00347879 -0.112021 
0.000124184 0.00273847 0.0577461 

-0.406484 0.132189 -0.491905 
-0.19917 0.168284 -0.0409224 
-0.0856873 -0.0540065 0.448852 

-0.307283 -0.765841 -2.60421 
0.423729 0.533877 1.48744 
0.0151344 0.00514345 0.0412909 

-0.274019 -0.230431 -15.5824 
0.283848 0.196501 -4.99929 
0.00443009 -0.0131276 0.263394 

0.00951989 0.0398746 -0.0208661 
-0.0462088 0.00144548 0.0301252 
0.00438734 -0.00205294 0.00262351 

-0.013131 -0.0656062 -0.169958 
-0.0829684 -0.0383775 -0.382718 
-0.00128685 -0.0237494 0.144954 

-0.0524939 -0.0736741 0.132875 
0.0685801 0.0590546 -0.0765827 
-0.0141698 0.0200052 0.0351284 

-0.14283 -0.0168213 0.218863 
0.0149056 -0.040005 1.41177 
0.0086087 0.00981061 0.0621491 

8.75107e-05 -0.000410618 -0.00159473 
0.0516001 0.00529961 0.0193869 
-0.00387609 -0.00211669 -0.00465707 

-0.0525374 0.103109 0.0747933 
-0.0845575 0.031878 -0.225013 
0.00990808 -0.0188836 0.214492 

-0.00917188 0.012241 0.00290842 
-0.0160909 0.00851575 0.0159742 
0.00207525 0.00341364 0.00875917 

-0.000162054 0.0142959 -0.00889718 
-0.0229432 -0.00791081 -0.0181836 
0.000261987 0.00242664 0.0114861 

0.03365 0.00433911 0.407855 
-0.0836351 0.00868602 -2.1194 
0.0210671 -0.0156787 0.588336 

-0.164539 -0.102406 0.292387 
-0.141617 0.2561 -0.111445 
0.0051147 0.0129245 0.160131 

-0.11592 -0.183633 0.290163 
0.184703 0.203678 -0.303598 
-0.00238575 0.0613944 0.342409 

0.00905956 -0.0159339 0.0819067 
0.0337634 -0.00209069 -0.0189275 
-0.000593923 0.00134122 -0.0250595 

-0.0035207 0.00850863 -0.0625625 
-0.0812397 0.0183284 -0.0514302 
0.00140098 -0.00683697 0.0582152 

-0.0393576 0.0305193 0.0315759 
-0.0229502 0.0257583 -0.0537559 
-0.00299965 -0.00267904 0.00202741 

0.00486549 -0.0135731 0.00313826 
0.00282403 0.00833135 0.0036512 
0.000673176 -0.00066187 -0.00969799 

0.0494144 0.000853464 -1.28392 
-0.00955469 -0.00574895 1.44853 
0.00294082 0.00410761 -0.0263851 

0.0188181 -0.14632 0.106234 
-0.199813 -0.082794 -0.244603 
0.00309369 0.0536068 0.291021 

-0.546835 0.643037 -0.831735 
0.14647 0.673845 -0.441001 
0.00625415 -0.0978609 0.522555 

0.000175445 0.000326682 0.012759 
0.00272918 -0.00450834 -0.004136 
8.38926e-05 0.000108576 0.00424996 

-0.0873969 -0.0444544 -0.273878 
0.0718255 0.0386446 0.836304 
-0.000430491 0.00926526 0.139281 

0.118901 0.101975 -0.0145555 
0.0177791 -0.0856311 0.0539342 
0.00432846 -0.0472093 0.372404 

0.0334364 0.158963 -0.0999547 
-0.187948 0.000113992 -0.0530732 
0.000467491 0.00144807 -0.0138319 

-0.00843577 0.00675873 0.286253 
-0.0453144 -0.0756999 -0.119945 
-0.0244804 0.0519196 0.0663549 

-0.00700542 -0.00812313 -0.415511 
0.0224324 0.00263752 0.174724 
0.00310957 0.00129151 0.224114 

-0.00288117 -0.0460778 0.0050819 
0.015634 0.00601238 0.0914671 
-0.000183804 0.00217325 0.00228276 

0.0106578 0.0446298 -0.00644657 
0.0119511 -0.0101893 0.0182646 
-0.14055 -0.0536063 0.453693 

-0.0040588 -0.0173013 -0.00868317 
0.00845429 -0.00109929 0.0129622 
0.00223411 -0.00322951 0.00240377 

-0.0472142 -0.0211432 0.570728 
-0.0565186 0.0518905 0.115627 
-0.0013909 0.00906181 1.91493 

-0.262161 0.0701217 0.99938 
-0.143643 0.204759 0.0155291 
-0.0129837 -0.0173044 0.370596 

-0.522185 -0.918188 1.80139 
0.359299 0.581086 -1.37375 
0.029349 0.0211866 0.0988462 

0.00834378 -0.0138542 -0.0054603 
0.0370253 -0.00104154 0.00065676 
-8.06841e-05 -0.000495674 -0.0117889 

0.00675016 -0.000401372 0.00806952 
-0.00254061 -0.00421229 0.00671794 
0.000387931 0.000514124 0.00108401 

-0.0918253 -0.233546 -0.441493 
-0.0965088 0.0648937 -0.277115 
-2.76965e-05 -0.0263757 0.015893 

-0.389388 0.0874054 -0.117365 
0.125927 0.237985 -0.0130984 
-0.0127196 -0.113124 0.334845 

-0.0603013 -0.0786388 -0.152327 
0.0897536 0.0551212 0.174038 
-0.0276397 -0.026112 -0.24946 

-0.00673166 0.0219032 0.0208527 
-0.0139159 0.0138056 -0.00791981 
0.000383915 -0.00133142 -0.00284842 

0.0169136 -0.0293334 0.118373 
0.0349901 0.00550864 0.0831924 
0.0141949 0.0226364 0.49589 

0.04141 -0.0238423 0.119098 
0.0226798 -0.0309523 0.0754003 
0.00156457 0.00135866 -2.04686e-05 

-0.0995089 -0.176445 -0.0608445 
-0.306581 0.0424082 -0.078683 
0.0106459 0.000366717 0.00247273 

-0.0158397 0.00223584 0.0193154 
0.0218562 -0.00139729 -0.0179212 
-0.00624109 0.000509943 0.0132855 

0.0275703 -0.067138 0.0495938 
0.011867 -0.0424362 0.117954 
0.0051247 -0.00644617 -0.0138153 

0.0335107 0.172907 0.0133719 
-0.201182 0.0103001 -0.146252 
0.0017021 0.000237363 -0.0472481 

-0.124587 -0.141962 -0.260891 
0.197502 0.123211 -0.0812998 
0.0240936 -0.00501383 0.430748 

-0.0461715 0.114075 -0.429753 
-0.146724 0.177603 -0.00477886 
-0.00311219 -0.0160939 0.159345 

-0.00699718 -0.00521171 -0.0410531 
-0.0023221 -0.00527175 -0.00507223 
0.000268508 -0.0014178 0.0219594 

-0.015108 -0.0291955 0.106554 
-0.00535674 0.0089037 -0.0181151 
-0.00891915 0.00610395 0.0183911 

-0.00494947 -0.0365425 0.289666 
0.00137682 0.0162316 -0.120029 
-0.00310644 0.0177505 -0.148821 

-0.221353 0.0875145 -0.295883 
0.0913332 0.0292209 2.09802 
-0.040848 -0.0392445 0.155647 

0.0287327 -0.00966942 0.0235275 
-0.269081 -0.00794956 -0.126604 
-0.000949228 -0.00169071 -0.131117 

-0.0124997 0.000288009 2.474 
-0.000160641 0.00763827 -1.81432 
-0.00118037 -0.00164954 0.37415 

-0.209661 0.300105 -0.0956556 
-0.00639069 0.264521 0.0345725 
0.0107716 -0.0681652 0.132652 

-0.010304 -0.0232107 0.00248073 
0.0175335 0.00747233 -0.00997987 
0.00190046 -0.000752931 0.00490462 

0.00269027 -0.00348004 0.621275 
0.0214878 0.0103255 0.589505 
-0.00198785 -0.00221525 0.287928 

-0.00459814 -0.0960065 -0.0050711 
0.0772817 -0.00288651 -0.250955 
-0.0053809 -0.00400404 0.0287848 

-0.0284618 0.0249049 0.0286538 
-0.0731206 0.00111974 0.424605 
-0.000437664 0.0201061 0.0595575 

-0.00966297 0.0641663 -0.00743507 
0.0247821 0.0186545 -0.0779206 
-0.0396004 -0.0246953 0.114594 

-0.0456797 0.000632479 -0.291524 
0.0802924 0.0449467 -0.345077 
-0.00544833 0.0120122 0.225551 

-0.0731423 0.0661841 0.122285 
0.27016 0.000598839 -0.0693358 
0.00564834 0.00386891 0.101568 

0.0113414 -0.00781827 0.00124263 
0.0263323 0.00325701 -0.00755881 
-0.000109224 0.000498757 -0.0231117 

-0.0648481 -0.189245 -0.0137085 
0.238669 0.0181752 -0.0805127 
-0.027244 0.00695455 0.21443 

-0.0400742 -0.0522233 -2.006 
0.0337794 0.0610613 0.768824 
0.0291086 -0.0552142 -0.454431 

-0.0047745 -0.0171397 0.327655 
-0.0119684 -0.0123264 0.268261 
-0.00462327 -0.00335937 0.0250521 

-0.0706993 0.0664522 -0.185608 
-0.0950969 0.0689819 -0.848485 
0.00246725 -0.0193609 0.253558 

0.0202348 0.0764523 0.00722477 
-0.0911261 -0.00676676 -0.0175607 
0.0152658 -0.0040972 -0.0163775 

-0.0164107 -0.00117552 1.05945 
-0.0208146 -0.0336276 -1.01359 
0.0130708 -0.0136312 -0.179506 

-0.856695 -0.694483 1.43577 
-0.280706 0.351746 -0.816795 
0.0499534 -0.000220617 0.322371 

0.0294099 -0.0389491 -0.0648086 
-0.00841762 -0.0184022 0.0193781 
0.00514118 0.00284782 0.020362 

-0.027571 -0.0386028 2.19568 
0.00983033 0.0415601 0.325399 
-0.00401632 -0.0133492 0.209627 

-0.0157273 0.142574 -0.158162 
-0.196135 0.0439111 0.0354052 
0.00160569 0.0234557 0.226533 

-0.162448 -0.196015 2.01343 
0.282773 0.243391 -2.13828 
-0.0122702 0.0145346 0.109704 

-0.0714213 -0.490598 -8.63411 
0.0362576 -0.105124 -20.18 
-0.00210807 0.0167015 0.795978 

0.00473287 0.0467393 -0.109991 
-0.0114523 0.0242902 0.107469 
0.0131413 -0.00455026 -0.0617645 

0.00174748 -0.00240674 0.00946216 
0.00285078 -0.0127457 -0.0182665 
-0.000784111 -0.000501844 0.00927483 

0.00346264 -0.00676407 0.0398159 
0.0107118 -0.00931739 0.263271 
-0.00267392 0.00139539 -0.0260505 

-0.0540244 -0.272519 -0.216093 
0.0279933 0.0285842 -0.0392535 
0.0157893 0.00862375 0.399366 

0.0165591 -0.0156993 -0.0632505 
0.01682 -0.006293 -0.0583736 
0.002035 -0.00064023 -0.0225057 

-0.122831 0.0190095 0.0444612 
-0.0407701 0.107691 -0.23595 
-0.0344715 -0.00449376 0.170372 

-0.0894372 0.113718 -0.912395 
-0.0100021 0.098376 -0.656269 
0.0234298 0.00799148 -0.0884553 

0.00456131 0.00647847 -0.00973414 
0.0132471 -0.00755025 -0.0206487 
-0.000613467 0.00309523 0.00857994 

0.0209927 0.271683 -0.250632 
-0.288979 0.0781356 0.0305543 
-0.00357427 0.00247658 0.0904851 

0.0162472 0.0248043 0.0587804 
-0.00945146 0.0372272 0.0480418 
0.000288542 0.00214333 -0.0188731 

-0.00609461 -0.000440833 0.00588118 
0.0164522 0.00100719 -0.00377152 
-0.000631255 -0.00101223 0.0223048 

0.00720466 0.11892 -0.0122904 
-0.11938 0.00436921 0.0711633 
-0.002128 -0.00443197 0.0031061 

0.00651455 0.00353895 -0.00937254 
-0.0318514 -0.00365907 -0.00263206 
0.000501429 0.000787399 0.000557884 

-0.0107748 -0.0205883 1.18226 
-0.0460437 -0.00347838 1.87524 
0.0059036 -0.00217322 0.679541 

-0.237434 -0.0299354 -0.275124 
0.059335 0.367915 0.186315 
-0.0142121 0.00266127 0.128599 

-0.0223278 -0.0507139 0.206106 
0.0673985 0.041464 -0.12112 
0.0124592 -0.0487808 0.283093 

-0.0411329 0.24671 -0.401258 
0.0335291 0.0732617 0.0620764 
0.0475956 0.0513655 0.210927 

-0.00516927 0.0193596 0.0182453 
-0.00579274 0.0050422 0.0100919 
0.00918302 0.00051811 0.0428739 

-0.0832267 -0.0678089 -0.974554 
0.108358 -0.0677897 -7.21923 
0.0207249 0.00424528 1.88514 

-0.00335394 -0.023527 -0.0272796 
0.0013774 -0.00784441 0.0115103 
-0.00102386 1.14486e-05 0.0125042 

0.00891833 0.018876 -0.0210283 
-0.0297374 -0.014808 -0.0071051 
-0.000652894 0.0633954 0.0892097 

-0.063514 -0.323841 0.381932 
-0.240827 0.041248 0.0283668 
0.0130754 0.0590364 0.403596 

0.00236876 0.0242358 -0.0220769 
-0.024657 -0.00563085 -0.0171026 
0.00099619 1.05397e-05 0.0110738 

0.022462 0.0981018 -0.0663156 
-0.156709 -0.050088 -0.211355 
-0.00146311 -0.000679349 0.00683356 

-0.170104 0.140905 0.576417 
0.0162868 0.1513 -0.339161 
0.0049447 0.0586442 0.535701 

-0.0301601 0.0424264 0.111388 
-0.0455995 0.0164413 -0.153169 
-0.00463253 0.0125821 0.00868904 

-0.135033 -0.0155814 2.35537 
0.0398728 0.150613 1.42735 
-0.0155598 0.0163421 0.10625 

-0.14528 0.142962 0.243396 
-0.0870153 0.321459 0.110362 
0.0522876 0.00813155 0.245509 

-0.00824416 0.0185744 -0.0155213 
0.0313069 0.02305 -0.0682598 
0.00463899 -0.00663414 -0.0661032 

-0.0292225 -0.0194425 -0.170962 
-0.050255 0.00438082 0.154695 
-0.000959131 0.000517472 0.0477365 

-0.783319 -0.185276 -0.0744773 
-0.668117 0.757827 -2.84056 
-0.0237294 -0.015121 0.0729635 

-0.0514185 0.143461 -0.176926 
-0.0797788 0.124151 -0.406482 
0.00420984 -0.00636572 0.0459409 

-0.0721318 -0.248888 6.11923 
-0.122967 0.528596 -14.1165 
0.0259728 -0.0349861 0.915565 

-0.014729 -0.0519985 -0.0979883 
0.0367791 0.0181596 -0.0164578 
-0.00988984 0.0120677 0.100555 

0.00996421 0.0266624 0.0197483 
-0.0405661 -0.0011111 0.0412364 
-0.0159838 -0.0247103 0.214627 

-0.00249514 -0.0406833 0.0281646 
0.0139825 -0.00117019 -0.00621645 
0.00206157 -0.000723488 -0.00537293 

0.000333376 0.0056592 -0.0154937 
-0.0026772 0.00706577 0.00191281 
0.000120128 0.000140119 -0.00425697 

0.0085367 0.073491 -0.0244468 
-0.0916845 -0.0198517 0.22135 
-0.00235705 -0.000438523 -0.0771888 

-0.013533 0.00423839 -0.0101188 
-0.0282455 0.0024899 0.019172 
0.00127297 0.00179179 0.0219853 

-0.519812 -0.696044 -10.581 
0.201114 0.534744 7.15984 
0.0069158 -0.0272528 -0.254262 

-0.711077 -0.220459 -0.0404734 
0.162232 0.485555 -0.504789 
-0.0349612 -0.00572239 0.254582 

-0.0444126 0.0332029 0.374415 
-0.00247621 0.0423737 0.176287 
-0.00234421 -0.000218492 0.122404 

0.00506554 -0.0321312 0.0255304 
0.0723707 -0.0278562 -0.127082 
0.00102474 0.000135127 0.00971424 

-0.0382702 -0.0453559 1.28375 
0.0787698 0.0774537 1.052 
0.00368903 0.00544962 0.381106 

0.0374625 0.0597985 0.164045 
-0.0695604 0.0201948 0.106866 
0.00114644 -0.000289508 0.064154 

0.0315934 -0.0653618 1.17893 
0.0647884 -0.00560828 -0.426553 
0.00274135 -0.00167338 0.216642 

-0.0377421 0.0181035 -3.82596 
-0.0238818 0.021373 -1.81086 
0.0153484 -0.00827896 0.746289 

-0.113499 0.0969976 -0.0674469 
-0.231694 0.0640818 -1.08034 
0.0193724 0.00981351 -0.316643 

-0.0124303 0.0360563 0.466211 
-0.0317483 0.00502077 2.48191 
-0.000937326 -0.0114171 0.0665599 

0.00591493 0.0173463 -0.0822225 
-0.0190438 -0.000357169 0.0241799 
0.000389314 0.000190235 0.00884322 

0.00659926 -0.075048 -2.58189 
0.00990574 -0.0273827 -1.02051 
-0.00095184 0.0293011 0.868722 

-0.113203 -0.187986 -0.289691 
-0.0587761 -0.0125642 -0.43411 
-0.0118634 -0.0240793 0.512854 

0.0564903 0.0345978 0.416243 
-0.0364293 -0.0298342 0.212161 
0.00136505 -0.000325545 0.0482749 

-0.0136522 -0.0489279 0.0453485 
0.0440703 0.00893041 -0.000927247 
-0.00264999 8.31925e-05 0.0110952 

-0.122438 0.121658 -0.0489769 
-0.0569169 0.120462 -0.290555 
-0.00466819 -0.0267333 0.000283641 

-0.0843652 0.0447949 0.569148 
-0.0850764 0.110159 0.303384 
0.0232485 0.00410835 0.154726 

-0.218043 -0.0933871 -0.2391 
-0.0504602 0.101386 -0.129112 
0.0910793 0.0163228 0.19225 

-0.0406297 0.118846 1.26509 
-0.0564167 0.0259168 2.21374 
0.00776425 0.0459713 1.48865 

-0.0116031 -0.0443228 -0.0199882 
-0.000114032 -0.00940336 0.0568525 
-0.00146512 0.004118 0.0593076 

-0.0743094 0.0585385 -0.112511 
-0.0372766 0.00478344 -0.229447 
-0.0380204 0.0188207 0.287215 

-0.125236 -0.0686378 -0.513706 
0.189035 0.201016 0.700022 
0.0325026 -0.00409811 0.50751 

-0.00491926 -0.0584618 -0.0754298 
0.0837741 0.0136979 0.0385573 
0.00839796 0.0068819 0.00215488 

-0.0140286 -0.0740657 0.366046 
0.0620417 0.0712024 -0.636733 
0.00684113 0.000421797 0.04947 

0.0106664 -0.000712588 0.0293507 
-0.0203682 0.00103673 -0.101128 
-0.0145162 -0.000224362 -0.0146965 

-0.902555 -1.14103 -3.97045 
0.438811 0.904259 2.01878 
0.00932071 0.00261336 0.111467 

0.0146193 -0.00987877 0.0413241 
0.0404567 -0.0089895 0.0751328 
0.00144111 0.00881749 0.0851747 

-0.000907478 -0.042658 -0.00454831 
-0.00869713 -0.0293202 -0.0452009 
-0.00851242 -0.00387875 0.0369921 

-1.14349 -0.682305 1.06901 
0.624831 0.772037 1.85365 
-0.0278223 0.00468642 0.0828126 

0.00411631 0.011179 -0.0349291 
-0.00421412 -0.0214567 -0.00972745 
0.0122704 0.0198324 0.0354463 

-0.0239277 0.000923828 0.134842 
0.0150272 0.0559488 -0.0536253 
-0.00825197 -0.00745828 -0.0779725 

-0.279793 -0.615743 2.82205 
0.532276 0.504899 -2.85621 
-0.00921152 -0.0258319 0.195692 

-0.0190707 -0.02353 0.504798 
-0.128037 -0.120046 0.442455 
-0.0020689 0.0213567 0.287663 

-0.0552915 0.11934 -0.110618 
-0.154042 0.0490245 0.108672 
0.0152703 0.00352561 0.210112 

-0.166562 0.0313393 -0.70714 
-0.250084 0.128143 -1.18193 
0.012722 0.0865947 0.0247602 

-0.081931 -0.0477447 0.0138902 
-0.0247117 -0.00617374 -0.0482554 
0.00193483 0.00139469 0.0946622 

-0.125843 0.00204641 -0.104367 
-0.131134 0.00944375 -0.103129 
-0.00387114 -0.0141726 0.120612 

-0.134816 0.0707511 0.539753 
0.0394876 0.033534 0.185682 
0.00221208 -0.00117968 0.0459515 

-0.0213904 -0.0617121 1.2429 
0.0150221 0.00383505 -0.0166303 
0.0103766 -0.010149 -0.204602 

-0.00395982 -0.0117262 -0.00383048 
-0.0191645 -0.00994685 0.011417 
0.0022359 -0.00307278 0.00423015 

0.00516006 -0.0249401 0.0458857 
0.0231347 -0.00819299 0.023576 
-0.000687865 0.000732372 -0.0249507 

-0.0433596 0.0357863 0.0868588 
-0.117086 0.0192155 -0.0520637 
0.011125 0.0659797 0.186947 

-0.0164584 -0.0068722 -0.023738 
-0.0126072 0.0244714 0.0218988 
-0.0016268 0.00127056 0.0083822 

0.0175028 0.0091948 -0.0401595 
-0.00481416 -0.0121376 -0.0125185 
-0.00154407 -0.00134818 -0.0113644 

-0.00756621 -0.0329643 0.0442551 
0.0490165 0.0217067 -0.0569675 
-0.00160012 -0.00178844 -0.00943336 

-0.605438 -0.36 -7.19223 
-0.0491546 0.181489 -1.55647 
0.00965843 -0.0234541 0.278914 

-0.00937409 -0.0453604 -0.0723984 
0.00945564 0.018172 0.0508138 
0.022625 -0.00548024 0.0101724 

0.229951 -1.23563 -2.859 
-0.178161 -0.0199556 -0.314741 
0.0073864 -0.039475 -0.024836 

-0.110232 0.287578 0.265639 
-0.336887 0.162021 0.300068 
-0.00524931 0.000591185 -0.0043176 

0.0121951 -0.00144963 0.09513 
-0.0155866 -8.19662e-05 0.00552706 
0.00112667 -0.00051396 -0.00650228 

0.0273722 0.0236141 -0.0063489 
-0.0261236 -0.0137498 0.00862532 
-8.6947e-05 0.00034982 -0.00547808 

-0.170993 -0.172857 -0.0693845 
0.0502681 0.133603 -0.33957 
-0.000214151 -0.0100701 0.683809 

0.0427424 -0.0244078 0.166539 
-0.0106945 -0.0815015 0.0923514 
-0.000500603 0.00325999 0.0380491 

-0.00842695 0.0191311 0.0780726 
0.00591929 0.0401115 -0.00679196 
0.00136271 0.000540481 0.0112734 
