# vtk DataFile Version 3.0
Output file generated by Yade's KinematicLocalisationAnalyser
ASCII
DATASET UNSTRUCTURED_GRID

POINTS 13483 float
602.359 29.0826 0.476664
723.063 74.6905 0.48979
118.479 6.01033 -0.560099
755.979 11.1443 -0.343552
494.896 7.88649 0.338839
312.178 35.3551 -0.471752
154.444 7.04893 0.444102
566.47 10.349 0.146376
491.724 24.7811 -0.210988
697.421 12.2508 0.575713
207.961 8.68095 0.135971
254.434 6.32101 -0.25363
643.701 42.6408 -0.17531
627.932 20.2081 -0.189044
135.741 17.8331 0.518968
218.464 34.7978 0.407681
215.32 12.9734 -0.290557
286.318 9.71523 0.395748
338.682 32.7668 -0.492347
519.249 8.5718 0.343894
408.144 36.9366 -0.0689663
585.927 47.2449 0.272782
751.358 44.8212 -0.498559
686.833 59.144 -0.100805
455.973 16.9895 -0.423104
238.331 44.4992 0.138301
486.969 28.87 -0.519874
582.915 20.7507 0.243808
44.4934 16.0186 -0.379793
692.923 30.6859 0.485086
478.207 5.67709 0.462099
16.1243 23.4774 0.33592
735.828 78.7054 0.252822
490.812 2.65615 0.477575
77.2651 44.8964 -0.100393
517.104 30.7309 0.366402
525.902 16.6112 0.436776
341.413 22.6627 -0.232092
529.07 25.5525 -0.304741
347.904 33.5089 0.480883
238.334 14.7427 -0.300129
431.17 35.798 0.0830648
655.733 6.89703 0.123653
190.252 6.24614 0.348731
54.7055 7.04593 -0.123917
67.752 9.02117 -0.298046
669.257 10.3094 -0.629203
23.0722 12.0601 -0.312624
602.307 50.5949 0.376808
668.62 38.0575 0.341411
170.45 32.6261 0.326977
724.142 58.4556 -0.126348
34.2718 28.5339 0.13029
529.593 3.0218 0.323115
140.251 7.31394 -0.526242
590.987 34.2401 0.475497
499.573 28.124 -0.16963
172.962 0.941064 -0.275815
32.1649 2.35636 -0.318648
346.476 17.9423 0.276385
610.428 58.2673 0.134584
459.04 35.1825 -0.180576
396.835 1.02789 0.202109
679.391 9.1779 -0.613919
26.3356 43.7134 -0.234925
253.842 30.8543 0.285303
698.633 6.96482 0.400451
659.054 63.6566 0.403966
415.104 8.66983 -0.509717
567.16 3.63629 -0.367987
713.203 42.8762 -0.480713
129.1 7.79854 0.276051
493.99 27.068 0.197983
475.009 15.7935 -0.117062
292.493 16.7713 -0.347783
20.2154 13.9645 0.30969
746.277 72.8956 0.321201
331.06 39.2545 -0.290684
665.42 32.3166 -0.493014
669.082 14.158 0.388538
748.115 14.9123 -0.205233
462.454 36.2555 0.180659
91.535 39.0691 0.307148
674.661 51.167 -0.278684
638.236 50.3148 0.099589
758.025 55.9792 -0.126868
742.323 2.76791 -0.667074
289.235 28.7865 0.461195
621.306 7.07598 -0.080601
24.247 5.82019 -0.639382
132.259 38.9897 -0.161807
509.077 15.211 0.216235
743.754 59.6796 -0.511709
193.809 29.1397 0.242546
43.6761 34.8205 0.304651
489.676 1.44094 0.140128
233.957 8.74115 -0.438859
708.679 55.9056 -0.335483
731.624 53.5862 0.289824
359.901 21.4985 -0.282721
162.217 27.043 -0.478269
547.496 38.6628 0.446968
378.521 15.7983 -0.459335
411.976 29.9666 0.121439
376.516 4.56303 0.419009
545.572 10.9027 -0.108238
758.561 17.6509 -0.243198
79.5428 39.7935 -0.417721
334.196 4.99896 -0.213456
559.942 9.66883 -0.366706
358.704 44.2541 0.448381
25.1737 25.3533 -0.528052
29.9827 5.86407 -0.301839
567.072 33.2714 0.477321
502.191 25.4451 0.157657
25.7612 37.4393 0.430226
92.3763 30.9602 0.254457
324.142 16.069 -0.285656
600.134 18.5891 -0.19881
473.853 39.5586 0.359454
714.451 9.74727 -0.418681
707.487 6.4707 -0.184737
386.41 37.4524 0.0963181
629.598 33.8225 0.13804
236.964 17.241 0.47463
329.618 3.88303 0.458098
102.841 31.8427 0.391049
115.783 25.0637 -0.285237
542.79 38.8902 -0.0954614
305.652 19.0238 0.459704
688.808 36.3992 -0.15223
663.511 63.4776 0.103008
479.826 21.6019 -0.438759
743.629 42.5085 -0.253964
428.6 23.5786 -0.252884
276.001 24.4912 0.303247
668.867 46.7038 -0.295659
278.306 28.5361 -0.447096
577.491 12.4301 -0.246135
332.083 35.9647 0.206667
503.333 11.8624 0.520588
366.73 32.1536 0.0969419
430.63 16.9631 -0.10248
318.246 42.3887 0.428703
190.118 30.1358 0.144382
727.206 72.2851 -0.00993152
756.083 18.9126 -0.409904
6.01256 12.4056 -0.497126
434.732 22.6539 -0.433835
37.8518 22.9647 -0.0969539
376.887 31.6511 -0.373074
395.618 25.1255 0.263856
74.8268 12.0988 0.503318
51.4778 33.5481 0.430547
225.599 13.6203 0.417543
611.901 42.9252 0.454984
579.973 21.6054 -0.432424
74.7787 21.0815 0.475662
689.527 61.0575 -0.453814
726.878 2.889 0.635084
654.101 56.7169 -0.496251
675.541 2.41648 -0.484819
551.668 26.7922 0.430736
587.551 47.3631 -0.452063
512.474 18.664 -0.426363
755.102 6.28586 0.291622
223.247 25.0395 0.160054
127.838 35.8495 0.203677
247.345 6.53918 0.395422
94.2104 4.48153 0.278099
64.0929 10.2926 0.219117
276.388 36.0939 0.333788
16.229 25.3717 0.430512
557.595 19.5058 -0.414613
604.075 45.3189 -0.208048
464.214 22.0395 -0.411597
756.629 81.0278 0.354435
408.232 8.69 -0.11057
437.591 36.6033 -0.397184
538.102 3.39497 -0.201266
22.4043 24.4005 -0.402353
579.994 4.34791 0.461618
547.855 4.31251 -0.323246
206.401 11.1164 0.488006
426.855 16.7621 -0.210289
312.568 6.32592 0.36854
389.789 19.274 -0.322316
700.439 47.5696 0.162636
192.574 25.9486 -0.46254
734.114 12.8551 -0.423961
703.001 44.7105 0.360516
384.994 10.4102 0.196572
696.327 2.43834 0.502478
607.177 25.1549 -0.466003
716.204 21.9039 -0.50401
432.264 43.6895 0.266623
497.888 13.0985 0.368555
466.769 46.073 -0.22365
448.048 8.87009 -0.158524
657.932 56.9958 0.263855
656.01 52.535 0.316054
192.803 39.2951 -0.303177
746.214 14.394 -0.258011
589.355 47.5092 -0.277874
11.1933 16.9967 0.262137
409.58 25.4696 0.458762
187.552 23.4719 0.397932
93.1985 39.8831 -0.214677
743.018 56.376 -0.455925
650.176 60.8032 0.220943
320.852 25.8339 -0.38666
535.127 10.3035 0.327361
82.4305 45.1268 -0.179599
248.427 26.0099 -0.479409
560.345 24.0196 0.389071
489.179 19.5556 0.408381
263.865 0.881024 -0.340401
556.537 40.3368 -0.364229
536.103 41.0198 -0.470425
483.411 34.7783 -0.37022
501.645 1.71023 -0.670546
682.983 20.0019 0.732017
179.728 12.5426 -0.214807
502.832 37.7033 0.468175
568.067 41.6715 0.143872
73.0431 0.975191 0.276271
252.661 4.75082 0.18572
754.552 23.6914 -0.263639
747.853 16.8442 -0.501866
759.002 25.6559 -0.702387
305.148 8.63522 -0.231912
718.851 31.2104 0.662141
409.52 42.007 0.315681
452.261 0.800156 -0.434641
643.594 49.9239 0.430842
26.8808 31.2183 0.323706
333.151 41.89 0.570689
253.509 2.8882 0.350661
740.532 77.1484 -0.17638
690.184 72.0664 -0.194583
288.836 11.0621 0.245877
663.06 46.2123 -0.085896
561.775 2.56079 0.277182
545.646 6.48822 0.445566
97.0194 18.5975 -0.49632
305.009 1.04354 -0.228622
345.437 2.25049 -0.370062
13.9793 7.61255 -0.458615
4.39832 31.1686 -0.294236
161.932 19.1261 0.390678
68.2654 42.1667 0.220073
66.7303 29.2429 0.375673
426.486 14.8507 -0.431036
369.632 35.6015 0.479907
721.143 59.6912 0.137387
19.7247 4.12159 0.275204
70.7957 7.0236 0.130608
619.697 46.3407 0.145207
296.341 0.924624 0.375427
367.711 16.464 -0.0978111
236.478 4.70144 -0.380445
652.73 35.3604 -0.263545
455.191 7.80808 0.541381
721.471 32.0694 0.340631
628.002 37.13 0.314813
666.941 30.898 -0.109037
423.415 26.7732 0.558855
102.539 45.4224 -0.305905
546.377 42.5066 0.0737012
718.437 16.4941 0.246354
238.877 30.7976 -0.267039
31.8713 17.5329 -0.21163
338.965 13.856 0.515273
108.008 41.0498 -0.437747
269.311 42.4248 -0.217461
428.988 1.71715 -0.365894
746.751 66.7955 0.384883
670.489 0.766231 0.623756
334.699 3.4564 0.570712
302.235 26.5967 -0.156517
465.787 42.9719 0.228622
81.8741 8.29199 0.475147
198.231 45.8893 0.382279
732.976 56.9129 0.355925
498.076 40.4696 -0.0867778
200.608 41.4725 -0.276783
161.13 42.6745 0.386581
761.568 50.6573 -0.391929
757.768 19.2788 -0.662111
612.162 3.16731 -0.607074
191.195 24.8875 0.106227
553.458 27.7053 0.117484
555.458 27.4779 -0.277767
412.794 5.71215 -0.141448
484.803 0.927562 -0.290099
718.911 62.8607 -0.533279
85.2913 31.3632 0.20866
657.8 30.9981 -0.504183
276.117 15.6469 -0.365272
9.61252 2.34058 0.34755
126.407 37.6137 0.186076
67.3363 23.5249 0.529913
683.514 39.6156 -0.332679
741.269 85.5144 0.171833
186.352 28.7845 -0.193274
752.408 20.4514 0.41788
45.0591 36.9568 -0.272557
91.3262 29.3299 -0.174429
636.439 19.3521 0.403465
416.963 18.7444 -0.543461
522.619 16.6426 0.131812
239.385 28.7807 -0.185253
627.602 4.19123 -0.673835
758.949 19.6351 0.386119
29.5179 32.215 0.306073
271.945 7.79685 0.199828
223.255 15.2598 0.258126
1.06961 35.7309 0.148794
226.572 14.6785 -0.376624
212.807 11.0065 0.125497
215.268 26.4891 -0.265382
133.966 28.4727 -0.171781
551.927 15.1947 -0.389134
167.794 14.3801 -0.361503
734.764 75.4456 0.236534
174.944 3.81357 0.514203
47.2601 37.981 -0.447554
700.298 58.2566 -0.443568
283.254 31.4261 -0.379232
671.848 34.2557 -0.473651
753.086 68.8198 0.458309
303.197 9.25538 -0.104943
708.548 33.8379 -0.396014
331.656 2.5043 -0.431441
419.847 24.336 0.344054
658.518 17.506 0.634114
106.13 12.1162 -0.478702
486.504 3.94111 -0.534861
724.837 32.5014 -0.188455
88.688 7.74979 -0.23972
283.83 14.8339 0.199103
427.258 12.0629 -0.203476
754.797 2.44834 0.593238
401.759 1.99451 -0.5376
177.733 39.2235 -0.318758
721.415 14.8864 -0.414637
129.679 36.9592 0.182627
264.9 31.544 -0.397146
404.437 21.8612 0.218366
579.653 14.5022 -0.328287
390.789 9.88532 -0.510545
461.043 29.4576 -0.482751
723.632 73.5739 -0.385003
47.5769 11.5737 -0.157774
301.886 38.7347 -0.257248
383.31 27.3863 0.338281
413.733 20.8782 0.288028
525.764 45.7094 -0.357364
717.213 57.5903 -0.206932
661.283 52.7599 0.377176
226.922 34.5305 -0.38669
13.6075 32.1528 0.171251
654.112 53.1803 -0.117242
513.358 42.3128 0.4585
230.879 39.5514 -0.0915727
678.738 44.1371 -0.121237
151.704 9.40322 0.2302
370.168 21.6375 0.366346
467.613 43.9993 0.0597362
417.853 20.0689 0.241995
718.947 77.6361 0.292902
430.333 3.94861 0.535628
49.8175 25.4164 0.257944
474.139 32.7614 0.352054
438.544 43.1547 -0.386947
740.081 69.7807 -0.231406
707.263 31.7122 -0.386323
545.689 18.6131 -0.203659
732.95 66.8883 0.418927
295.917 2.21032 -0.465218
382.026 29.8429 0.508429
28.9595 39.282 -0.330051
708.541 38.2339 -0.155803
614.939 20.4874 0.542179
467.539 0.772472 -0.471197
126.336 4.71325 -0.341208
430.674 40.2983 0.130208
12.0765 0.895757 -0.31715
753.563 7.91095 0.0934587
373.814 39.7835 -0.436975
[...]
POINT_DATA 13483
TENSORS Strain_matrix float
-0.404724 -0.0807092 1.30999 
-0.0878238 0.297356 1.08889 
0.0239552 0.00460524 0.907689 

-0.226507 0.133916 15.4291 
-0.0812162 0.136913 1.3021 
0.000156815 -0.00371678 -0.0461151 

-0.0304941 -0.00611612 -1.98248 
0.0188388 0.0442998 -0.616105 
0.00206703 -0.00700423 0.065599 

-0.0784804 -0.270903 -0.828208 
0.416317 0.0720354 0.726959 
-0.0094664 0.0123626 0.104268 

-0.0482849 -0.0295079 -0.0959389 
0.0249576 0.0139622 0.0307569 
0.015992 -0.0256525 0.156258 

-0.00260259 0.00143051 -0.0240727 
0.00310934 0.000468958 -0.0169465 
6.51472e-05 0.000365616 0.00350494 

-0.018928 -0.0089302 0.026181 
0.00288393 0.00620651 -0.0785206 
-9.52513e-05 -0.000107469 0.0672475 

-0.0272684 0.0243917 -0.0304153 
-0.0439036 0.0120046 -0.0519606 
0.000138139 0.0029142 0.0499953 

-0.114472 0.00760263 -0.348396 
-0.0505958 0.104394 0.17628 
0.0229162 0.0139987 0.449477 

-0.0421949 -0.0120835 -0.293288 
-0.0157529 -0.00468855 -0.0772657 
0.00541739 0.000268199 0.0763559 

-0.0122434 0.00865606 0.0516837 
0.013583 -0.0124102 0.0170653 
-0.0107014 -0.0395228 0.127009 

-0.00609108 -0.00642071 0.0061185 
-0.000367288 0.00351333 0.0020799 
0.000439369 0.000243387 -0.000192104 

0.0664853 -0.174818 -0.0950197 
0.156362 0.0274076 0.0226678 
0.00463007 -0.000820131 -0.0316108 

-0.0591752 -0.169681 -0.129241 
0.285634 0.140967 0.162211 
-0.0169055 0.0298575 0.252701 

-0.102882 -0.0179206 -0.908399 
0.00472273 0.0348269 -1.31037 
-0.00533544 -0.0598546 -0.435513 

-0.0131492 -0.0222919 0.138523 
0.0134595 0.0129442 0.205454 
-0.0197277 0.00956723 0.483835 

-0.00442166 0.00847491 0.00750549 
0.00437721 -0.00107345 -0.0046591 
-0.0139827 -0.00456088 0.0205233 

-0.00679302 0.00319252 0.00383468 
0.000108628 0.00228426 -0.00655031 
-0.00017269 0.000209698 0.00735471 

-0.0173785 0.00490132 -0.889924 
-0.00132591 0.0113847 -1.59297 
-8.99949e-05 0.000248731 -0.175473 

-0.0114324 0.0183355 0.0154292 
-0.0189928 0.00186938 0.0442925 
0.000671035 0.00538414 -0.0516021 

-0.090662 -0.0616383 0.15087 
0.0740508 0.0368299 -0.0469465 
0.00152318 0.00437158 0.0936336 

-0.0464276 -0.359901 -1.84316 
-0.10154 0.348547 2.32433 
0.0310478 -0.0342934 0.241565 

-0.0355552 0.0488454 -1.24509 
-0.0523507 0.0405594 -1.03703 
0.016269 0.00855821 0.151319 

-0.0208827 -0.0401906 -0.224328 
-0.250618 0.00134546 -0.192047 
-0.109909 0.090167 0.622183 

-0.0494878 0.0315758 0.470803 
-0.0494163 0.00128935 -0.427043 
0.000739249 -0.0208843 0.272792 

-0.00218638 0.000883979 -0.000756084 
-0.00135293 0.000878921 -0.000813453 
0.000161189 -0.000139468 0.00177904 

-0.0634807 -0.0679995 -0.0352883 
0.11245 -0.0578579 -0.0805448 
-0.0158206 -0.00142244 0.275123 

-0.105338 -0.133147 0.243477 
0.0870043 0.0951794 -0.0390147 
-0.00297222 0.00852779 0.0665619 

-0.00659764 -0.00565825 0.00870113 
0.00301261 0.00203846 -0.0136979 
-0.000565944 -7.76052e-05 -0.00349852 

0.0320941 -0.0441897 -0.171777 
-0.156567 0.0374738 0.232308 
0.0370561 -0.122365 0.17268 

-0.0959288 0.0739762 0.419392 
-0.105988 -0.0771316 -0.0798007 
-0.0215133 -0.0417926 0.56404 

-0.0190209 0.00111799 -0.00166913 
-0.00133402 0.0112229 -0.0160103 
0.00132048 0.000411368 0.0233599 

0.00314806 -0.0807899 0.0159972 
0.0918841 -0.00893212 0.0800524 
0.021699 -0.00243345 -0.06782 

-0.0249704 -0.0618848 0.509364 
-0.0153443 0.013169 0.103861 
-0.0057193 -0.0466245 0.281487 

-0.00227133 -0.00130357 0.0111253 
0.000689928 -0.00158034 0.0048056 
-0.000227298 0.000556773 0.003594 

0.0180988 0.0546524 0.737361 
-0.0157984 0.0323548 0.835973 
-0.0210846 -0.00986399 -0.1258 

-0.0150706 -0.00154596 -0.0996907 
-0.00211237 -0.00139667 -0.106813 
-0.00291642 -0.00683351 -0.0611521 

-0.00550194 0.0039668 -0.0079259 
-0.00297764 -0.00232675 -0.0126544 
-0.000493968 7.51397e-05 0.00779615 

-0.0386247 -0.0465839 0.0557363 
0.0252391 0.0438653 0.00893711 
0.0268841 -0.0227184 -0.0862603 

-0.0227352 -0.0123381 1.12123 
0.0364909 0.0177119 1.39886 
0.00128674 0.00499735 -0.275459 

-0.0269408 0.00694663 -0.100742 
-0.00428395 0.00872708 0.0761861 
0.002022 0.00184876 0.0176975 

-0.0120855 -0.0171369 0.0107729 
0.0111576 0.000848103 0.00633009 
0.000981351 -0.000221416 0.016088 

-0.0238554 0.0954346 -0.0125339 
-0.102807 -0.0162709 -0.071348 
-0.0127762 0.0210215 0.105544 

-0.00438748 -0.000710029 0.145059 
-0.0024039 -0.00279148 0.191666 
0.0013021 0.000916377 -0.00813811 

-0.00496907 -0.00297661 0.00887922 
0.00323695 -0.000959504 -0.0327787 
0.018287 -0.00101351 0.0243369 

-0.0062793 0.00210775 0.00124289 
-0.00424766 0.00392242 -0.0123813 
-8.51949e-05 0.000889628 -0.00374571 

-0.0559898 -0.0194819 0.216364 
0.0297704 0.0192673 -0.658204 
0.0306112 0.00918776 0.103684 

-0.00777388 0.000606631 0.00538744 
0.00213854 -0.00636754 -0.00945631 
0.000877966 -0.000719254 0.0171581 

0.247963 -0.575576 -0.0440919 
0.621499 0.24405 0.211108 
0.0168957 0.00921965 -0.232058 

0.036834 0.235994 -0.0647408 
-0.401653 0.166509 -0.59564 
-0.000424383 0.0267135 -0.050578 

-0.00739425 -0.00251218 -0.0369041 
0.00465268 0.00441619 -0.00330347 
0.00174601 -0.000218305 0.0172624 

-0.0134791 -0.0971992 0.00217788 
0.111136 0.0155681 0.044621 
0.00484038 -0.00435044 0.0305504 

-0.00802495 0.00254908 -0.00445153 
-0.00387564 0.000391669 0.0043487 
0.00017726 8.49693e-05 0.0140278 

-0.0147846 0.00418479 0.00138905 
0.00266172 0.00223741 -0.0409837 
0.00108465 0.000888493 0.0113556 

-0.022024 0.0124113 -0.930071 
-0.010506 0.0169925 -1.65182 
-0.000300046 -0.00258008 -0.0338697 

0.00975382 -0.0383088 -0.645952 
0.000757645 -0.00142434 0.281479 
0.00605157 -0.00367365 0.034935 

0.00255071 0.0376471 -0.00195079 
-0.0379213 0.00679452 0.0513149 
-0.00329196 0.0194702 0.00934896 

-0.00935901 -0.010182 0.0230475 
0.000806164 -0.0417212 -0.131006 
-0.00599125 0.306729 1.09218 

-0.00652908 -0.000790708 -0.0157641 
-0.00272016 0.00364145 0.00336012 
-0.000819422 0.00178413 -0.00110756 

-0.00141775 -0.00631388 0.0101822 
0.00679659 -0.000284589 0.00258339 
-0.000358802 0.000942037 0.00188685 

-0.0475448 -0.320765 -1.0531 
0.0769082 -0.152615 -1.39344 
0.00122792 -0.00340929 0.489812 

0.0107842 -0.0676669 0.0790047 
0.079187 -0.00346977 -0.0999084 
0.000868385 -0.0012309 0.0844429 

-0.00660849 -0.00436288 0.011206 
-0.00233783 0.00141056 -0.00630561 
0.000212335 0.000283345 0.00835126 

-0.0790334 -0.0309212 0.902075 
0.0085962 0.00861792 -0.394549 
-0.0017367 0.0035142 0.154786 

-0.025453 -0.00451165 0.0210316 
-0.00449861 0.00424265 -0.0376008 
0.000330668 -0.000354531 0.0113127 

-0.0172673 0.00722668 -0.0130717 
-0.00770088 0.0100659 0.0174456 
-0.00862515 0.0088911 0.0380048 

-0.0738373 -0.123205 0.0739586 
-0.0119082 0.10777 0.359891 
-0.000938983 0.0100611 0.103496 

0.0469645 -0.201102 -0.515998 
0.166003 0.0251576 0.631524 
-0.00663705 0.00393478 0.00857706 

-0.00486179 -0.00358722 0.0690008 
0.0013286 -0.00531111 -0.143121 
-0.000264437 -0.000274077 0.00605362 

-0.019544 0.0199201 0.0115982 
-0.0317896 -0.00352523 0.00676799 
-0.000856041 -0.00144923 0.026159 

-0.0013746 -0.1904 -0.242071 
0.245216 0.00998814 0.0793312 
-0.00076452 0.00154068 0.0461657 

-0.043738 0.0397407 -0.0931714 
-0.0482508 0.0280475 0.0498872 
0.0744461 0.0264537 0.660271 

-0.0945058 0.090324 -0.0214144 
-0.0915606 0.0758024 0.391724 
-0.0055925 -0.000324832 0.0519522 

-0.099339 -0.0287786 0.0949456 
-0.00661227 0.141026 -0.49358 
0.0135685 0.072886 0.479865 

-0.00285181 0.00244221 0.00527761 
0.00133698 0.0015453 -0.0218062 
9.62101e-05 -0.000172343 0.00754179 

-0.017077 0.00444204 0.0286203 
0.00228669 0.00630059 0.00497086 
0.000681158 0.0016715 0.027943 

-0.000878721 -0.0545252 0.00359016 
0.0529407 0.0130621 0.000570252 
-0.000683834 0.000391187 0.0034812 

0.0111132 0.021655 0.0276958 
-0.00949616 0.00329984 0.00908803 
0.0018873 -0.000419122 -0.023493 

-0.213972 -1.01253 2.18977 
0.19121 0.64979 -0.281125 
0.0836131 -0.0710787 0.00669911 

-0.12699 -0.229969 0.17334 
0.0759377 0.0738846 0.128354 
-0.0365365 0.0147889 0.165363 

-0.150773 0.120678 -0.430156 
0.200457 0.0986703 0.274777 
-0.000699223 -0.0232108 -0.0100087 

0.00924449 -0.0688398 -0.0204527 
0.0866276 -0.00139582 0.0831716 
-0.0015323 -0.00183997 0.0388124 

-0.0103051 -0.00373587 -0.0167456 
0.00123199 0.00194019 -0.00269775 
-0.00025393 0.000669564 0.0269265 

-0.147579 -0.0199542 -0.816787 
-0.0235218 0.0327652 -0.384592 
-0.0544185 0.00644758 0.165362 

0.042369 -0.136151 -0.00379402 
0.170122 -0.0137605 -0.0683207 
0.000736968 -0.0147982 0.0703608 

-0.00554509 -0.117116 -0.0249304 
0.0985203 0.00928436 -0.00535312 
0.00537514 0.00313315 0.0274014 

-0.108674 0.0463153 2.71254 
0.0475967 0.16504 0.706838 
0.0012143 0.00166335 0.238912 

-0.00462117 0.00145857 -0.00853951 
-0.0115588 -0.00481628 -0.0312386 
0.000909153 -0.00016482 0.0162297 

0.0150633 0.0327119 -0.00422933 
0.0218185 0.0468648 -0.00427317 
0.00967243 -0.00335981 -0.0931076 

0.00638885 -0.190131 116.72 
-0.0126456 0.144716 -56.6316 
-0.000231623 0.00156086 -0.136373 

-0.00598287 -0.0138284 -0.00683638 
0.0174462 -0.00287223 -0.0146798 
-0.00818294 -0.00313864 0.0566578 

-0.0249366 0.0314888 0.00712311 
0.0145109 0.00579008 -0.0612444 
-0.00534823 0.0325441 -0.0581307 

-0.0475797 -0.0235904 -0.51891 
0.0396491 0.021707 0.487396 
-0.00238147 0.00220303 -0.0264653 

-0.0102493 0.0252232 0.0634095 
-0.028026 0.00574546 -0.0103454 
0.019097 -0.0503699 0.398651 

-0.00813855 -0.00106214 0.0402611 
0.00249941 0.00254921 0.00349658 
-0.000271334 -0.00118619 0.0158396 

-0.0165189 0.00389262 -0.0146082 
-0.00610014 0.0204426 -0.0054471 
-9.38545e-05 -0.00898958 0.0147847 

-0.0339308 -0.0115829 -0.0479792 
0.0217119 0.0111079 -0.459386 
0.000119903 -2.00087e-05 0.135272 

-0.0561425 -0.038392 -0.124697 
0.0712533 -0.0221674 -0.269224 
-0.034154 -0.0269052 0.28812 

-0.0714324 -0.0148901 0.0364344 
0.0959503 -0.00472502 0.174519 
-0.00208789 0.0043986 0.0375065 

-0.00747244 -0.00197786 -0.00808429 
-0.00155346 -0.0129219 0.264562 
0.00434129 0.0222259 0.0129712 

-0.00617321 0.00478043 -0.222104 
0.000679904 0.00120895 0.682813 
1.82994e-05 0.000341921 0.0824067 

-0.0509511 0.00284294 -0.528414 
-0.0318366 0.0399736 -0.350062 
0.00437891 -0.000878707 0.164059 

-0.0314466 -0.0124238 -0.0725625 
0.0131015 0.0146864 0.00944072 
-0.00515439 -0.0020641 0.0584897 

-0.0347083 0.0136962 0.0986644 
0.0431653 -0.0246365 -0.0164871 
-0.00274882 0.0230505 0.189539 

-0.0251994 0.0144967 0.145475 
-0.0519476 0.00973078 0.484263 
-0.000518123 0.000476198 0.151157 

-0.0336921 0.0247276 -0.00695978 
-0.0606857 -0.00432059 -0.0213649 
-0.00329874 -0.0401828 0.171479 

-0.0338936 -0.230345 0.0322246 
0.338905 0.0937593 0.261213 
0.0234108 0.0093332 0.17938 

-0.0114923 0.00308047 -0.0208579 
-0.000783862 0.0037279 0.0164292 
4.11865e-05 -5.57489e-05 0.0040434 

-0.00591314 -0.000216559 -0.000882061 
0.00517046 -0.000593551 0.0026723 
0.000471365 5.69595e-06 0.0117376 

-0.0218354 0.0128578 -0.0786198 
-0.0101328 0.00289423 -0.0538792 
0.00185473 0.000730187 0.0321476 

0.0071918 -0.0277644 0.0530777 
-0.0474464 0.00914307 0.694522 
0.00382593 -0.0023619 0.136769 

-0.00984043 0.00208886 -0.920012 
0.000850711 0.00464455 -0.579054 
0.00313379 0.00254601 0.00858771 

-0.00717071 0.00310404 -0.00201051 
-0.00324055 0.00661535 0.0135827 
-0.00155776 -0.000825857 -0.00900891 

-0.182162 -0.00584037 0.0727828 
-0.196696 0.19321 -0.848148 
-0.0114591 -0.026587 0.368769 

-0.0211106 0.0775592 -0.020505 
-0.0667358 0.0221458 -0.0260451 
0.0313796 0.0241142 0.243608 

-0.00656819 0.0028292 -0.187774 
0.000262631 0.00268201 0.0176531 
0.000943721 0.000730003 -0.0215145 

-0.0136903 -0.00381593 0.0261511 
-0.00139523 0.00457516 0.0117375 
-0.00258563 0.0085845 0.0259221 

-0.0144929 0.0142969 -0.00123485 
-0.0312997 -0.00335801 -0.0104062 
-0.00481131 -4.26204e-05 0.0366538 

-0.0180814 -0.000444731 0.00904541 
-0.0502212 0.000840513 0.00412537 
0.000843463 0.00264424 0.0299919 

-0.0914712 -0.14576 0.323706 
0.144117 0.110436 0.653619 
0.00489371 -0.00686682 -0.0435602 

-0.0655045 -0.0118277 0.0970815 
0.120238 -0.00575804 -0.05345 
0.0276455 0.0307691 0.127467 

-0.0675005 -0.124103 0.703952 
0.0309923 0.135809 -0.647758 
0.001718 0.00529872 -0.00216852 

-0.00686701 0.00523978 -0.00673239 
-0.00651119 0.00165728 0.00434995 
2.62678e-05 0.000260714 0.0106175 

-0.0504244 -0.219727 0.143005 
0.106774 0.0766186 0.0638541 
-0.0318328 -0.0201128 0.11941 

-0.0266814 0.0074145 0.680486 
-0.0165746 0.00882061 -0.32163 
-0.0022097 -0.00296859 0.0711891 

-0.00324271 0.00147318 -0.00301368 
-0.0026343 -0.003619 0.0220621 
-4.03203e-06 0.000216297 0.00624395 

-0.00693197 -0.00805897 0.000946173 
0.00332463 0.00109111 -0.00710875 
-0.000185966 7.17417e-05 0.0110025 

-0.0474568 0.00141475 0.140226 
0.0738395 0.0616612 -0.0972082 
0.000958803 0.0020169 0.0559419 

0.00482883 -0.00589711 0.0105429 
0.00743542 -0.00482617 0.0161967 
0.000255804 -1.11747e-05 0.00282243 

-0.00345628 0.00877276 -0.0696092 
0.00342133 0.00502327 0.128771 
0.000471583 -0.000342626 0.0388928 

-0.0657575 0.0482499 0.242576 
-0.190534 -0.0109957 -0.16418 
0.0192252 -0.0218067 0.117013 

0.0105975 -0.208072 -0.0333356 
0.153107 0.0523455 0.0302864 
0.0389045 0.0771955 0.292107 

-0.0316647 0.00172268 -0.198444 
-0.0229263 0.0179362 -0.44083 
-0.0165644 0.0431295 1.07709 

0.0212289 -0.221353 -0.128886 
-0.0218271 0.0371334 0.184538 
0.0151493 0.0124714 0.0477701 

-0.00181058 -0.0126166 -0.00393938 
0.00907669 -8.61626e-05 -0.00462708 
0.000189216 -0.000417596 0.00459555 

-0.0150063 0.00332897 0.0243662 
-0.00432089 0.00196497 -0.0165891 
-0.0239655 -0.00863115 0.241398 

-0.370162 -0.172924 0.393726 
-0.34666 0.288005 -0.200426 
-0.0749751 -0.202004 0.253385 

-0.00543675 0.00841034 -0.0231069 
-0.0106375 -0.00229208 -0.0547277 
0.0017349 0.00258489 0.0363016 

-0.0325959 -0.0684744 -0.0758362 
0.0507078 0.00929294 0.0283924 
0.0440871 -0.0283973 0.248593 

-0.00780433 0.0365627 -0.00930251 
-0.00985656 0.00660635 0.0127936 
0.00122373 -0.000546598 -0.0179504 

-0.0191877 -0.0336556 0.186757 
-0.0233887 0.027512 0.414441 
0.0292279 -0.0699534 -0.230644 

-0.0077131 -0.0113886 0.000707571 
0.00490519 -0.00426525 -0.00679091 
8.7858e-05 0.00194254 0.0214079 

-0.00157655 -0.00990598 0.00323697 
0.00787376 0.00066156 0.00309426 
-0.000571402 6.39913e-05 -2.49898e-07 

0.00630222 0.00153957 0.0407501 
0.00131168 -0.00445922 -0.0746342 
-0.000605124 -0.000214787 -0.00357166 

-0.0195207 -0.00105427 0.0369733 
0.000995465 0.00355427 -0.0303358 
-1.19884e-05 0.00529452 -0.00725494 

-0.0289301 -0.0681013 -0.192113 
0.02805 0.00234894 -0.0788134 
-0.000578603 -0.000350127 0.00330467 

-0.414992 -0.0500291 0.118518 
0.0458005 0.240462 0.0905772 
-0.0160375 0.00995798 0.0660613 

-0.00853527 0.0038241 0.00713467 
-0.00455009 -0.00444108 0.0672452 
0.000986743 0.000491334 0.0206303 

-0.000403778 -0.0141943 0.00188934 
0.0118374 0.00167591 -0.0224646 
0.000153256 -0.000352595 -0.00484081 

-0.00749057 0.000238709 0.0122515 
-0.000483352 0.000683915 0.000299827 
0.000324561 6.40806e-05 0.00927663 

-0.018118 0.00467551 0.00598014 
-0.0236452 0.00196516 -0.0189385 
0.00118884 0.00160695 0.0320196 

-0.00506476 0.00767711 0.000103933 
-0.00756794 0.000459728 0.00610161 
0.00013822 -0.000483034 0.00642465 

-0.00662599 0.00116727 -0.0019779 
-0.0014004 0.00302468 0.0913083 
-9.83435e-05 0.000150952 0.00443423 

-0.00705684 -0.00270191 0.0363548 
0.000986344 0.00175666 0.00929536 
8.27053e-05 -0.000341776 0.00708844 

-0.00308191 -0.0208236 -0.00234373 
0.0188619 0.00248105 0.0221034 
0.00197185 -0.00188125 0.0173645 

-1.06575 0.20089 -1.7691 
-0.565752 0.510511 -1.64598 
-0.00370782 -0.00456457 1.07074 

-0.0620959 -0.0474337 -0.181918 
-0.0587693 0.0820055 -0.177095 
0.00794288 0.00458912 0.12273 

-0.00633389 -0.00071636 0.0144316 
-0.00176475 0.00191696 -0.00914966 
-0.000583421 -1.41729e-05 0.00742284 

-0.568293 -0.451589 1.85052 
-0.0721717 0.162393 2.40738 
-0.00931099 0.0373488 -0.451543 

-0.0103143 -0.00656828 -0.255783 
-0.00455645 0.00333147 0.20169 
0.00615879 -0.00357123 0.0138852 

0.0731078 -0.158401 0.188906 
0.143304 -0.0163434 0.250405 
-0.0114174 0.0270296 0.358767 

-0.043282 0.0230815 -0.223963 
-0.00317413 -0.0116246 -0.0209294 
-0.00752679 0.0152546 0.0278558 

-0.00783534 -0.00493225 0.0170496 
0.00155972 -0.00416803 0.0216811 
0.000753047 -0.00100388 0.0193648 

-0.162702 -0.602193 2.17051 
-0.0211176 0.608318 -6.41699 
0.0251145 -0.0140864 -0.255989 

-0.011393 0.00267703 0.0438936 
-0.0333226 0.00385911 0.00223144 
0.00443932 -0.000942651 0.042266 

-0.442254 0.141899 -0.459938 
0.243067 0.263819 0.0323299 
0.0405077 0.0200613 0.172332 

-0.0132531 -0.0174638 -0.0062673 
0.0129701 0.00695374 -0.00120358 
-0.00018088 -0.00155872 0.00894161 

-0.00474557 -0.00925223 -0.00164552 
0.0266713 0.00242607 -0.00740485 
-0.000673932 0.00521083 0.00923964 

-0.008101 -0.00393803 0.0116877 
0.00153818 0.00615403 -0.00109551 
-0.000468395 -0.000429127 0.00936342 

-0.00385722 -0.00139653 0.00591799 
0.000911438 0.00165547 0.0057191 
-0.000188102 -0.000127245 0.00816477 

-0.00613153 0.00483287 -0.00894949 
-0.0128062 0.00257813 0.00250264 
0.00107791 0.00117376 0.0199699 

-0.00627086 0.00680158 -0.0143235 
-0.00271707 -5.15823e-05 -0.0292491 
-0.000899479 0.00065041 0.0201259 

-0.0214004 -0.00561477 0.00429422 
-0.00340496 0.0102702 -0.0523457 
-0.000593624 -0.000220746 0.0245776 

-0.0168944 0.00928282 -0.00725615 
-0.0187692 0.0131437 0.0605143 
0.000171229 0.00145744 0.0471988 

-0.312541 -0.123325 -0.839328 
0.530836 0.260138 -0.21261 
0.0203177 0.0198557 0.401756 

-0.02623 -0.0419527 -0.0349871 
0.0436084 -0.00274332 0.0210018 
-0.00653301 0.00325706 -0.0200192 

-0.0050339 -0.0219283 0.107782 
0.0386384 -0.0100312 -0.0267807 
0.0097934 -0.00680714 0.0992836 

-0.00330442 0.00151491 -0.00135903 
-0.00889992 -0.0073598 -0.00818295 
-0.000301253 -6.04619e-05 0.0202806 

-0.00956976 -0.0224943 0.0107595 
0.0215141 0.00242263 0.0209552 
0.000338939 -0.000547833 0.0214436 

-0.0172642 0.000274909 0.0052327 
-0.00159304 -0.00317978 -0.00568376 
0.00246374 0.000701021 0.0293102 

-0.0195727 0.00591369 0.0563565 
0.00905333 0.027302 0.099288 
-0.0240173 0.0497799 0.224466 

-0.0185444 -0.0369147 0.0968202 
0.0615594 0.00278679 -0.173825 
0.000664621 0.00130226 0.0986287 

-0.00875316 -0.00468773 -0.00303095 
-0.00243878 -0.00329682 0.000791793 
0.00110162 0.00100928 0.0226252 

-0.0157129 0.0126176 0.221065 
0.00661208 -0.00289752 -0.0360839 
-0.00811779 0.00225422 0.237436 

-0.00201945 -0.0120086 -0.00327882 
0.00753305 0.000435365 0.0024619 
0.000892535 3.95991e-06 0.00272486 

-0.00764335 0.00568504 -0.0445879 
-0.00133939 0.00133355 0.0330173 
7.8647e-05 -0.000329396 0.0121998 

0.000933096 0.00860051 -0.0140108 
-0.0117139 0.00107471 -0.0320734 
0.000272675 -0.000476242 0.0121125 

-0.033521 -0.27541 0.168763 
0.251292 0.116449 0.115547 
0.00638638 -0.0194809 0.209666 

-0.0263192 -0.0180194 0.203163 
-0.00989827 0.00918855 0.16074 
-0.00565535 -0.00919359 1.24677 

0.00166431 -0.16033 -0.0908344 
0.0722069 -0.0653837 0.601965 
0.0385645 0.00835953 -0.060418 

0.00176019 -0.250001 -0.0654467 
0.27491 0.0632156 -0.0319823 
0.048204 -0.0141317 0.0690764 

-0.0398946 0.00262426 -0.045901 
0.0341887 0.0243453 0.0603638 
0.00159165 0.00332177 0.0356977 

-0.0546289 -0.034895 -0.0909279 
0.0033471 0.0352206 -0.213875 
-0.00207939 -0.000438991 0.0638579 

-0.0207882 -0.180043 0.984758 
0.0164899 -0.067134 -0.125166 
0.070916 -0.0518618 -0.0440889 

-0.0716811 -0.0782309 -0.0889754 
0.0356144 -0.0433305 -0.150779 
-0.00493319 0.00453076 0.117008 

-0.0334016 -0.00131238 0.0263452 
0.00623375 0.0106687 0.0361283 
0.000336104 9.38648e-05 0.0247557 

-0.0275579 -0.00530953 0.108812 
-0.0496447 0.0436148 0.197738 
-0.0510711 0.120303 0.310664 

-0.0864945 -0.0717706 0.129488 
0.126898 0.0853303 -0.209 
-0.0294934 -0.0518219 0.244272 

-0.0543435 0.0588879 0.032643 
-0.0280119 0.0386882 0.016419 