# vtk DataFile Version 3.0
Output file generated by Yade's KinematicLocalisationAnalyser
ASCII
DATASET UNSTRUCTURED_GRID

POINTS 13483 float
518.173 46.4766 -0.5012
604.152 76.6555 0.490762
112.449 6.02116 -0.586178
633.351 10.9342 -0.363075
446.386 9.50856 0.62828
295.831 37.685 -0.536472
147.176 7.33724 0.463156
504.658 10.208 0.167143
452.995 36.5172 -0.27542
580.616 12.53 0.587947
198.839 8.76656 0.142818
243.623 6.84514 0.333099
548.38 71.0924 -0.152121
536.676 45.9915 -0.104278
129.172 18.1171 0.533406
208.552 35.0553 0.413678
206.106 13.0799 -0.298893
272.917 10.6279 0.488854
321.105 35.8031 -0.484142
465.813 8.32301 0.371805
382.772 40.3256 -0.101142
491 68.1383 0.0384583
629.714 45.6899 -0.537131
592.722 86.2851 -0.425744
424.161 20.4755 0.398258
227.174 45.864 0.133197
447.636 41.7301 -0.516327
513.023 23.4412 0.363048
41.4381 16.6327 -0.280907
574.083 32.7575 0.428144
438.579 6.64066 -0.442548
14.9545 23.7323 0.482184
614.766 80.4236 0.276171
445.389 2.20529 0.74401
73.2169 46.0955 0.110283
465.706 39.3686 0.422764
471.116 16.9276 0.512539
323.723 23.9212 -0.230948
474.318 28.3955 -0.324588
328.233 37.6387 0.459537
228.504 14.9352 -0.280095
401.056 38.812 0.0849872
541.784 7.78186 -0.136278
181.746 6.25629 0.417045
51.1475 7.15273 -0.111355
63.9157 9.12236 -0.310538
553.993 9.97283 -0.676902
21.4763 12.7288 -0.30695
506.449 75.7242 0.354808
574.067 66.9537 0.35912
162.087 33.1639 0.320806
604.147 59.6095 -0.141731
31.8469 29.7983 0.133122
474.718 4.49666 0.58551
133.624 7.50217 -0.57796
511.3 47.2922 0.449095
457.708 42.6405 -0.13594
164.973 0.935906 -0.283335
29.5706 2.26546 -0.391917
328.232 19.367 0.324688
515.039 85.8631 -0.133505
419.824 45.2545 -0.178941
371.568 1.03028 0.204876
564.108 8.96041 -0.569964
25.1543 45.6725 0.253886
242.902 32.1392 0.296713
580.77 7.7472 0.320554
563.682 92.3916 0.365119
389.492 8.93992 -0.609664
505.045 3.59366 -0.627193
592.777 44.6241 -0.485644
122.832 7.89161 0.276514
453.147 40.0847 -0.138756
437.114 25.5585 -0.117834
278.967 17.4803 -0.352408
18.8789 14.6634 0.333439
625.327 75.9216 0.310287
313.149 41.5349 -0.310427
572.385 55.9862 0.337294
554.077 13.5252 0.328986
625.83 15.0729 -0.23773
422.977 47.2159 0.182692
87.1658 40.0614 0.301782
579.626 80.1021 -0.267465
541.761 77.9136 0.106207
635.45 56.877 -0.237445
621.115 2.66324 -0.663972
276.041 29.9476 0.433527
539.434 29.602 -0.140795
22.6977 6.3659 -0.659741
126.07 39.6506 -0.172532
459.813 16.8792 0.232179
623.252 61.4189 -0.519033
185.014 29.4286 0.248603
41.2946 35.6965 0.30653
444.35 1.01628 0.257625
224.155 8.8362 -0.444553
588.408 57.6125 -0.348022
611.403 54.9256 0.312342
339.006 23.4634 -0.370229
154.466 27.404 -0.431023
480.629 55.9694 -0.437276
356.183 17.8704 -0.456679
385.345 30.8346 -0.105567
354.671 6.93244 0.382689
486.899 11.2881 -0.236893
635.709 17.4333 -0.265286
75.3696 40.1926 -0.46546
316.407 5.82102 -0.214727
498.017 9.54872 0.42073
338.666 48.4669 0.534352
22.9583 26.5146 -0.50913
28.1339 6.13612 -0.303661
493.382 44.3424 0.483274
456.364 33.2582 0.199832
23.5666 39.1239 0.435698
87.6615 31.3097 0.209985
307.855 17.7062 -0.282825
521.452 28.9667 0.142086
432.388 52.9782 0.32236
595.279 10.6757 -0.391372
589.025 6.92497 -0.196439
364.341 40.844 0.094776
535.377 60.4762 0.131024
226.796 17.0662 0.586439
313.03 4.08398 0.480035
97.2674 32.2706 0.394887
109.886 25.4971 -0.308591
479.866 52.222 0.0750854
290.729 19.0657 0.512271
569.319 38.8515 -0.137387
568.373 92.2061 -0.0986743
439.465 34.3647 0.372837
623.006 44.1497 0.374461
401.756 23.8701 -0.296984
262.804 25.3251 -0.328555
573.626 75.7067 -0.296588
265.189 29.3921 -0.476962
512.876 12.9507 -0.35971
314.337 38.2946 0.201112
453.643 15.4275 0.54583
345.416 35.3773 -0.0909215
402.922 17.1362 0.129416
301.587 45.6297 -0.49484
181.4 30.5211 0.14693
607.716 72.9596 -0.174958
633.326 18.854 -0.473119
5.92573 13.03 -0.484127
406.232 24.0757 -0.587114
35.418 24.1504 -0.114015
355.425 33.9163 -0.471285
372.466 27.9824 0.263122
70.7997 12.2453 0.510466
48.9033 34.1587 0.433711
215.981 13.8328 0.428433
515.874 65.9139 0.463615
510.093 25.4349 -0.503084
70.7038 21.4564 0.478702
596.637 87.3644 -0.429048
606.936 2.4279 0.623232
558.18 85.6268 -0.469436
560.847 2.65674 -0.666494
490.756 29.3288 -0.457153
492.494 69.0765 -0.437197
461.92 20.7867 -0.524799
632.525 6.19555 0.316091
213.715 25.2767 0.162156
121.703 36.6456 0.101549
236.77 6.98375 0.458678
89.1838 4.5207 0.286743
60.3298 10.3543 0.231277
263.932 37.2558 0.29792
15.063 25.5978 0.447025
495.378 20.7099 -0.452991
509.897 71.1639 0.186094
428.556 30.9489 -0.396444
633.83 84.9317 0.355226
382.852 8.69668 -0.116199
405.948 41.215 -0.517187
481.12 3.21741 -0.247456
20.2914 25.6619 -0.458719
516.387 4.15191 0.524633
488.245 3.91637 -0.305488
197.283 11.2042 0.490694
399.673 17.0152 -0.228336
297.776 6.48424 0.356887
366.586 20.7939 -0.365223
579.962 49.3499 0.158737
183.808 26.2862 -0.48091
612.506 13.0147 -0.436921
582.645 46.5977 0.38391
361.904 11.5482 -0.253313
580.189 2.19916 0.455405
522.581 37.4984 0.553365
596.697 23.2135 -0.551978
400.072 48.7197 0.316353
449.85 18.0765 0.5905
424.441 58.9363 0.220166
418.753 10.2203 -0.156017
562.048 85.7859 0.259452
560.195 81.55 0.296074
184.237 39.7164 -0.334342
623.958 14.5838 -0.257309
493.574 70.3073 0.260602
11.0144 18.4927 0.196904
383.192 26.1885 0.543964
178.968 23.6375 0.435794
88.7735 41.0033 -0.228762
622.438 58.1361 -0.456617
553.762 88.8773 0.219346
304.301 27.4544 -0.400755
478.806 10.2112 0.578685
78.0788 45.8407 -0.2144
237.68 26.925 -0.504929
498.522 26.8617 0.48577
449.674 32.5423 0.438328
252.243 0.919986 -0.374975
483.019 62.2181 -0.349967
481.362 47.591 -0.530711
442.326 48.9426 0.408032
451.529 5.85245 -0.624732
565.086 20.8238 0.441491
171.704 12.5907 -0.218338
461.943 52.1424 0.439355
492.068 53.8209 0.115364
69.1351 0.991114 0.320373
242.014 5.47666 0.193947
631.992 23.7556 -0.293903
625.524 16.9971 -0.528105
636.083 25.2829 -0.701432
290.386 8.5115 -0.242921
598.641 32.971 0.630447
383.527 45.5068 0.370935
422.154 0.835025 -0.392022
547.33 78.3671 0.43502
24.5726 32.8245 0.343508
314.85 44.449 0.587264
242.783 3.64761 0.461307
619.521 79.0216 -0.174039
596.536 96.7316 0.222073
275.047 12.13 0.294091
567.775 75.5158 0.0854921
500.189 2.49666 0.360015
486.234 7.92762 0.548421
92.1218 18.8532 -0.495536
290.298 1.03846 -0.231429
326.603 2.21351 -0.396764
13.307 7.92354 -0.603319
3.98831 31.9276 -0.248691
154.452 19.3573 0.401939
65.0216 42.9343 0.24471
62.8635 30.2315 0.308691
398.891 14.4026 -0.474842
348.658 38.5999 0.421999
601.187 60.7675 0.156674
18.6467 4.20652 0.28046
66.8927 7.20184 0.148281
522.854 71.476 -0.134686
281.835 0.942514 0.424086
346.091 18.4541 -0.185247
226.561 4.74128 -0.380836
558.857 63.918 -0.300369
424.376 8.26894 0.407721
601.071 34.1022 0.417446
532.868 63.3876 -0.30081
573.702 52.8039 0.0792963
396.576 27.3662 0.576205
97.3226 46.8323 0.320883
478.869 66.3345 0.0818506
599.315 17.7267 0.235235
228.57 32.1112 -0.254709
29.4375 18.7641 -0.20351
321.139 14.8596 0.510709
102.39 42.1024 -0.467692
256.94 43.6816 -0.236858
402.719 2.18073 -0.266803
626.39 68.4647 0.436555
556.107 0.675477 0.643468
316.97 4.14946 0.530805
287.147 28.2837 -0.159858
425.423 54.9978 0.254745
77.3847 8.72165 0.525296
189.548 46.4295 0.391626
612.867 58.09 0.353965
456.894 55.1053 -0.0783051
191.807 41.7785 -0.292921
153.114 44.6872 0.463832
638.631 50.77 -0.540674
635.003 19.0361 -0.677011
534.316 18.1944 -0.664416
182.477 25.2113 0.117196
492.353 30.7586 0.180521
494.32 30.8871 -0.330754
387.423 5.90635 -0.147468
441.063 2.30141 -0.410507
598.863 63.8393 -0.531393
81.1901 32.0467 -0.256531
564.198 61.6582 -0.498771
263.14 16.0449 -0.463649
8.50419 2.54005 -0.353361
120.335 38.6187 0.198205
63.4465 23.5354 0.592555
563.803 41.5953 0.297776
618.97 87.8846 0.189536
177.652 29.3041 -0.203911
629.995 20.4685 0.454037
42.7391 37.6844 -0.302843
86.4838 29.6889 -0.151397
545.57 48.097 0.484585
390.573 19.3551 -0.593641
469.484 17.9273 0.127845
229.055 30.122 -0.179
542.494 18.2819 -0.469363
636.118 19.3837 0.410241
27.1849 33.5822 0.304973
259.65 7.8932 0.202083
213.722 15.5495 0.26445
1.29988 37.3692 0.121966
216.939 14.8622 -0.399505
203.608 11.1175 0.129894
205.802 26.5941 -0.280077
127.533 28.9111 -0.157533
491.259 16.6274 -0.423759
160.147 14.5151 -0.366851
614.151 77.08 0.240551
166.954 3.79882 0.519878
44.8266 38.694 -0.456628
585.7 66.9934 -0.45922
270.01 32.1447 -0.430269
576.591 62.9666 -0.42161
631.472 71.442 0.454719
288.448 9.13888 -0.116928
588.695 34.7005 -0.397912
314.848 2.55574 -0.418281
392.994 24.8705 -0.383523
547.466 21.4676 0.479865
101.009 12.6617 -0.544612
442.964 4.42777 -0.573692
604.29 34.4144 -0.184651
83.8716 7.96084 -0.288383
270.494 15.6685 0.189414
400.061 11.9537 -0.241059
632.328 2.42857 0.613652
376.476 1.9702 -0.549008
169.369 39.9483 -0.329986
602.13 15.7736 0.375101
123.507 37.7181 0.191503
252.598 32.5634 -0.380294
378.639 21.7916 0.289015
514.575 15.5356 0.43125
366.2 10.3005 -0.565448
423.388 40.5579 0.483736
603.23 74.1666 0.435816
44.3956 12.2234 -0.226335
286.858 40.9373 -0.302088
360.689 29.096 -0.454898
387.382 21.1979 0.34297
475.162 63.7955 0.371792
597.205 58.6289 -0.203165
566.026 81.8089 0.360393
216.885 34.9228 -0.388644
12.332 33.9822 0.19675
558.208 82.0196 -0.117451
470.44 60.4472 0.481186
220.454 40.106 0.115876
583.345 72.5332 -0.121484
144.649 9.7281 0.271641
348.335 23.9186 0.393492
425.532 57.0536 0.102656
391.315 20.6456 0.284747
604.194 82.0353 -0.291362
403.48 4.35775 0.642212
46.9436 26.0459 0.198692
434.389 45.6838 0.335269
403.532 48.0961 -0.438572
619.882 71.5648 -0.235551
587.89 32.9373 -0.469625
486.794 21.4124 -0.209803
612.844 68.436 -0.409626
281.49 2.25745 -0.486903
360.444 32.1936 0.548172
26.8008 40.8081 -0.318838
588.316 40.105 -0.154768
526.008 43.0374 0.566584
430.954 2.55387 -0.536646
120.103 4.76495 -0.356055
398.903 42.7315 0.127938
10.9862 0.905932 -0.30175
630.997 7.8253 0.157437
352.278 43.4359 -0.573953
536.832 27.7147 0.467381
[...]
POINT_DATA 13483
TENSORS Strain_matrix float
-0.014182 -0.227765 -1.8142 
0.106806 0.0264411 -0.492206 
0.00454804 -0.0146785 -0.253509 

-0.372737 0.309221 0.0419467 
-0.0158667 0.242694 3.11677 
0.00176015 0.00250502 0.0639412 

-0.010998 0.00384494 -0.148089 
-0.00184867 0.00195696 -0.53595 
-0.00045416 0.00239283 0.241238 

0.0101042 0.00268115 -0.0405217 
-0.0119254 -0.00613883 -0.00356308 
0.000140813 -0.000847992 -0.00117684 

-0.32461 -0.00515399 4.22498 
0.0759474 0.305922 1.44653 
-0.0770031 -0.0354435 0.134628 

-0.0957371 0.0421339 0.207199 
-0.0419837 0.0757302 0.696231 
-0.00488704 0.00332478 0.427132 

-0.00858573 0.00336651 0.00452442 
-0.0042924 0.00664431 0.00456505 
-0.00032325 -0.000253832 0.0332362 

-0.00151044 -0.0629841 0.00333492 
0.0207844 -0.0432168 0.0208751 
-0.000318255 -0.00564879 0.0756027 

-0.037926 -0.0232638 0.771257 
0.0891597 0.0747867 -0.280832 
-0.00340756 0.02789 0.254048 

-0.0108291 -0.00848708 0.00144465 
-0.00976457 0.046698 -0.0888785 
0.00086709 -0.000192196 -0.00341429 

-0.00397677 -0.00195381 0.00782483 
0.0030712 0.00192237 -0.00841705 
-0.000532235 7.00323e-05 0.00314159 

-0.143553 0.0243852 -0.604313 
-0.0771148 0.0525167 -0.709537 
0.0101483 -0.0233481 0.231488 

0.000954792 0.00596414 0.0802163 
0.021863 0.00793659 0.114427 
0.0166999 -0.00529143 0.328163 

0.00324272 -0.0599609 -0.0267179 
0.0507014 -0.00096747 0.0049469 
5.68895e-05 0.000138469 -0.000951879 

-0.0157273 -0.00760304 -0.0603202 
0.00947002 0.005612 -0.0156368 
-0.000337158 0.000871685 0.0362598 

-0.00843506 -0.0168487 0.0106903 
0.013272 0.00220442 -0.000449705 
0.000583709 8.3701e-05 0.0208441 

0.002303 -0.00194933 -0.00512694 
0.00301688 0.00158505 -0.00149188 
0.000117854 -0.000454059 -0.0082816 

-0.109192 0.00016094 -0.0398611 
0.116421 -0.0163444 -0.0137528 
-0.0822023 -0.0814762 0.28797 

-0.0159926 -0.0561174 0.347822 
0.0364768 0.00851338 1.21267 
0.00628254 -0.0014756 0.00961569 

-0.0266579 0.00488968 -0.34363 
-0.0421423 0.074359 -0.14623 
0.0210851 -0.00187678 0.0946964 

-0.000307706 -0.113629 -0.249591 
-0.00720036 -0.000367252 0.0824647 
0.0566124 -0.026979 0.135694 

-1.42161 0.191927 0.898104 
-0.388536 0.152779 0.409706 
0.0578288 -0.148937 0.535888 

-0.0128447 0.0467654 0.889337 
-0.0417421 0.0171991 0.113857 
0.0145 -0.0150588 0.178959 

0.0237433 0.0448291 0.327863 
-0.0977158 0.0149512 -0.0976303 
-0.0125651 -0.00258458 -0.286859 

-0.233616 -0.1404 -0.512631 
0.34785 0.282169 0.440723 
-0.0283532 -0.0262214 0.395835 

-0.0739191 -0.195373 0.0576653 
0.176982 0.0577282 -0.0787747 
0.00264965 -0.0042479 0.0431769 

-0.00917355 -0.0386381 1.12703 
0.0882781 0.00821881 -0.490036 
-0.00153721 0.00366282 0.151934 

-0.367292 -0.341899 0.365121 
0.794743 0.369995 -0.361405 
0.0159018 -0.0116608 0.0287003 

-0.00539558 0.0152509 0.0109031 
-0.00405812 0.0025023 -0.00465713 
-0.0010227 -0.000374718 0.00978315 

0.00519208 -0.0757807 0.110868 
0.0642002 -0.0362711 -0.180708 
-0.00847917 -0.00881335 0.0594901 

-0.271937 0.383538 -0.11155 
-0.00347156 0.184531 0.0650228 
-0.0165391 -0.019771 0.505552 

-0.0946807 0.0504311 0.250715 
-0.263404 0.00842622 0.365746 
0.0217375 -0.00728199 0.19539 

-0.0110911 -0.0241208 -0.00105951 
0.00178277 0.0046784 0.0198325 
0.0225848 0.0155139 -0.0403753 

-0.0553691 0.358608 -216.147 
-0.000808595 -0.00398811 -17.6612 
-0.000744968 0.00645892 -0.955509 

-0.0255105 -0.0159461 0.0159902 
0.0399321 -0.0212668 -0.271446 
0.0316257 -0.0313511 0.709083 

-0.197698 -0.169303 -1.10517 
0.0389515 0.112702 -2.03732 
0.0327811 -0.0888297 -0.22978 

-0.2285 0.0917721 1.95665 
-0.0605101 0.167036 0.238969 
-0.0342536 0.0486397 1.17747 

-0.0398463 -0.0441888 0.0184836 
0.0895054 0.0246626 -0.0491459 
-0.00890501 -0.0414269 0.168211 

-0.161111 0.424945 0.27722 
-0.0862547 0.185793 0.220378 
0.0281121 -0.0287944 -0.0420196 

-0.00346746 -0.030777 0.0780538 
0.0465417 0.0190805 0.0842202 
0.0196669 -0.0141448 -0.205609 

-0.155846 -0.101367 0.0828219 
0.113128 0.0915009 -0.340581 
-0.0160002 0.108522 0.351742 

-0.0175646 -0.104318 0.111798 
0.169985 0.101278 0.190179 
-0.0558246 -0.046582 0.611951 

0.00686694 0.106945 0.0578573 
-0.0780836 0.0262181 -0.0233082 
-0.0130312 -0.00111953 -0.04931 

-0.00551064 0.000343653 0.00458112 
-0.000610349 -0.0019211 0.0021193 
4.88495e-05 0.000328197 0.00737603 

-0.00836726 0.0115721 0.0139049 
-0.0180196 -0.000594483 -0.0134818 
-0.0103933 -0.001768 -0.000362172 

-0.00770792 -0.00277932 0.00286696 
0.0164502 -0.00471959 -0.00286189 
0.00107737 -9.08258e-05 0.0180084 

-0.0141845 0.0457872 -0.22868 
-0.0318977 -0.0195013 0.0752465 
-0.0113467 -0.000341997 0.054221 

-0.0174057 0.0115034 -0.147758 
-0.0306655 0.0413348 -0.0245358 
0.066065 0.0486158 0.312057 

-0.0248497 -0.0648123 0.0225166 
-0.0155596 -0.0291328 -0.0915574 
-0.00423618 -0.0137655 0.531668 

0.00575279 0.0421201 -0.0675908 
-0.0892445 -0.0178244 -0.0406603 
-0.00103755 -0.0011632 0.0158465 

-0.0126519 -0.00137528 -0.00228701 
-0.00527186 0.00279263 0.0207844 
0.000847863 -0.000750835 0.0129866 

0.0258685 -0.0119414 -0.075744 
-0.00357905 -0.0233605 -0.0401245 
-0.0222948 0.000735314 -0.00309678 

0.00338114 0.0235966 0.0244903 
-0.020497 0.00441837 -0.027242 
-0.000178459 0.000311458 -0.0119819 

-0.0396017 -0.00436875 0.360812 
-0.0249011 -0.0320983 -0.174976 
0.00127659 0.00609431 0.0401892 

-0.0152259 -0.0059329 0.655096 
0.00854941 0.00893222 0.486979 
-0.00102904 0.00144501 0.312297 

-0.0759683 -0.121227 0.193582 
0.0176517 0.0601617 -0.136223 
0.00317962 0.00741663 0.0769035 

-0.017261 -0.00314675 -0.417214 
0.110327 0.0482881 -0.283426 
-0.0500151 0.0507093 0.312028 

-0.0051122 -0.0905316 -0.0758015 
-0.000125551 0.00392375 -0.0215384 
-2.6983e-05 0.00442314 0.00605465 

-0.0189879 -0.0124241 -0.0175787 
0.00705994 0.0153266 0.0303826 
-0.000118979 -0.00190566 0.0057026 

-0.166464 -0.0529687 0.040578 
-0.199539 0.0788563 -0.508346 
0.0619628 -0.0305559 0.275818 

-0.0669108 -0.248173 0.788334 
0.0277947 -0.0528591 -0.582951 
-0.0009499 0.0101635 0.221674 

-0.0463243 -0.118527 -1.51222 
0.215602 0.0157324 -0.788608 
0.0306827 0.0621688 0.317616 

0.00833573 0.0540231 -0.0516125 
0.00136802 -0.0125814 0.0522096 
-0.0150634 0.0253536 -0.0610228 

-0.0125498 -0.0151727 0.0555218 
-0.0126563 -0.0122616 0.0384636 
0.000391787 0.00136468 -0.0273936 

-0.0208787 0.0287135 -0.00128228 
-0.0473765 0.00742272 0.0197895 
0.000531572 -0.000658492 0.00767344 

-0.152229 -0.16914 0.44848 
0.013629 0.241873 -0.070639 
-0.0296829 0.0672088 0.484278 

-0.0571778 -0.015624 -0.0568797 
0.122067 0.0532714 0.0912088 
-0.0116372 -0.0208073 0.027778 

0.0194058 0.0136926 -0.0687061 
-0.00603797 -0.00384802 -0.0678052 
-0.00195711 0.0010051 -0.0181026 

-0.0249211 -0.0106461 -1.5385 
0.012844 -0.0327905 -0.418606 
-8.2817e-05 0.00142112 0.544673 

0.00878665 -0.0106771 -0.0559913 
0.00356252 -0.0344341 -0.00285386 
-0.00136925 -0.000785056 -0.00200153 

0.00608124 -0.000381038 -0.0888897 
-0.0021842 0.0174019 -0.0990512 
0.0014463 -0.00291237 0.123962 

-0.00717402 -0.00577402 -0.0141871 
0.00395901 0.00306481 0.00222502 
0.000594011 0.000300618 0.0116766 

0.0291696 0.0938594 0.140155 
0.185093 0.0386518 -0.662641 
-0.0096581 -0.0224907 0.157003 

0.0508821 -0.266105 -0.953018 
0.451341 0.178742 -0.271788 
-0.0680832 -0.0295947 0.832432 

-0.0336836 0.0516791 0.0417081 
-0.0742473 0.0171239 0.0187966 
-0.00243072 -0.014781 0.105808 

-0.066733 -0.0103768 -0.147456 
0.00716323 0.0372052 -0.0895155 
-0.00424828 -0.00446597 -0.0277546 

-0.101771 -0.0843798 0.0265891 
-0.00196719 0.119125 0.670871 
0.00650738 0.0178806 -0.0764745 

-0.0219526 -0.0416205 0.0294734 
0.0458258 0.0109121 0.010893 
0.00080526 -0.00228614 0.0228393 

-0.873556 0.12662 1.51916 
-1.0435 0.42473 -0.558254 
0.0329889 0.113289 0.410016 

-0.00435578 -0.016894 -0.152378 
0.0219226 -0.00422427 0.062662 
0.00314912 0.000575873 0.0354355 

-0.00197195 0.0210997 -0.0147534 
-0.0343378 0.00254642 -0.0107372 
0.00385335 0.000606179 0.00864839 

0.0105108 -0.169284 0.365972 
0.183236 0.00660852 0.711093 
-0.0428019 -0.00921707 0.424283 

-0.00672332 -0.00278351 -0.00697123 
0.00746964 0.00123008 -0.0115006 
0.000302115 0.000707218 0.0125207 

-0.00220189 0.0228739 -0.00439473 
-0.0378742 -0.0030289 -0.00720872 
0.000890975 0.000178003 0.00873113 

0.00941186 -0.0181304 0.00993531 
0.0313346 0.0051638 0.0148307 
-0.0052949 -0.00690342 -0.0228278 

0.0592769 -0.0178233 -0.34849 
-0.191341 0.081241 -0.447789 
-0.0222877 0.0728665 0.150269 

-0.0847147 -0.12711 -2.12154 
-0.00730501 0.0113176 0.259782 
0.00542543 0.0939664 0.488668 

0.00809465 -0.0227745 -0.311638 
0.0215978 0.0524115 0.178362 
0.0551124 -0.00331232 -0.305581 

-0.00477314 -0.143834 0.0389211 
0.14361 0.0248379 -0.00777494 
-0.00316422 0.0103081 -0.00233415 

-0.0194796 0.00322945 -3.23685 
0.00783614 0.00890305 -0.622242 
0.00371493 -0.00773669 0.975265 

-0.00918568 0.0211474 0.0250186 
0.00333082 0.00964689 0.127052 
0.00704368 0.0474273 0.0394988 

-0.0297875 0.0576822 -0.500631 
0.073779 0.034341 0.343074 
0.0356857 0.0445073 0.486358 

0.0176114 -0.0209642 0.253805 
0.00373928 0.0271714 1.57744 
0.0026615 -0.00225792 0.116748 

-0.00448369 -0.000305179 -0.0155044 
-0.0141506 -0.00855702 -0.0429518 
0.000932143 0.00157778 0.0189199 

-0.00200654 0.0239947 -0.000222846 
-0.0153023 -0.00427614 -0.0126489 
-3.93022e-06 0.000687403 0.0137978 

-0.00612321 0.214916 -0.280413 
-0.0561334 -0.0955138 0.0965391 
0.000801973 0.029755 0.0153332 

-0.00822985 0.00353068 0.0970456 
-0.0177366 0.00359885 0.0256765 
0.00248926 0.000726144 0.0283819 

-0.00698445 -0.0210088 0.0419367 
-0.0188307 0.00319419 0.0601653 
-0.000451185 -0.000489253 0.000281372 

0.0104499 -0.00813404 -0.00434032 
0.0111559 -0.00843505 -0.00181983 
-0.00135295 0.00118152 -0.00285105 

-0.0594585 -0.13878 0.533455 
0.199147 0.0469802 0.387177 
0.0202907 -0.0859949 1.07322 

-0.00539246 0.00106579 -0.0829125 
-0.00789557 0.00397334 0.0530447 
5.36354e-05 0.000621856 0.0134774 

-1.64464 0.280575 7.9409 
0.0757465 0.610925 -1.72884 
0.0490674 0.0499794 -0.805995 

-0.0309502 0.0629089 1.00047 
-0.0482428 0.0461297 0.612829 
-0.0164736 -0.00652913 -0.0421763 

-0.257259 -0.0899717 -0.145215 
-0.171798 0.136648 0.274605 
0.0931547 0.065724 0.53642 

-0.150706 -0.0601177 -0.612638 
0.102752 0.159811 0.871986 
-0.0135677 0.00164375 0.202067 

-0.0223186 0.021426 -0.00579574 
-0.0531722 -0.00463536 0.00922164 
0.00629693 0.00167867 0.0381522 

0.00606162 0.00660323 0.0101612 
-0.00481696 -0.0156419 -0.0108099 
-0.000334707 -0.00145727 0.00427937 

-0.0306032 0.0208612 -0.199308 
-0.0287416 0.036972 -0.590861 
0.020095 -0.0367219 -0.272228 

-0.0615005 -0.00259163 -0.00938583 
-0.0782049 0.05 0.0225232 
0.00593899 0.0118437 -0.0217141 

-0.0272068 -0.0313894 0.0286143 
-0.0388097 -0.0273043 0.0125837 
0.000484419 0.00229921 0.039053 

-0.0602989 -0.344447 -20.4598 
0.0200573 -0.0148443 -4.74523 
0.00245133 -0.0107585 -0.514873 

-7.04763e-05 0.0148535 -1.65717 
-0.0257722 0.00886402 -0.651505 
0.00236957 0.00416365 0.175173 

-0.018991 -0.00321771 0.0163734 
0.0195777 0.00816078 0.0391027 
0.00512493 -0.00166729 0.0255764 

-0.198614 -0.0459144 8.53936 
0.24571 -0.104386 -4.31926 
0.0433799 -0.00279262 -0.191792 

-0.456113 0.574209 -1.61192 
-0.745266 0.650907 -1.25181 
-0.0673773 -0.00734596 1.22865 

-0.0114584 0.0367018 -0.0682432 
-0.0499894 0.00392486 0.278595 
-0.00228168 -0.000960588 0.0606359 

-0.00432929 0.00866427 7.33902e-05 
-0.00421102 -0.00125068 0.00469252 
0.000325019 -0.000927589 0.0120007 

-0.0229497 0.0109625 -0.0755292 
0.0412667 0.00382947 -0.012068 
0.00143858 0.00156014 0.0421422 

0.0610161 -0.167317 -0.182269 
0.197116 -0.0458362 0.140001 
-0.00199408 0.00889555 0.0218515 

0.0909061 -0.114201 0.0207931 
0.195712 -0.0134079 0.108256 
0.00407389 0.00179678 -0.0664372 

-0.0485973 0.032578 0.0154876 
-0.104515 0.0418527 0.040954 
0.0011311 -0.00702289 0.00201189 

-0.150274 -0.0666221 -0.0811086 
-0.0290357 0.131076 -0.0799312 
0.0119927 -0.0505961 0.153635 

-0.0775511 0.0372163 -0.0191015 
-0.0282992 0.0220077 -0.0605655 
-0.0034373 0.00355147 0.0533927 

0.00833544 -0.0778582 0.019163 
0.0361598 -0.00685712 -0.0296556 
-0.00091211 0.000645598 0.0143045 

-0.0290431 -0.0279943 -0.87184 
0.0288408 0.0370448 -2.80637 
0.0130184 -0.00142854 -0.610709 

-0.113329 -0.0834465 -0.158091 
0.17998 0.0483447 -0.0715233 
-0.00266764 0.00641334 0.0831933 

-0.000349745 -0.0034591 0.0183603 
0.000720496 -0.00682215 -0.00880929 
-0.00258864 0.000211496 0.0114823 

-0.0336864 0.0219001 0.0211346 
0.00628317 0.0214013 -0.0366857 
-0.00047642 -0.00264818 0.0258428 

-0.135038 -1.18734 -0.597861 
0.654648 1.14337 0.593966 
0.0427102 -0.0849918 0.357066 

-0.120122 -0.0896889 -0.208778 
0.17242 0.0443973 0.289963 
-0.0159906 0.0332895 0.267308 

-0.0277712 -0.0243615 0.0547694 
-0.0636437 0.0455723 0.243223 
-0.00285 0.00536929 -0.044084 

0.0260973 0.0524882 -0.0218474 
-0.0364936 -0.00623214 -0.0144295 
0.00141044 0.00141572 -0.0115753 

-0.0333078 -0.0122776 0.459265 
0.131106 -0.0359811 -0.372696 
0.0312285 0.0313317 0.0876004 

-0.0747981 0.126831 0.0783623 
-0.167904 0.0333554 -0.020007 
0.00549405 0.00275121 0.0348749 

-0.158248 -0.170798 0.390097 
-0.0766663 0.226029 -0.313785 
0.0713646 -0.0659557 0.150584 

-0.0553097 -0.0655883 0.12174 
-0.0590956 0.0213094 -0.084317 
0.0272784 0.013309 -0.0105868 

0.00454345 0.0072445 0.0171543 
-0.0454982 -0.00571193 0.0554888 
0.000901829 0.00162849 0.00452968 

-0.0147236 0.0145639 0.0575724 
-0.0322991 -0.021574 0.0086707 
-0.00124081 -0.00380952 0.0834893 

-0.22967 -0.0819932 -0.307197 
0.0447587 0.0824044 -0.1491 
-0.0046744 -0.0120681 0.23242 

-0.0236416 -0.0436097 0.0507595 
0.0585452 0.0283094 -0.0419932 
0.0147114 0.0115872 0.0335535 

0.0390746 0.159075 0.0759296 
-0.218615 -0.0213994 -0.192759 
0.00337914 0.00298004 -0.0152009 

-0.0484084 0.248813 0.0348489 
-0.0447191 0.0464257 0.0762116 
0.0209626 -0.0813528 0.336294 

-0.0146599 -0.0734595 0.0987495 
0.00541767 -0.0551218 0.0228422 
-0.00156509 0.00200161 0.11053 

-0.163232 0.165604 0.392873 
-0.239432 0.0939783 0.99372 
-0.00689404 0.0623631 0.0422673 

-0.0114528 0.0196712 -0.00811559 
-0.0268528 0.0115906 0.00330186 
-0.00095355 0.00662606 0.0294068 

-0.0088202 -0.0934964 0.0829198 
0.0713686 0.012714 -0.150992 
-0.00142897 0.00117935 0.0359689 

-0.0155871 0.0314903 0.0147038 
-0.0550465 0.0269517 -0.0106492 
0.00331614 -0.00518642 0.0129407 

-0.00112647 0.0301242 0.182583 
-0.0172955 0.0157483 0.696091 
-0.0139165 0.00078854 0.159198 

-0.159501 -0.0286928 -0.649683 
0.0643323 0.145587 -0.436995 
-0.000667836 -0.0148313 0.0197659 

-0.000312166 0.0155981 -0.00345287 
-0.0122017 -0.00101895 0.000376114 
0.000140428 0.000101422 0.00189502 

-0.0079503 0.0726358 -1.06341 
-0.0154705 0.0626359 -0.411435 
-0.00313046 -0.00145499 0.329405 

-0.0367355 0.0229683 0.361426 
-0.0909379 0.191711 -0.722844 
-0.0231973 -0.0241698 -0.220831 

-0.0146793 -0.00113908 -0.224699 
0.0106638 0.00185497 -0.268193 
0.00017864 0.0010864 0.0283913 

-0.00490203 0.0431496 -0.425073 
0.0250554 0.0124457 0.25287 
0.000962157 -0.00292737 0.0708966 

-0.0445847 0.00481987 0.200517 
-0.0191731 0.021216 -0.126146 
0.00395446 0.00284988 -0.00173848 

-0.0463818 -0.000110408 1.46388 
-0.00838269 0.0373116 0.650422 
0.00143247 -0.00680689 0.0332604 

-0.725353 -0.215811 -0.825454 
0.192172 0.445598 -0.0204171 
-0.0227616 -0.000475001 0.198938 

-0.0133451 -0.0248664 0.0585891 
0.0183137 0.00774746 -0.259981 
-0.00183054 -0.00014881 0.0419454 

-0.233989 -0.124403 1.56874 
-0.00298424 0.151305 0.565925 
0.00269087 -0.036098 0.46771 

0.0135839 0.0100494 0.0561255 
-0.0457203 -0.0703128 0.0871776 
0.0196817 0.00468173 0.122259 

0.00475525 0.0139081 -0.244061 
0.00458689 -0.00410336 0.324525 
-0.000646251 0.00185232 -0.0652931 

-0.0051991 -0.0696565 0.160695 
0.0400163 -0.0353919 -0.498634 
0.000833506 -0.00423826 0.0927545 

0.0619337 0.102279 0.0205931 
-0.18023 0.0425934 -0.0599451 
-0.0067032 -0.00437702 -0.0323136 

-0.301285 -0.00462096 1.35845 
-0.498979 0.315647 -0.774554 
0.00130433 0.014606 -0.410485 

0.0367735 -0.0955748 0.251612 
0.0671487 -0.0282792 -0.315461 
-0.00101339 -0.0260992 -0.0263794 

0.0114292 -0.0290332 0.00107257 
0.00348159 -0.00952891 -0.0156622 
0.000678191 -0.00102973 -0.00352758 

0.0199903 -0.00203555 -0.0659505 
0.0185127 0.00360263 0.0273147 
0.001047 0.00193663 0.00573229 

-0.00410202 -0.0174502 -0.0931729 
-0.0350154 -0.0187254 0.0728983 
-0.000296281 8.38287e-05 0.0802682 

-0.0265956 -0.0404234 0.299349 
0.0587731 0.00338207 -0.0379189 
-0.00211255 -0.00472302 0.112355 

-0.00664222 0.00356704 0.0249513 
-0.00104825 0.00229664 0.014971 
-0.000230619 5.93889e-05 0.0161433 

-0.0101051 -0.00433616 0.0137318 
0.00964714 -0.00737831 -0.0225721 
-0.00217862 -0.000959645 0.0468496 

-0.033873 0.0372189 -0.440088 
-0.121644 0.0901985 -0.463198 
-0.0260686 -0.0674131 0.10128 

-0.180183 -0.0372375 0.0204928 
-0.180659 0.153163 -0.269283 
0.0256621 0.0730496 0.69731 

-0.0257096 0.0613682 -0.203876 
-0.0477479 0.00049546 -0.0490713 
-0.002918 0.00203726 0.0179408 

0.00738471 0.00453172 0.0128327 
-0.0249307 0.00712649 -0.0262832 
0.00189933 -0.00304981 -0.00846102 

0.0243743 -0.0952434 0.360425 
0.435845 0.0618405 0.0856101 
0.045278 -0.142766 0.551907 

-0.00764749 0.00434822 -0.144185 
-0.020225 0.0115039 -0.000269824 
0.00120609 0.007614 0.0977395 

-0.0130234 -0.000477167 -0.000760981 
0.00567114 0.00633208 -0.0020856 
-0.000216258 0.000579218 0.00581755 

-0.112803 -0.0641511 0.737778 
0.0455434 0.083639 1.7194 
0.000144275 -0.00208143 0.177189 

-0.030587 -0.0213266 0.0053056 
0.000365174 -0.0274511 0.00461993 
-0.00339434 -0.00604999 0.0591961 

-0.0376952 -0.0734943 0.0430191 
0.0666199 0.0240684 0.221097 
0.013124 -0.0165231 0.099434 

0.0216918 -0.0746181 0.138638 
0.0429819 -0.000455322 0.678419 
-0.00561113 -0.0554905 -0.123534 

-0.061684 -0.111626 0.158941 
0.0527513 0.00178928 -0.180035 
-0.00155372 0.00341545 0.215067 

-0.00307079 -0.0011058 0.0231663 
0.0028463 0.00111253 -0.00712624 
-0.000101604 3.73882e-05 0.0212307 

-0.0450349 -0.0252572 0.0119139 
-0.0615111 0.0280409 -0.0238588 
-0.00839831 0.00146983 0.0391134 

-0.00368948 -0.00399167 -0.015081 
0.0103311 -0.00109849 -0.0356343 
0.000873866 -8.43274e-05 -0.00339582 

-0.293103 0.200106 -0.314385 
-0.0810202 0.0405498 -0.286917 
-0.0604628 -0.0861225 0.595671 

-0.0199838 -0.114566 0.00228836 
0.132847 0.00877272 -0.0617503 
-0.010796 0.0077107 0.0513109 

-0.0116438 -0.00324834 0.0801638 
0.00644662 0.00541945 -0.0920986 
0.00344778 -7.0932e-05 0.00821339 

0.0157406 -0.051949 -0.1213 
0.0278978 -0.00503533 -0.126626 
-0.00449222 -0.00427569 -0.0116213 

-0.0154222 -0.0890779 -0.00200621 
0.105837 0.0208059 -0.00513334 
0.000692687 -0.00310938 0.0133963 

-0.151117 0.124403 0.15227 
-0.249614 0.0561299 0.193356 
0.0573077 0.0372131 0.41637 

0.102038 -0.0157332 -0.399691 
0.0220282 0.0188011 0.0473492 
0.11422 0.0579971 0.00439105 

0.0317339 -0.0981079 1.02294 
0.119129 0.0375593 0.205045 
-0.0108745 0.0201411 0.5287 

-0.0289785 -0.0251797 -0.103083 
0.0346194 0.0171148 -0.0803634 
-0.000213458 0.00103462 -0.0101368 

-0.35052 -0.136401 0.65838 
0.12854 0.176826 0.491568 
0.00412341 -0.0204524 0.0428184 

-0.191712 0.227093 1.85729 
-0.238603 0.145829 -0.187312 
-0.00512394 -0.00390433 0.282139 

-0.146775 0.113145 1.14352 
-0.0933349 0.202567 0.359196 
-0.0702401 -0.0223755 0.959043 

-0.019804 -0.242226 0.013579 
0.185085 0.0611741 -0.0560755 
0.0191109 -0.0144892 0.0167607 

0.0149725 0.0133002 -0.0500719 
-0.0167589 -0.013546 0.0137902 
9.97793e-05 2.9483e-05 -0.0097182 

0.00092042 0.0181871 0.00386883 
-0.0113579 0.00357094 0.0156078 
0.000197761 -2.66894e-06 -0.00856307 

-0.0177465 -0.0231474 -0.0332947 
0.030094 0.0139459 -0.0430536 
0.0123851 -0.020686 0.0809457 

-0.00613632 0.0157937 -0.00284184 
-0.0305424 -0.00222872 -0.0127034 