# vtk DataFile Version 3.0
Output file generated by Yade's KinematicLocalisationAnalyser
ASCII
DATASET UNSTRUCTURED_GRID

POINTS 13483 float
625.829 27.79 0.54855
802.229 59.3251 0.517503
122.061 6.08639 -0.466775
834.97 6.53283 -0.468562
511.229 7.79578 -0.259508
321.168 34.8864 -0.463923
159.266 6.92672 0.429553
586.046 10.1003 0.147455
507.675 23.5119 -0.206601
752.959 12.1508 0.419411
214.517 8.86943 -0.0831369
262.1 6.30266 -0.259767
676.718 29.6431 -0.152138
654.603 14.5886 0.0854213
139.578 17.2389 0.409824
225.617 34.5551 0.405265
221.901 12.9248 -0.295119
294.645 9.66162 0.39619
348.075 32.5865 -0.498785
537.362 8.57475 0.351004
419.574 36.6242 0.0985042
609.237 44.8239 -0.255326
832.4 35.4601 -0.499709
726.434 42.9473 -0.501152
469.081 16.2414 0.287998
245.616 44.1646 0.135268
502.642 27.5661 -0.492967
603.784 20.07 0.23496
45.8964 15.5945 -0.378253
748.74 31.9605 0.0154244
493.58 4.93538 0.315159
16.8112 23.1741 0.320352
815.015 60.0697 0.255964
506.942 2.52543 0.465365
79.4951 44.4805 -0.100024
534.515 30.0611 0.36227
544.016 16.5325 -0.406474
351.233 22.5237 -0.213235
547.335 25.3428 -0.330099
358.023 33.2966 0.467457
245.816 14.6546 -0.302316
443.753 35.6986 0.076909
702.992 7.05965 0.171412
196.538 6.2531 0.366747
56.4286 6.98405 -0.129105
69.7737 8.93147 -0.299601
720.413 9.11098 -0.51812
23.7959 11.8192 -0.298795
630.758 45.0816 0.362078
704.688 23.2025 0.372708
175.931 32.2538 0.317315
799.474 43.2549 -0.119313
35.4419 28.1184 0.121009
547.911 2.99171 0.322526
144.685 7.44779 -0.501857
612.36 34.1006 0.445418
516.292 26.6953 -0.163777
178.321 0.93864 -0.274362
33.1551 2.38078 -0.303201
356.353 17.7928 0.274111
641.396 46.2535 -0.141111
472.858 33.4133 -0.186893
408.378 1.02871 0.197979
731.587 8.07887 -0.403253
27.148 43.2053 -0.234886
261.565 30.5176 0.294394
753.3 7.58362 0.192757
697.516 45.8059 0.374418
427.041 8.65178 -0.504852
586.996 3.53429 -0.34489
783.113 32.7314 -0.453304
133.159 7.70025 0.282436
510.321 25.8272 0.151586
489.236 14.878 -0.151147
300.942 16.7135 -0.342049
20.8601 13.7186 0.283927
823.678 52.5508 -0.304359
340.276 38.7068 -0.296335
702.083 20.3256 -0.342528
720.09 12.8704 -0.252199
824.338 11.5682 -0.246179
476.347 34.3692 0.184529
94.1253 38.6623 0.290974
713.99 33.9292 -0.221831
673.339 38.8341 -0.0278367
838.67 44.3214 -0.111342
815.723 0.805769 -0.511961
297.684 28.7456 0.448288
643.463 6.43165 -0.104841
24.6515 5.31438 -0.546779
135.664 38.1721 -0.157403
526.13 14.6128 0.231267
817.963 38.9383 -0.534678
199.795 28.7952 0.221159
45.1124 34.3216 0.293211
505.856 1.17532 0.13401
241.116 8.94204 -0.373846
783.048 45.9437 -0.308659
805.312 36.0766 0.274274
370.175 20.9232 -0.266563
167.56 26.729 -0.471356
566.317 38.2699 0.424571
389.478 15.612 -0.449856
423.861 29.589 -0.0936552
387.561 4.51905 0.414134
564.377 10.8734 -0.0941895
840.03 11.2646 -0.296507
81.9033 39.3934 -0.408486
343.835 4.91177 -0.192166
579.362 9.45467 -0.354211
369.408 43.6927 0.448336
26.1437 24.9013 -0.496575
30.8072 5.70678 -0.344553
587.607 32.2235 -0.315351
519.271 24.3581 0.149054
26.6991 37.0221 0.420547
95.0658 30.7019 0.239608
333.535 15.9278 -0.292791
622.241 18.7952 -0.169427
488.643 37.778 0.312071
771.478 7.72101 -0.41076
763.447 6.4955 -0.224561
397.441 37.0632 0.0960402
660.606 25.8227 0.173286
244.326 17.0967 0.489739
338.995 3.73464 0.459308
105.812 31.5107 0.374495
119.038 24.4101 -0.287431
561.496 38.5305 -0.089412
314.324 18.9016 0.4599
743.976 34.8541 0.151926
701.702 44.8106 0.121716
494.91 20.5159 -0.418692
812.559 22.0848 0.312922
440.996 23.3684 -0.24129
284.166 24.3425 0.297071
703.955 30.1656 -0.298466
286.501 28.3703 -0.428626
597.793 12.2845 -0.197411
341.426 35.443 0.210717
520.572 11.2591 0.472018
377.33 31.5021 0.0975093
443.158 16.7945 -0.106123
327.391 41.7789 0.340537
195.984 29.709 0.133957
805.493 55.7681 -0.148429
837.52 13.3863 -0.230009
6.14546 12.4979 -0.48784
447.272 22.4781 -0.422581
39.0973 22.5255 -0.0846535
387.614 31.2117 -0.324248
406.935 24.8985 0.251745
76.8956 11.9776 0.501629
53.1335 33.1361 0.423117
232.418 13.5144 0.412984
643.434 38.2683 0.490512
600.008 21.1274 -0.477663
76.8902 21.0475 0.312577
729.252 46.4363 -0.404505
794.652 3.3998 0.540809
690.176 41.6007 -0.51632
726.803 2.35221 -0.543955
570.656 26.4831 0.420636
610.986 44.9855 -0.458657
530.016 18.0683 -0.414122
833.327 3.81463 0.326274
230.235 24.7581 0.147513
131.176 35.0879 0.201374
254.858 6.44406 0.378689
97.013 4.41064 0.278208
66.0613 10.15 0.216805
284.462 35.8774 0.322202
16.8849 25.0512 0.392868
576.922 19.3531 -0.402418
630.318 39.966 0.240986
478.484 21.0807 -0.382567
834.093 58.457 0.376354
420.078 8.6322 -0.106916
450.31 35.9608 -0.387643
556.572 3.39085 -0.194867
23.2802 24.0597 -0.38714
600.382 4.56346 0.458486
566.673 4.33742 -0.291112
212.693 11.335 0.486286
439.286 16.5739 -0.194974
321.522 6.34273 0.340963
400.966 19.0674 -0.321281
771.988 43.2351 0.12092
198.226 25.6987 -0.439599
810.118 8.82191 -0.560334
772.357 39.1736 0.358896
396.226 10.1864 -0.161229
750.507 2.39658 0.46542
629.878 25.7161 -0.425571
778.732 18.3585 -0.424682
445.643 42.7705 -0.307813
514.887 12.678 0.385012
481.685 44.0289 -0.224812
460.979 8.63327 0.124571
693.64 40.369 0.305752
691.051 36.657 0.333904
198.485 38.9082 -0.255902
822.231 11.417 -0.141451
612.881 45.3431 -0.247299
11.6054 16.8552 0.246235
421.189 25.2352 0.385484
193.283 23.099 0.397772
95.8032 39.4959 -0.206469
816.665 35.8006 -0.467987
687.583 46.3184 0.243861
330.132 25.4335 0.341013
553.474 10.2083 0.318925
84.7793 44.5981 -0.173305
255.981 25.7836 -0.472311
579.576 23.6401 0.386954
504.762 18.6943 0.375258
271.615 0.889011 -0.344044
575.879 39.6551 -0.375286
554.768 40.6956 -0.467553
499.503 33.1445 -0.336469
517.943 0.826556 -0.544241
737.612 19.2185 0.37105
185.449 12.0648 -0.188551
519.323 36.437 0.452605
588.308 39.7912 0.134471
75.2527 0.947143 0.27241
260.285 4.72486 0.179566
835.914 16.5582 0.172873
824.018 13.635 -0.54573
840.879 18.7439 -0.686683
313.918 8.58901 -0.228586
783.824 23.8815 0.443486
421.42 41.3471 -0.309468
465.3 0.814688 -0.399968
678.712 36.8115 0.463544
27.8876 30.7173 0.300003
342.348 41.3551 0.576058
261.144 2.85875 0.331293
819.014 57.2055 -0.151287
747.657 46.9927 -0.279639
297.27 10.9984 0.234616
697.012 29.7678 -0.135338
581.214 2.65007 0.300084
564.405 6.41805 0.42239
99.7665 18.3983 -0.506748
313.804 1.03371 -0.22537
355.416 2.25637 -0.366776
14.2435 7.60849 -0.44492
4.55815 31.0605 -0.266208
167.192 18.8342 0.381041
70.279 41.7736 0.215885
68.7642 28.9675 0.368362
438.957 14.6945 -0.434029
380.29 34.9899 0.475294
796.941 45.1848 0.15799
19.9737 4.03659 0.267145
72.876 6.928 0.1244
652.979 38.1312 -0.213302
304.984 0.916929 0.360313
378.245 16.1944 -0.0928422
243.776 4.70494 -0.393355
683.041 21.9611 -0.268679
468.52 8.35024 0.42049
786.868 21.9757 -0.474184
659.808 29.2841 0.345869
700.873 18.6851 -0.104172
435.639 26.5525 0.535023
105.441 44.9981 -0.307662
565.181 42.0584 0.074084
776.625 13.3787 -0.190634
246.214 30.4508 -0.257928
32.9208 17.1865 -0.200582
348.708 13.7624 0.50939
110.987 40.605 -0.395974
277.208 42.2122 -0.207703
441.286 1.61402 -0.302867
822.124 45.1671 0.487438
719.802 0.770237 0.492153
344.396 3.32976 0.541081
310.884 26.4555 -0.152565
480.505 40.8893 0.225594
84.2454 8.10112 0.424724
204.818 45.0476 0.37777
807.366 38.8491 0.410171
514.456 38.9659 -0.0827341
207.27 41.3433 -0.262884
166.549 42.3355 0.315561
842.141 41.0023 -0.392185
839.3 13.0337 -0.631979
634.177 3.41449 -0.467717
196.914 24.5434 0.11107
572.479 27.407 0.110162
574.515 27.1973 -0.268629
424.702 5.69136 -0.138278
500.737 0.923792 -0.297466
795.372 48.1361 -0.541552
87.7411 31.0425 0.220399
689.162 18.8122 -0.435838
284.293 15.5553 -0.346127
9.7288 2.34112 0.349127
129.748 36.9143 0.189498
69.2649 23.3207 0.510888
736.946 36.8847 -0.319115
822.016 65.468 0.165078
192.147 28.3775 -0.191106
832.414 14.2338 0.436303
46.4939 36.4363 -0.270032
93.9807 29.088 -0.166996
664.03 12.7473 0.569925
429.155 18.4137 -0.464795
540.662 16.5218 0.13152
246.761 28.4582 -0.182275
650.735 4.55777 -0.390775
840.813 12.9277 0.322684
30.5936 31.785 0.284839
280.033 7.72931 0.193572
230.032 15.1192 0.2547
1.06836 35.7447 0.149599
233.405 14.5898 -0.368448
219.419 11.0756 -0.106337
222.167 26.3222 -0.272653
137.661 27.8219 -0.133118
571.133 14.9743 -0.352645
173.153 14.1314 -0.358386
813.298 57.0504 0.24607
180.37 3.80969 0.510914
48.8534 37.403 -0.407704
775.833 51.527 -0.452733
291.551 31.2789 -0.376771
710.825 23.1374 -0.435323
829.102 46.6546 0.472841
311.95 9.2007 -0.106965
772.188 30.635 0.327939
341.293 2.57077 -0.39511
432.037 24.075 0.344807
707.038 16.175 0.416485
109.05 11.933 -0.463981
502.471 3.79347 -0.525148
790.858 20.9186 -0.265661
91.4661 7.67964 -0.230003
292.135 14.7695 0.201214
439.761 11.8723 -0.205625
832.29 2.47884 0.617482
413.393 1.98937 -0.526696
183.323 38.7587 -0.309651
779.588 10.493 -0.373464
133.019 36.2029 0.183543
272.79 31.36 -0.392193
415.876 21.6777 0.218299
600.241 14.2199 -0.319742
402.133 9.76025 -0.492133
474.63 27.503 -0.354961
802.366 58.1112 -0.395399
49.1273 11.0918 -0.110462
310.669 38.4571 -0.255521
394.34 26.9963 0.345672
425.495 21.0637 0.249407
542.784 44.0522 0.356388
791.334 44.4969 0.198341
696.537 35.6841 -0.378347
234.109 34.1793 -0.382351
14.2756 31.6073 0.173179
689.494 37.8145 -0.137347
530.061 41.0438 0.44578
238.094 39.1927 -0.0911059
717.789 30.3653 -0.101611
156.511 9.287 0.212162
380.776 21.3775 0.333133
482.31 41.9515 0.103688
430.097 19.8257 0.216053
798.916 62.967 0.29137
442.801 3.8611 0.505141
51.3767 25.036 0.199633
488.954 31.5915 0.363322
451.973 42.2179 -0.387434
817.167 49.8833 -0.215671
769.412 29.05 0.241975
564.626 18.3391 -0.192444
809.623 49.0537 0.345075
304.515 2.2049 -0.46229
393.084 29.4361 0.492666
29.9574 38.8135 -0.31557
775.01 32.028 -0.15381
638.375 20.0909 0.524026
481.626 0.777259 -0.47247
130.563 4.56809 0.271054
443.414 40.1806 0.111032
12.1961 0.911336 -0.315975
831.055 6.85076 0.123928
384.617 39.1593 -0.410336
[...]
POINT_DATA 13483
TENSORS Strain_matrix float
-0.108337 -0.00300901 0.723479 
0.0813935 0.115551 -1.70533 
0.00415778 -0.0256919 0.192705 

-0.138103 -0.077874 1.47744 
0.0807685 0.363393 9.10369 
-0.00257215 -0.00907124 -3.05603 

-0.019977 0.00200443 -0.493286 
0.00956908 0.0140123 0.629276 
0.00685681 0.010546 3.25682 

-0.205706 0.0474225 -0.648513 
0.0929688 0.0358152 0.327261 
-0.0156961 0.0185387 0.207164 

-0.0906215 -0.00650858 0.0327658 
0.0166057 0.0463437 -0.152611 
-0.0298674 0.0338093 0.211448 

-0.00519238 -0.00580296 -0.0407346 
0.00235519 0.00104012 -0.00362089 
0.000303534 6.24228e-05 0.0144085 

-0.0108627 0.00118071 -0.00929675 
-0.00174874 0.00552304 -0.0190308 
0.00107153 0.000583065 -0.00777883 

-0.00827261 -0.00712946 0.00657861 
0.0172805 0.00249374 0.00253109 
-0.000909228 0.000240896 0.00345471 

-0.0461738 -0.0224267 0.087808 
0.0181133 0.0179466 0.061363 
0.00225466 -0.00801106 0.0917085 

-0.00747935 -0.00565549 -0.0128344 
0.00145564 -0.00369392 0.0205954 
0.000162979 0.00229265 0.00710013 

-0.00783554 -0.00515602 0.0171558 
0.00690837 0.0019122 -0.00158839 
-0.000512946 -0.000163916 0.0116389 

-0.011517 -0.00304506 0.00340334 
0.00423506 0.00482741 0.000665436 
0.000482075 6.55684e-05 0.00107594 

-0.211263 -0.132293 0.575606 
0.0672089 0.158904 -0.0283177 
-0.0437152 0.0369639 0.347225 

-0.0188505 -0.00723243 0.0487915 
0.00571322 -0.0125097 -0.140282 
-0.00942612 -0.0467772 0.105103 

-0.0173497 -0.0125631 -0.0472094 
-0.00420363 0.00494618 -0.0456398 
-0.000605516 0.000957998 0.0184253 

-0.0187756 -0.011882 0.0979899 
0.0102423 0.00174638 0.0255535 
0.0030256 -0.000616587 0.0527564 

-0.00929976 -0.0039169 0.00324664 
-0.000183306 0.000994848 -0.00613706 
0.000322595 0.000275971 0.00858302 

-0.00884138 -0.00364984 0.0068476 
-0.00401205 -0.00412203 -0.00825839 
0.000570752 0.000260222 0.0212585 

-0.0348428 0.00922053 -0.334256 
0.00146675 0.00864131 -0.513194 
-0.00357332 0.00681203 -0.328072 

-0.00342634 0.00184962 0.0280849 
-0.00832476 -0.0016666 0.006784 
0.00152438 0.000734536 0.0191665 

-0.0143285 -0.00983449 0.0086283 
0.00744294 0.00495996 0.0120518 
0.000657519 -0.000722172 0.0133957 

-0.0306005 -0.0151479 -0.00381345 
0.0252436 -0.0105278 0.0404595 
0.00102916 -0.000215461 0.0635375 

-0.046554 -0.196723 0.264185 
0.239485 0.0640544 0.265473 
0.0682418 0.0489395 0.30153 

-0.0170047 0.0135401 0.251282 
0.000143173 -0.0096717 0.392558 
-0.00528302 -0.00113976 0.0322809 

-0.00794511 0.00303584 -0.0125237 
0.00879657 0.0013022 -0.0057512 
-0.000504732 -0.00039616 0.00486206 

-0.0300326 -0.00193404 0.0371211 
0.00448536 0.013507 -0.0387199 
0.000467694 -0.000402553 0.0144329 

-0.0182304 -0.00530301 -0.938103 
0.0172141 0.0100284 0.241171 
0.000290105 0.00155393 0.0617075 

-0.0240841 0.00086947 -0.167827 
-0.00136763 0.0215416 -0.11342 
0.0137706 0.00248381 0.404801 

-0.0102312 0.00623336 0.0210338 
0.00209445 0.00109901 -0.0640236 
-0.000711655 -0.00017164 0.0247833 

-0.0179001 0.0625523 0.150265 
-0.00923533 0.0338002 0.15386 
0.00140211 -0.00445343 -0.0239326 

-0.00424207 0.00938127 -0.00225372 
0.0038311 0.00373295 -0.00995803 
0.00106828 -0.000613673 0.00266345 

-0.035197 -0.0181941 0.0355188 
-0.0151516 0.013385 0.00575947 
0.00496463 -0.0125732 0.0519006 

0.0777815 -0.28348 0.116591 
0.261552 0.0137332 0.00488666 
-0.0148435 0.0137233 -0.100881 

-0.018409 0.0433493 -0.285805 
-0.00524281 0.0185589 0.0165215 
-0.000345529 -0.0292942 0.00309267 

-0.00698163 0.0263017 0.0380117 
-0.0148166 0.0108186 0.0166132 
-0.000372092 0.000789755 0.00573947 

-0.0187382 0.0207147 -0.0191424 
-0.0194076 0.0132379 -0.0190952 
0.000418794 0.000108706 0.0160595 

-0.00334093 -0.00207853 0.135645 
0.0135271 -0.000245683 0.147561 
0.000783371 -8.26556e-05 0.0123241 

-0.0524522 0.0143681 -0.0799457 
-0.011582 -0.016235 0.0182308 
-0.0419411 -0.0184232 0.139519 

-0.0208711 -0.00737601 -0.0282341 
0.0203331 0.0136821 0.069195 
-0.00324139 0.00368088 -0.0252781 

-0.012525 0.0054737 0.435571 
-0.00250432 0.00736727 0.762802 
0.00010716 0.000198205 0.0353937 

-0.0124786 -0.00546481 -0.00814318 
-0.000184804 0.00116424 -0.000445114 
0.000247774 -0.000388418 0.0102254 

-0.0142298 0.0103446 0.020694 
-0.0117132 0.00408117 -0.00967961 
0.00070821 0.00427573 0.0365645 

-0.0770447 -0.0299625 -0.0305568 
0.00638914 0.00836212 0.0366258 
0.000590442 -0.00271502 0.0757018 

-0.012888 0.00430768 0.000301846 
-0.00306938 0.00209398 -0.00409944 
0.00364838 -0.00144486 0.0126027 

-0.0192653 0.0104507 0.00122179 
-0.0106141 0.00905669 -0.00921129 
-0.000958811 -0.000220314 0.0048291 

-0.0122939 -0.00133103 -0.00961066 
-0.000101499 -0.000376272 -0.0369052 
0.000759803 -0.000176621 0.0179963 

-0.0426394 -0.00289804 0.183245 
-0.0136419 -0.000334502 -0.162383 
-0.00187624 -0.00150906 0.171735 

-0.00685288 0.006526 0.0330352 
0.0057839 -0.00250363 -0.00561234 
-0.0105694 0.00116551 0.0409164 

-0.0134742 0.0295495 0.0614569 
-0.0404172 0.00244108 0.0110773 
-0.00652583 -0.00176784 0.0218858 

-0.0303681 0.0810725 -0.0635222 
-0.127932 -0.00810075 -0.0431056 
0.0110302 -0.00787482 0.11624 

-0.0160939 -0.0122028 -0.0266261 
0.0221373 0.012813 -0.00821853 
0.0575797 0.0459168 0.625468 

-0.0378278 -0.185822 0.552792 
0.147043 0.0752856 0.12035 
-0.0182079 0.0458377 0.288471 

-0.0132774 0.0075784 -0.0215181 
-0.00620682 0.00295405 0.0016381 
0.000335794 0.000478352 0.0126501 

-0.0148317 0.00973236 0.0211519 
-0.00241392 0.00972611 -0.0314319 
0.000241739 -0.00136177 -0.00444655 

-0.0235318 0.00447962 0.478829 
-0.0101033 0.00569311 0.0115903 
-0.00458886 0.00273926 -0.166564 

-0.0145442 -0.0284612 -0.392054 
0.0357724 0.023203 -0.0883799 
0.00915577 -0.0191869 0.327564 

-0.0160779 0.0124029 0.0241461 
-0.0209408 0.00769071 -0.0267749 
0.000133439 0.00111909 0.015396 

-0.0117208 -0.0332965 0.149748 
3.27756e-05 0.0526536 -0.0921974 
0.00297606 -0.314717 0.647815 

-0.00391007 4.61502e-05 0.00162758 
-0.00232832 -0.00582543 0.00540552 
0.000542741 -0.000541985 0.022934 

-0.00734738 -0.0279552 -0.0403067 
0.0187255 0.00993893 0.0386323 
-0.00341849 0.000271944 -0.00497778 

-0.13094 -0.0105563 -0.211828 
0.110145 0.277872 0.341899 
0.00289247 0.00284712 0.122005 

-0.00321897 -0.016134 -0.0726666 
0.00617167 -0.00520984 0.000832863 
0.0140908 0.00910396 0.155342 

-0.0122778 -0.00217922 -0.0150112 
-0.00617848 -0.00116872 -0.0156579 
0.000646911 -5.92842e-05 0.0235559 

-0.0361247 0.030854 0.270112 
-0.0155588 -0.0135508 -0.519273 
0.000259804 0.00521275 0.223853 

-0.0572699 0.0244877 -0.050171 
-0.0142189 0.0168066 -0.0960239 
-0.000225258 0.000259005 0.00706223 

-0.0255563 0.002731 -0.00420515 
-0.00267961 0.0194729 0.0362887 
0.0131864 -0.00836808 -0.0233612 

-0.00148211 0.00529311 -0.00458362 
0.0117958 -0.00879729 -0.00468039 
-0.00160807 -0.000706597 0.0180888 

-0.0890272 -0.0705027 -0.147017 
0.0344473 0.0896363 0.856258 
-0.00701616 0.0349012 0.360742 

-0.0157124 -0.00627682 -0.125923 
0.00026031 0.00143055 -1.8625 
-5.90234e-05 -4.20589e-05 0.0710044 

-0.0126985 0.00343737 0.00633732 
0.00269543 0.00847113 0.00306842 
0.000815143 -0.000664092 0.00817588 

-0.261597 -0.147277 -0.186945 
0.224625 0.182133 -0.195028 
0.0479575 0.00755827 -0.0259997 

-0.0136715 0.00684429 -0.00945608 
-0.00446358 0.00884768 -0.010272 
0.000874022 0.000118174 0.00880508 

-0.0139605 0.00505068 -0.00590915 
-0.00810184 -0.0143445 -0.00213799 
0.00537534 0.016739 0.0817889 

-0.00854604 -0.00498013 0.0953614 
0.00580313 -0.000385794 -5.6229e-05 
0.000167576 -0.00196686 0.0324012 

-0.00575 0.00164862 -0.0406693 
-0.0036978 -0.000685414 -0.0598067 
0.00033102 0.000107927 0.0187691 

-0.0126854 0.0132057 0.0313434 
-0.00292774 0.0111294 0.00684897 
0.00022055 0.000294873 0.00195471 

-0.192224 -0.0526085 -0.76701 
0.0251853 0.209368 -0.0803134 
-0.0285936 0.0136087 0.882614 

-0.0221075 -0.0223023 -0.0449332 
0.0326551 0.00362524 -0.0712787 
-0.000853393 -0.000488149 0.0326165 

-0.0489882 0.0484885 -0.418162 
-0.13088 0.0352037 0.162548 
0.000303405 0.000276665 0.0114691 

-0.0360417 0.0192459 0.0042573 
-0.000403895 -0.000642145 -0.00928225 
0.00504537 0.00073612 0.0712071 

-0.0642848 0.131009 -0.00898122 
0.045385 0.0167698 0.067921 
0.0206224 -0.00812044 0.135012 

-0.0208301 -0.0148594 -0.133666 
0.0165094 0.0141168 -0.0477315 
0.0123869 -0.0248157 0.0683334 

-0.0138114 -0.00466312 0.0279506 
0.00484421 0.00323544 0.00974897 
-0.00572071 -0.00188839 0.0866196 

-0.157344 -0.174983 0.547155 
0.0471539 0.104249 -0.398084 
0.0076616 -0.0102369 0.0927748 

-0.037786 -0.243586 -0.353976 
-0.0996067 0.152281 0.705572 
0.0135519 0.0165553 0.178728 

-0.0329104 0.00999318 -0.142858 
-0.0579815 0.0334508 -0.247119 
-0.0463684 -0.0100089 0.260565 

-0.32694 -4.81887 -2.84834 
-0.0481102 0.336207 -0.434617 
0.00971021 0.0222723 0.131094 

-0.0211677 0.0230337 -0.0500126 
-0.0320962 0.00170898 -0.140805 
0.00489201 -0.00042706 0.0499553 

-0.0268338 0.0239977 -0.0449802 
-0.0477766 0.0104441 -0.0438842 
0.00280822 0.000816049 0.0069383 

-0.0130341 -0.0469354 30.8552 
-0.00191393 0.0088281 -7.06009 
0.00110513 0.0186497 1.03452 

-0.0109824 0.00245038 0.00371424 
-0.0122734 -0.00115678 -0.00577325 
-0.000792482 0.00323317 0.00589638 

-0.0269356 -0.0250763 -0.0102687 
0.00355608 0.0148601 -0.0307077 
0.00026558 4.35392e-05 -0.0112511 

-0.177946 -0.00442697 10.3778 
0.0325719 0.279562 8.15263 
0.000561373 -0.00214116 0.30073 

-0.0185135 0.00447209 -0.0131017 
-0.0054948 0.006473 -0.0413502 
0.000755916 0.000534583 0.0311908 

-0.0145331 0.00879279 0.11673 
-0.00066269 0.00468013 0.116683 
-0.000782134 -0.00276055 0.0932258 

-0.0200692 0.0443285 -0.124071 
0.00677031 0.0120102 0.0421393 
-0.000258163 -0.182596 0.111846 

-0.0133484 0.001196 -0.00270977 
-0.00381979 0.00315857 -0.015652 
-0.000784413 0.000660638 -0.000501759 

-0.132785 -0.238384 0.322646 
0.314822 0.160686 0.426519 
0.00752821 0.0305809 0.11386 

0.0459257 -0.204074 -0.0431374 
0.254069 0.00266628 0.056141 
0.00339792 5.41671e-06 -0.0262111 

-0.0209205 -0.00872089 0.0570367 
0.00194262 0.00201705 -0.032826 
0.000750926 -0.00141401 0.0230676 

-0.0143075 0.00260234 -0.261993 
0.00383554 0.00118366 -0.473172 
0.000443436 0.000319866 0.036236 

-0.0108933 0.000810416 -0.105593 
-0.00905107 -0.00623451 -0.0215262 
-0.020015 -0.00637518 -0.00408835 

-0.0108981 -0.00350074 0.0411413 
-0.00158402 0.00604051 -0.111078 
-0.000195007 0.000261087 0.000795719 

-0.0111654 0.00131879 0.0495081 
0.0270935 0.020494 0.0469425 
-0.0114293 -0.0469942 0.174383 

-0.014005 0.0056061 0.036466 
-0.00111671 0.00545355 0.0469825 
0.000673494 0.000123191 0.0198118 

-0.00238361 -0.0249263 -0.0609636 
0.00925713 0.00165095 -0.00560362 
-0.00115261 0.00145729 -0.00759639 

-0.214622 0.129777 -0.00197839 
0.056421 0.0820689 -0.388257 
0.000514756 -0.0299395 0.191577 

-0.0188663 0.0110466 -0.0107567 
-0.00824023 0.00693849 0.0583884 
0.000355767 0.00475966 -0.0450302 

-0.0179606 0.00268734 0.0240768 
0.0179534 -0.00666887 -0.0279849 
-0.00121452 0.00311167 0.0560208 

-0.0114642 -0.01166 -0.0164792 
0.00436548 -0.00269131 -0.0119338 
-0.000543768 0.000142491 0.0228444 

-0.0199434 0.00705104 -0.24369 
0.00269453 0.00225303 0.563272 
0.000751597 -0.00324498 -0.0568285 

-0.0215136 0.00691463 -1.24927 
-0.00351135 0.00565246 -0.382102 
2.35272e-05 6.71768e-07 0.335719 

-0.00369228 0.0124885 0.0236668 
-0.0047389 -0.00708304 -0.013808 
-0.000231923 0.000251145 0.0226982 

-0.00883475 0.0867396 0.0527889 
-0.0131275 0.0790601 -0.212075 
0.0373389 0.0344382 0.23727 

-0.0108035 0.0187455 0.0035987 
-0.000597737 0.00974339 -0.00653304 
0.00176896 -0.000637285 0.00928143 

-0.0160112 0.00783554 0.119052 
-0.00616299 0.00828909 0.168679 
-0.00289431 -0.00150569 -0.0358982 

-0.0116121 -0.00735486 0.0194351 
-0.00292141 0.00799873 -0.00625217 
0.00386046 0.0181708 -0.0430311 

-0.0098576 0.0206155 -0.0086305 
-0.00567313 0.00305583 0.00847742 
-0.00332179 -0.000992949 0.00796435 

-0.0135909 0.00714157 -0.0131814 
-0.0194254 0.00126307 -0.0104465 
0.0328252 0.0229276 0.0787365 

-0.00719717 -0.00374532 -0.0133478 
0.00595646 0.0034293 0.0301857 
0.000765044 0.00031105 0.00831347 

-0.0357278 -0.0514346 -0.00904741 
0.025264 -0.00688241 -0.0241523 
-0.00215675 0.0138014 0.0249584 

-0.000307107 -0.0111809 -0.00134968 
0.00421299 -0.00550178 -0.000678714 
0.000894785 -0.00104617 0.0108691 

-0.00965725 -0.00700165 -0.0518813 
0.0242152 0.00589158 0.040865 
0.0107974 0.0028035 -0.00494834 

-0.0614861 -0.0409826 -0.0642725 
0.033554 0.0290121 -0.075077 
0.0698058 -0.0482932 0.277875 

-0.0144476 -0.00425766 0.00942134 
-0.00187564 0.00483574 0.150021 
-2.76341e-05 0.000392771 0.0636715 

-0.00870342 0.00418232 -0.157819 
0.00370187 -0.00457262 0.128222 
0.000516163 -0.000880011 0.0192331 

-0.041137 0.00297359 0.139048 
-0.0278376 0.0290265 0.0101363 
0.00233608 -0.0397801 0.365554 

-0.0169687 0.00586316 -0.0235523 
-0.00248468 0.00681048 0.0245832 
-8.44048e-05 -0.000745293 0.0225596 

-0.00913127 -0.00199199 0.0718226 
0.00941185 0.0198052 -0.0130394 
0.0279612 -0.0149203 0.0802816 

-0.0114382 -0.00104029 0.00111103 
0.00548465 0.00413585 -0.0045467 
-0.000554045 -0.000675641 0.00461722 

-0.0086886 -0.0535616 -0.0604848 
0.0200551 -0.0216285 0.146221 
0.00150663 0.00166024 0.0824889 

-0.159987 -0.0350677 -0.38071 
0.262245 0.0994276 0.30394 
0.0040175 0.0205709 0.0940439 

-0.00410102 -0.0251499 -0.189443 
0.0191877 0.007468 -0.0230404 
0.01163 -0.00761961 -0.0867139 

-0.91105 0.613554 -0.835404 
-0.516023 0.552826 -0.666154 
-0.0189408 -0.0131836 0.0313847 

-0.0172247 -0.000619881 -0.0680364 
0.00588377 0.00340709 -0.0164485 
0.00138095 -0.000913379 0.0404177 

-0.0103073 0.00869478 -0.0182359 
0.00775876 0.000921711 -0.0278067 
0.000826168 -0.0170791 0.105705 

-0.0219352 0.0192782 0.368193 
-0.0384667 -0.0264333 0.215353 
-0.0371099 0.0119006 0.0499918 

-0.00546164 0.00424415 -0.0416795 
-0.00043924 0.00166606 0.0207828 
0.000166661 0.000404016 0.000599131 

-0.00373226 0.0275997 0.0453913 
0.0362573 -0.00121242 0.00238666 
0.00457724 -0.00561568 -0.00613204 

-0.00324326 -0.0398157 0.0171325 
0.0534932 -0.00137996 -0.0168898 
-0.000969885 0.00177597 -0.00312382 

-0.0150965 0.00611234 0.000159527 
-0.00193688 -0.00578675 -0.00382037 
-0.000624978 0.00431512 0.052162 

-0.0192498 0.00113744 0.0526886 
0.00279327 0.00662217 0.00683415 
-0.0333203 0.0350537 0.0872646 

-0.0164494 -0.0195421 0.00868598 
0.0135745 0.00434631 -0.0227404 
0.000661912 -0.00074142 0.0149379 

-0.00649513 -0.00964318 0.00336983 
0.00566282 0.00155373 -0.0162183 
0.000821163 0.000649298 0.0165404 

-0.00988347 -0.000579759 -0.00854824 
-0.00146233 0.00466083 0.00471681 
-0.00680037 -0.00232215 -0.00417099 

0.06656 -0.196625 -0.731642 
0.190018 0.0307264 -1.03379 
0.00406995 -0.0110624 -0.145179 

-0.138776 -0.0333153 0.111836 
-0.0632789 0.0478242 -0.327014 
-0.0782022 -0.0185153 0.728504 

-0.0250816 0.00352585 0.307728 
-0.0251221 -0.00105665 -0.0202348 
-0.0229298 -0.00474055 -0.200066 

-0.00878656 -0.00290906 -0.0196058 
-0.00636007 -0.00109036 0.0179656 
-3.8044e-05 4.88467e-05 0.0117044 

-0.0243311 0.00807115 0.0297864 
-0.0109765 0.00563591 -0.0014256 
0.00527853 0.0378224 0.0744241 

-0.0113686 0.000662629 -0.0296714 
0.000408509 0.00469988 0.00104858 
-0.00018143 0.000102641 0.0297308 

-0.0282286 -0.00038888 0.0181495 
0.010223 0.00536622 0.0343168 
0.00054071 0.0013632 0.0241256 

-0.0155882 -0.0122144 -0.0540371 
0.00691283 0.00371111 0.656419 
-0.00051386 0.00122871 0.00996877 

-0.0231359 -0.00555006 0.0269456 
-0.007439 0.0123061 0.0853785 
0.0163861 -0.0108833 0.0244685 

-0.0110273 -0.00237427 0.0410001 
0.0073849 0.0022606 -0.0181422 
-0.00115604 -0.000611335 0.0211758 

-0.115581 0.0312049 0.89578 
0.0314236 0.0472354 2.45806 
0.00808506 -0.00252712 -0.423329 

-0.0153411 -0.0145083 -0.133852 
0.0451902 0.00905877 -1.33897 
-0.000661003 -0.000893245 0.387026 

-0.014503 0.00130207 0.0672386 
-0.00477747 0.00361749 0.0781632 
-0.00060935 -0.000520049 0.0299944 

-0.0408488 0.0271062 -0.0748839 
-0.0369553 0.187564 0.650167 
-0.000482268 0.000879616 -0.100702 

-0.805054 0.534274 2.25923 
-0.24176 0.506401 0.252268 
0.0134747 -0.0265774 0.531566 

-0.0896081 0.0139125 1.71082 
-0.0133822 0.0552063 2.18946 
0.00913139 0.0104462 1.48043 

-0.113097 0.00723587 0.323563 
-0.00356813 -0.0223968 -0.454624 
-0.0179737 0.0606521 0.174724 

-0.0183352 -0.0367763 0.152637 
0.0225667 0.0206594 0.0772617 
-0.000530302 -0.00119438 0.0520885 

-0.0399076 0.00807629 -0.566969 
0.0164657 0.203478 -2.47691 
-9.96621e-05 0.00678956 0.0268105 

-0.00466911 0.00205628 -0.00331925 
-0.00940816 0.00551046 0.0369237 
-0.00155828 -0.000821531 0.00396734 

-0.0383206 0.078131 -0.00347053 
-0.0753182 0.0150209 -0.0577272 
0.00110005 0.0166534 0.0290606 

-0.0190052 -0.0086895 -0.0496198 
0.00528775 0.00370048 0.00585666 
-0.000630273 -0.00162555 0.0140222 

-0.00703431 0.0122373 0.000543808 
-0.00452776 0.00202586 0.00271849 
0.000124878 -0.000800418 0.0151093 

-0.0113144 0.00653547 0.0362739 
0.00211206 0.00616133 -0.0111643 
3.04943e-05 -0.000675077 0.00592788 

-0.0706009 -0.0209024 0.171109 
0.0215028 0.0654272 -0.501333 
0.000445795 -0.00185966 0.0707665 

-0.0153621 0.000149045 -0.0179342 
-0.00759161 0.00534639 0.00536805 
-0.000204024 -0.00210561 -0.000263715 

-0.00475838 -0.000660778 -0.00395518 
0.00420134 0.000205114 -0.00651836 
-0.000267563 -0.000435098 0.00659341 

-0.0216029 -0.00541309 0.19696 
-0.0287226 0.0109055 -0.0312427 
-0.00647562 0.0227091 -0.0624602 

-0.0139073 0.0139645 0.238765 
-0.0212859 0.0205683 0.0535728 
-0.0039912 -0.0109205 0.0652849 

0.000303572 -0.0391577 0.0698238 
-0.0581162 -0.0413979 -0.102149 
-0.00854761 -0.0325005 0.60226 

-0.000462856 0.00477733 0.00154979 
-0.00333148 -0.0024242 0.0143616 
0.000662941 0.000443901 -0.00157553 

-0.089033 -0.0758843 -0.651641 
0.104823 0.124594 1.66157 
0.0460677 -0.0153573 0.0910122 

-0.00984268 0.00284558 -0.0075631 
-0.0129987 0.000646954 -0.00380515 
0.000423952 -3.84436e-05 0.0133721 

-0.012814 0.00882995 -0.022013 
-0.00952645 0.00173767 0.0154734 
-0.000322915 -0.000149663 0.0255891 

-0.0153798 0.00103366 0.022741 
-0.000896664 -0.0112157 0.0133019 
0.00373848 0.00072641 0.0537986 

-0.0125499 -0.00224045 0.033406 
-1.06007e-05 0.0103476 0.00680383 
-0.00348101 0.00359295 0.00169098 

-0.110807 0.0217622 -0.233598 
-0.0572327 0.0378299 -0.199784 
-0.0102382 -0.045486 0.312806 

-0.010752 0.00283623 0.0576141 
-0.00138428 0.000368386 -0.0157254 
0.00139243 0.00114742 0.0349992 

-0.0121476 -0.00167228 -0.0685616 
0.00366832 0.00183935 0.167332 
-0.000795277 -0.0005465 0.0389758 

-0.0146459 -0.0226612 -0.00623078 
0.013777 0.00458235 -0.00936524 
-0.000200389 -0.000191571 0.0188133 

-0.0115979 -0.005395 0.00388649 
0.00437747 0.00388401 0.00487813 
0.00104097 -0.000354931 0.00575304 

-0.0246294 -3.37253e-05 0.0683195 
-0.00496235 0.00723778 0.00374013 
0.00129922 -0.00207134 0.0379105 

-0.0171993 -0.454681 -0.326035 
0.324563 0.165484 0.263238 
0.103985 0.0457339 0.83266 

-0.0146822 -0.0102292 -0.122034 
-0.00119299 0.0179069 0.0175124 
0.0144374 0.017639 -0.409422 

-0.230101 -0.0463432 0.194764 
-0.0396016 0.0463856 0.0394554 
0.0255407 0.0973353 0.873019 

0.0416146 -0.318906 -0.159919 
0.318787 0.0458025 -0.00416348 
-0.0117142 -0.0114951 -0.000769308 

-0.0140624 -0.00100571 0.0175711 
0.004922 0.00311646 -0.00574674 
0.00190941 -0.000527739 0.0203184 

0.00327047 0.000727223 -0.0353345 
0.000939695 -0.00703414 0.00245811 
-0.000446077 0.00179955 0.000965129 

-0.0636452 -0.0657829 -0.685109 
0.0541635 0.0587841 0.59899 
0.0181438 0.0261091 -0.12988 

-0.14319 -0.150801 -0.0529324 
0.117109 -0.00621021 0.290428 
0.0714889 -0.0290659 0.194482 

-0.0173153 0.0210887 0.0108897 
-0.0224117 0.00452294 0.000581103 
0.000778236 0.00137645 0.0190245 

-0.0283973 0.0767003 0.00835557 
-0.0320608 -0.000443181 -0.0257451 
0.0730065 0.0305897 0.133053 

-0.0376652 0.0141403 -0.0465046 