# vtk DataFile Version 3.0
Output file generated by Yade's KinematicLocalisationAnalyser
ASCII
DATASET UNSTRUCTURED_GRID

POINTS 13483 float
602.49 38.9424 -0.428854
729.981 75.7141 -0.559676
119.134 6.07799 -0.438295
753.663 4.41874 0.546719
500.211 7.68319 -0.306384
314.797 36.6108 0.454782
155.523 6.98056 0.440536
566.611 10.3706 0.147507
496.445 25.7555 0.137844
692.559 14.3106 0.574428
210.158 8.98626 -0.113513
256.894 6.37552 -0.253305
636.767 40.1798 -0.144871
623.97 14.1186 -0.166134
136.298 17.8046 0.560237
220.89 35.3413 0.188296
217.505 12.9759 -0.293984
289.242 9.64721 0.391959
341.585 33.6446 0.444083
524.394 8.61592 0.341911
412.273 38.3017 -0.125735
586.59 51.2557 -0.277743
750.525 50.1721 -0.471049
683.405 62.9837 0.464404
460.049 16.7196 0.311439
241.151 44.6778 0.130029
491.961 29.9975 -0.463902
580.028 23.6842 0.217964
44.5423 16.0458 0.46857
688.717 34.4355 -0.468984
483.765 4.69474 0.398688
16.3918 23.8036 -0.287492
741.141 67.1077 0.26626
496.091 2.5575 0.470666
77.8553 45.0474 -0.104256
521.958 31.4083 0.316226
530.606 16.6554 -0.444482
344.183 22.3329 0.190231
533.876 27.7898 -0.303368
351.553 34.4007 0.526088
240.908 14.592 -0.365804
435.378 37.8932 0.0719962
658.343 16.6333 -0.141324
192.328 6.23732 0.371056
54.8871 7.1407 -0.104746
67.9547 8.82718 -0.265262
665.488 9.13864 -0.655063
23.1335 11.4333 0.307819
607.898 57.7139 0.269575
659.363 37.2939 0.357494
171.817 32.8456 -0.312798
720.161 65.0763 -0.121181
34.8656 28.7554 -0.107512
534.652 3.05075 0.323712
141.545 7.39751 -0.491863
592.573 41.3847 0.359359
503.704 30.351 0.124043
174.163 0.953409 -0.275086
32.6264 2.39207 0.308972
349.627 17.9465 0.272251
619.427 62.354 -0.135645
464.867 33.0524 0.193373
401.139 1.03355 0.199956
675.257 8.0663 0.403246
26.4693 43.5698 0.237095
256.934 30.7683 -0.314962
693.389 8.68767 0.284014
653.383 62.7903 0.345579
419.541 8.72732 -0.4915
566.483 3.43198 -0.418026
710.58 54.4381 0.368778
130.166 7.69205 -0.274765
499.184 28.2577 -0.132872
479.953 14.835 -0.119422
295.391 16.5634 -0.375879
20.5619 13.6139 -0.298591
739.108 55.7683 0.328855
333.79 39.0202 -0.31281
657.918 33.8218 0.378609
665.883 16.7701 -0.21206
745.52 20.2839 -0.310916
467.274 36.1069 0.185318
92.2641 38.7998 -0.279893
669.778 58.6732 0.229179
632.045 53.792 -0.116861
754.482 54.0925 -0.0978797
746.004 0.729961 -0.601253
291.959 29.7211 0.435717
613.271 6.67211 -0.130698
24.144 5.1842 0.547111
133.342 39.3796 -0.148848
514.316 15.0327 0.213864
735.546 43.3924 -0.506463
195.597 28.7827 0.266832
44.6603 35.6424 -0.275278
494.964 1.25973 0.144826
236.242 8.72278 -0.426443
704.258 74.5254 -0.241526
728.085 50.2631 0.217789
363.025 20.6383 -0.273729
163.662 27.3897 -0.442608
548.256 45.7202 -0.454405
382.81 15.499 -0.405658
416.194 30.8358 -0.0984981
380.672 4.59542 0.403206
548.125 13.2665 0.118221
757.859 12.0173 0.184426
80.1337 39.7846 -0.410622
337.281 5.00574 -0.208032
560.671 10.122 -0.404269
362.65 45.2476 0.445906
25.0214 25.4633 -0.446942
30.2954 5.65869 0.35365
566.882 36.7638 0.423274
506.473 24.4581 -0.144379
26.0882 37.4459 0.419179
93.21 31.2856 0.215371
327.301 16.3004 -0.242933
595.817 20.5971 -0.168405
479.325 39.6241 0.169242
708.476 7.12378 -0.468035
700.555 6.73532 -0.292716
390.162 36.9356 0.0959669
628.04 28.6087 0.139943
239.491 16.9727 0.557233
332.668 3.89737 0.455368
103.774 31.7387 -0.355372
116.49 24.7434 0.287382
543.463 46.0119 0.0682407
308.12 18.7247 0.528673
682.637 39.0955 0.117949
657.085 63.89 -0.0618585
484.655 21.3917 -0.38175
725.263 27.8652 0.374434
431.954 25.4266 0.224483
279.43 24.2386 0.291902
661.408 50.4834 0.286619
281.041 29.412 0.363923
575.159 14.6645 0.233134
334.861 35.7042 0.199398
508.371 12.1323 0.527473
369.802 32.3357 0.0871815
435.145 17.0019 -0.101723
321.184 43.1823 0.434907
191.709 30.1772 0.116597
732.468 72.1075 0.141967
754.686 13.9171 -0.295122
6.04885 12.4436 0.417616
438.94 23.0187 -0.436317
38.0238 22.9539 0.0832287
380.355 31.2676 -0.467857
400.869 25.1187 -0.249948
74.6679 11.8381 -0.501029
51.4255 35.7929 0.544985
227.743 13.5933 0.407473
610.706 36.3568 -0.529237
577.338 25.626 -0.448527
74.5501 21.0582 -0.484652
686.058 61.3902 0.458765
732.923 3.95825 -0.517454
647.91 56.5208 0.438613
670.278 2.29883 0.419226
552.316 31.4931 0.381479
588.118 51.7011 0.440223
517.789 18.6088 -0.501814
751.193 3.77586 0.412061
226.042 26.0498 -0.105512
128.875 36.3827 0.188424
249.786 6.79896 0.405518
94.5925 4.54258 -0.249606
64.2608 10.0927 0.238701
279.226 36.9205 -0.353781
17.3155 25.9664 -0.354547
559.554 21.8432 -0.410823
609.235 52.8079 -0.203365
469.539 21.4163 -0.389707
758.656 74.3384 0.35394
412.691 8.67818 -0.136723
441.861 37.6875 -0.362396
542.977 3.35954 -0.202483
23.0477 24.4429 0.409321
578.104 4.59819 0.452934
551.683 5.67609 0.442682
208.36 11.4341 0.475509
431.245 16.2619 -0.275006
315.566 6.42485 0.344382
394.075 18.8976 -0.351241
700.4 63.5775 0.109405
194.415 25.5032 -0.419187
737.525 14.3524 -0.546584
703.807 61.7328 -0.326769
389.28 10.4411 -0.155595
691.768 2.35424 -0.518181
601.011 29.6892 -0.453317
714.626 18.2401 -0.427433
437.634 44.7074 -0.280264
502.931 12.8234 0.429325
472.32 45.8288 0.224319
452.608 9.06375 -0.175426
651.691 56.2592 -0.263398
650.555 52.244 -0.303634
194.131 39.2999 0.353686
743.457 20.8233 -0.144164
590.218 52.7225 -0.242578
11.6144 17.1489 0.284225
414.833 25.7309 0.340358
189.385 23.2982 -0.40898
93.9406 39.7559 -0.207951
732.793 42.3881 -0.466811
644.824 62.6497 -0.313961
323.529 25.8325 0.365104
540.315 10.2468 0.294392
82.9328 44.733 -0.179556
250.87 26.0631 -0.472453
559.906 27.5949 0.353339
494.299 18.9647 -0.475607
266.331 0.88921 -0.346626
557.834 47.2356 0.364013
536.623 47.6535 -0.476138
490.818 36.0981 0.395555
506.914 1.71101 -0.66981
678.789 20.0365 0.375594
181.287 12.208 -0.192971
510.57 41.7406 0.446485
568.095 44.3504 0.116099
73.434 0.955029 0.271107
255.116 4.80911 0.177225
755.099 17.4646 0.1841
746.192 22.2067 -0.454116
760.094 16.9486 -0.662367
308.024 8.62467 -0.230128
710.946 31.2145 -0.385697
413.73 43.8108 -0.370224
456.884 0.822606 -0.399846
637.733 52.3382 -0.535365
26.6963 30.9816 0.303366
335.864 41.6733 0.59751
255.973 2.94399 0.351015
744.343 64.1337 0.200209
689.709 55.4699 0.28208
291.744 11.0123 0.248505
655.518 46.2804 -0.0886844
561.271 2.73703 0.281981
548.836 7.3263 0.545984
97.4854 18.7264 0.490448
307.983 1.04008 -0.227794
348.657 2.25358 -0.368246
13.8833 7.6824 0.454574
4.16351 32.5122 0.245636
163.397 19.124 0.413656
68.7848 42.7976 0.221167
66.267 30.0868 0.329098
431.194 14.4142 -0.456714
373.15 35.5593 -0.479092
718.318 68.761 -0.109821
19.4639 3.96325 -0.275445
71.0479 6.8935 0.137247
619.237 41.1609 -0.157272
299.267 0.916849 0.373788
371.211 16.0135 -0.131087
238.946 4.72088 -0.363862
639.245 30.2139 0.190191
459.709 8.73511 0.430415
719.082 22.4093 -0.384794
628.074 32.9664 -0.317776
656.731 31.8152 -0.0873937
427.317 27.5974 0.479909
103.311 45.5292 -0.312645
547.014 49.5851 0.0687408
712.784 12.9901 0.289769
240.971 30.8266 0.239947
31.8938 17.5769 0.195204
342.077 13.8877 0.509665
109.06 41.1408 -0.471385
272.064 42.7477 -0.214056
433.588 1.6605 -0.33884
736.39 46.6532 0.363149
663.174 0.750648 -0.528853
337.791 3.45712 0.566169
305.27 27.9463 0.154352
470.976 42.865 0.227172
82.1868 8.26747 -0.461161
200.537 45.5038 -0.38267
729.084 54.7483 0.340968
505.325 43.5363 0.0795896
202.804 41.303 -0.275413
163.06 43.1702 0.388298
760.601 46.6909 0.474566
756.223 12.6321 -0.538481
605.412 3.27806 -0.679368
192.797 24.6905 0.089624
554.063 32.4566 0.107202
556.645 32.4736 0.270383
417.252 5.72572 -0.1356
490.051 0.959087 0.413454
718.582 73.7901 -0.504527
85.5006 31.1345 0.211588
644.346 28.5141 -0.509608
278.981 15.4676 -0.366179
9.33438 2.41047 -0.320203
127.51 38.1419 0.183231
66.4233 23.6708 0.438258
677.754 48.9044 0.288988
748.181 71.5371 -0.253642
187.931 28.7767 0.181339
754.832 19.5463 -0.302092
45.7331 37.8328 0.241674
91.9724 29.6429 0.164826
632.868 13.0711 0.36055
422.15 17.5028 -0.550522
527.554 16.9396 0.105826
241.415 28.877 -0.178357
620.361 4.31561 -0.405264
759.885 12.2722 0.450284
30.0047 32.0705 -0.262235
274.702 7.6953 0.197229
225.427 15.3649 0.263484
1.05317 37.2248 0.152914
228.757 14.6639 -0.366761
215.017 11.097 0.119376
217.555 26.474 -0.289336
134.308 29.5829 -0.126826
553.654 18.2552 -0.375767
169.054 14.3945 0.322198
738.506 66.6198 0.240537
176.181 3.87253 0.502556
47.3988 40.5384 -0.354264
694.348 71.2369 -0.426254
285.999 32.5631 -0.403213
665.934 36.2608 0.465874
740.972 48.9607 -0.476
306.052 9.23893 -0.102953
705.913 41.9858 0.362063
334.728 2.51833 -0.421932
424.55 23.9306 0.375781
663.257 31.0125 0.560471
106.51 11.9669 0.437234
492.026 3.88147 -0.542279
719.206 24.3102 0.228509
89.0796 7.73144 0.237173
286.814 14.7095 0.220724
432.119 11.7755 -0.223814
749.897 4.96104 0.619795
406.115 1.99704 -0.530499
179.256 39.4858 0.332881
715.73 11.0596 -0.335117
130.767 37.3769 0.182684
268.238 31.6117 -0.372343
408.988 22.2954 0.209971
577.53 16.7945 0.445424
395.09 9.90933 -0.515969
466.108 27.7824 -0.450514
730.2 74.708 0.470062
47.9455 11.6824 -0.152175
304.562 39.376 -0.284927
387.446 26.1895 -0.411091
418.314 20.9598 -0.260144
524.349 48.0912 0.359336
712.038 74.8414 0.228072
656.733 53.3397 0.358211
229.045 35.7302 -0.38353
12.7189 33.0016 0.153313
648.545 52.2024 -0.119602
520.757 48.4123 -0.430471
233.239 40.3109 0.109966
667.953 51.4543 -0.109193
152.737 9.37114 0.238405
373.972 21.0554 0.283859
472.865 43.714 -0.102445
422.274 19.3603 -0.195439
728.492 79.1621 0.290886
435.026 3.89727 0.528706
50.0218 26.2957 -0.303725
479.867 33.2139 0.338898
444.052 42.6645 0.375724
740.371 60.3 -0.22603
703.858 36.8399 -0.307938
548.619 22.6461 -0.171691
731.048 64.7561 -0.436776
298.848 2.1943 -0.470874
386.312 28.7844 0.443368
29.2657 39.1883 0.305897
707.814 46.9946 0.161558
608.646 21.0726 -0.519233
471.978 0.774965 -0.475497
127.474 4.63358 -0.27261
435.564 42.2549 -0.11314
11.7231 0.922131 0.314592
749.447 6.95557 0.124082
377.498 39.3894 -0.400393
[...]
POINT_DATA 13483
TENSORS Strain_matrix float
-1.19554 0.553049 9.476 
-0.301838 0.472283 1.07495 
4.13046e-18 2.04509e-18 1 

-0.395546 -0.153272 36.3887 
-0.119665 0.764779 -44.7429 
1.06679e-18 -1.25807e-17 1 

-0.166959 -0.00178212 0.47277 
0.0463314 0.0223753 -1.82926 
-9.17777e-18 -4.73334e-18 1 

-0.972344 0.217307 0.307528 
-0.0262436 0.114814 0.38202 
-1.01415e-17 1.17668e-17 1 

-0.361302 -0.150158 -0.000785041 
0.100084 0.0742699 -0.150509 
2.07779e-17 8.0803e-18 1 

-0.148864 0.00225823 2.739 
-0.0410947 0.0225545 -1.15215 
7.78887e-19 -1.95115e-17 1 

-0.110354 -0.0351053 -0.183822 
-0.00649793 -0.0789205 -0.121756 
1.03103e-17 2.05291e-17 1 

-0.30676 -0.139573 0.00839483 
0.282062 0.105257 -0.0614441 
1.75065e-17 -1.10725e-17 1 

-0.447389 0.0702623 1.17414 
0.181349 0.218773 -0.0259625 
9.85906e-19 -7.3943e-18 1 

-0.348223 -0.0466206 1.14938 
0.0879538 -0.0498579 0.256285 
-3.29183e-18 -1.65182e-18 1 

-0.0628207 0.00322243 -0.00812986 
-0.00844774 -0.0663331 0.0159064 
-3.21778e-18 -5.25006e-18 1 

-0.108394 -0.0522223 0.199372 
-0.0691586 -0.08581 0.0732579 
5.05874e-18 -1.18719e-17 1 

-0.948217 0.279188 3.08435 
0.50654 0.653675 -0.482267 
1.34341e-18 1.48943e-17 1 

-0.317191 -0.00732392 0.0492941 
0.0614222 -0.0172988 0.0729732 
-8.21979e-18 3.66154e-18 1 

-0.159268 -0.00153142 1.387 
0.000102625 -0.0069265 2.99462 
7.06058e-19 -6.2747e-18 1 

-0.12281 -0.0746056 0.541232 
0.110547 0.0257106 -0.341663 
-2.36155e-18 7.05405e-18 1 

-0.0920748 -0.0245038 -0.0433754 
-0.0159536 -0.102055 -0.0138753 
-9.75937e-18 2.27845e-18 1 

-0.180471 -0.0116308 0.0320981 
0.0210414 -0.0701615 -0.00111729 
5.92425e-18 1.15547e-17 1 

-0.211408 -0.222257 0.0312739 
-0.00823791 -0.0538012 -0.0873098 
5.90756e-18 5.9953e-19 1 

-0.126918 0.0443388 0.16261 
-0.123774 -0.0431313 0.565752 
2.92737e-18 -6.96633e-18 1 

-0.182965 -0.0249496 0.352985 
0.00127748 0.0417378 -0.787559 
2.10511e-18 6.51317e-18 1 

-0.22024 -0.0719072 -2.34375 
0.0832102 0.348925 -2.3442 
-7.50497e-18 -4.5926e-18 1 

-0.940223 -0.352975 0.625937 
-0.404756 0.281307 1.34593 
-5.83009e-18 8.7248e-19 1 

0.184765 0.774707 -22.7157 
-1.05197 0.691583 -0.310226 
-5.44665e-18 5.20381e-20 1 

-0.114251 -0.013828 -0.00534221 
-0.0200425 0.00293169 0.133781 
1.96106e-17 -2.88392e-19 1 

-0.210154 0.14469 -0.026588 
-0.11682 0.0725073 -0.0187436 
6.64289e-18 9.53111e-18 1 

-0.189679 0.0937601 0.492895 
0.0354861 0.163369 0.949353 
-6.92047e-19 1.08724e-17 1 

-0.188172 0.381258 0.328194 
0.122646 0.00183413 -0.656418 
-1.54943e-17 1.75821e-18 1 

-0.0668508 0.00911176 0.0507346 
0.067208 -0.087869 0.956455 
2.74184e-19 6.16913e-18 1 

-0.151223 -0.359219 -0.114154 
0.0698122 -0.03122 -1.1637 
-1.32897e-17 -7.02555e-19 1 

-0.12693 0.0118079 -0.186993 
-0.0306696 -0.158903 0.184582 
-1.36579e-17 6.66944e-18 1 

-0.232806 0.191878 -0.757161 
0.0684245 0.078295 -0.275202 
1.25446e-17 -9.45567e-18 1 

-0.218865 0.268023 -1.65039 
-0.287262 0.0826215 1.29106 
-3.39522e-18 4.93697e-18 1 

-0.201283 0.0226008 0.0589512 
-0.0502281 0.0349627 -0.0741359 
4.10197e-18 -3.7159e-17 1 

-0.105827 0.0558802 0.113509 
-0.111025 -0.106374 0.443988 
3.08105e-18 -2.12486e-19 1 

-0.101689 -0.136553 -2.1096 
0.00698519 0.0139831 -1.97725 
-2.70864e-18 -6.50966e-18 1 

-0.15072 0.000223179 -0.519322 
-0.00938852 0.0258656 -1.55877 
-5.37703e-18 8.83223e-18 1 

-0.100911 0.167842 0.754862 
-0.0314974 -0.0444972 -0.0379482 
-1.05046e-17 -1.35348e-17 1 

-0.110658 0.0872248 0.117769 
0.247069 0.0832396 -0.175358 
-1.48229e-18 -4.44686e-18 1 

-0.147209 -0.0267525 -0.293162 
-0.00497207 0.0185148 2.4721 
-4.45105e-18 -6.78659e-18 1 

-0.135205 -0.0133819 -0.161419 
-0.0587306 -0.0719263 -0.240014 
3.43642e-18 -7.02904e-18 1 

-0.0675402 0.0495801 0.165203 
-0.0993538 -0.0217226 0.162747 
4.48753e-18 8.07185e-18 1 

-0.893667 -0.0804803 -0.351016 
-0.603807 0.254464 -0.378635 
-6.10442e-19 1.52e-17 1 

-0.0841758 -0.0121502 0.305337 
-0.00787128 -0.0776319 0.0606901 
8.91619e-18 7.04675e-18 1 

-0.0964141 0.0825163 -0.0687425 
-0.0733146 -0.0627906 0.167536 
6.76177e-18 9.52626e-18 1 

-0.0837658 -0.0115133 -0.0543321 
-0.0296079 -0.0418753 -0.165862 
9.30165e-19 1.5649e-17 1 

-0.805777 0.326988 2.27811 
-0.319163 0.364977 -0.195915 
-1.19593e-17 -2.81122e-17 1 

-0.0806962 0.0322197 0.0369999 
-0.095901 -0.153132 0.00958238 
-1.23844e-17 -5.40072e-18 1 

-0.0415181 -0.311278 -0.149293 
0.301229 0.0595486 -0.192733 
2.47096e-18 -2.01579e-18 1 

-0.144015 -0.13739 -0.274275 
0.000960775 -0.00775151 -0.287675 
-2.28608e-20 8.30024e-18 1 

-0.0459059 -0.173621 0.575284 
-0.0510805 -0.03543 -0.171811 
-1.10755e-17 1.41993e-17 1 

-1.81253 -2.96043 0.754459 
0.243375 0.556011 0.305172 
8.76419e-19 3.18698e-19 1 

-0.0702596 0.087073 0.277588 
-0.0162067 -0.00890673 0.0326203 
-3.4651e-18 5.89465e-18 1 

-0.161696 0.0636795 0.11672 
-0.0213917 -0.0344036 -0.109573 
3.98166e-18 -9.39672e-18 1 

-0.129559 0.025947 0.372661 
-0.00709733 -0.0581737 0.272636 
-1.74962e-17 -9.64075e-18 1 

-0.371275 0.0344479 -5.98175 
0.303983 0.158053 0.182814 
8.70192e-18 2.54037e-20 1 

-0.721303 -0.0997961 -0.220831 
0.153939 0.522712 -0.699138 
1.07008e-17 -5.30265e-19 1 

-0.100155 -0.0112657 -0.245721 
-5.32583e-05 -0.0676303 0.0435786 
1.09574e-17 3.64681e-17 1 

-0.0486318 0.0137284 0.00010675 
-0.000658815 -0.145964 0.0167379 
-4.25354e-18 -8.27717e-18 1 

-0.0960043 -0.0119566 -0.186819 
-0.0764079 -0.0400345 0.0151551 
5.56167e-18 -3.53005e-18 1 

-0.709514 -0.616028 4.71671 
0.0276789 0.816876 0.848523 
4.70363e-19 1.09402e-18 1 

-0.157054 -0.133505 -1.58952 
0.175287 0.126521 0.950369 
-2.49748e-18 -1.13688e-17 1 

-0.113344 -0.0764639 -0.269954 
-0.0123259 -0.0466845 -0.135688 
1.64638e-18 9.10867e-18 1 

-0.213843 -0.0190735 -0.000508132 
0.0867952 0.003673 0.347165 
-9.7299e-18 -4.39121e-18 1 

-0.203173 0.0478924 -0.0314138 
-0.0368144 0.0760599 0.229777 
9.63046e-19 1.16288e-17 1 

-0.13005 0.0276331 0.186506 
-0.039857 -0.0122967 0.0443085 
9.41884e-18 5.83968e-18 1 

-0.305275 -0.295877 -0.0206752 
0.209426 -0.0395136 0.214208 
-2.47165e-17 6.0175e-18 1 

-0.248704 -0.659226 2.21656 
0.344289 0.310712 2.78053 
5.80889e-18 4.1722e-18 1 

-0.143406 0.00021614 -0.0127513 
-0.0703411 -0.0584581 0.291428 
1.02874e-17 -6.16336e-19 1 

-0.265854 0.164726 0.121919 
-0.24277 -0.0704669 -0.651528 
-1.25882e-17 -8.44701e-18 1 

-2.88082 0.983982 -0.375847 
0.562769 0.427891 -1.11502 
-1.34536e-18 -9.37411e-18 1 

-0.0845944 0.0491869 0.0417874 
-0.0438413 -0.0674036 -0.0846238 
-6.95639e-18 -5.59563e-18 1 

-0.0813552 0.406239 0.750615 
-0.307294 0.0770912 0.672475 
-7.52001e-18 -1.32885e-18 1 

-0.130433 0.0308175 0.357519 
-0.0924597 -0.0485756 -0.00632859 
6.6861e-18 9.50251e-19 1 

-0.125925 0.00729058 -0.341848 
-0.00678779 -0.0595266 0.268432 
-6.97222e-18 -3.54702e-18 1 

-0.133401 0.102554 -0.0148243 
-0.165266 -0.0882291 -0.139522 
4.25397e-19 -7.84622e-18 1 

-2.32285 0.837974 -1.74279 
0.195808 0.653309 -0.256183 
-7.37524e-18 -5.46411e-18 1 

-0.116363 0.053133 -0.113579 
-0.0557279 -0.0189078 0.336595 
1.3943e-17 -3.62157e-19 1 

-0.230529 -0.268213 -0.349428 
0.265928 0.00682887 -0.14444 
1.03053e-17 -1.10748e-17 1 

-1.03368 0.333188 -1.3489 
-0.428409 0.447127 0.0206293 
-2.51995e-18 -3.52793e-18 1 

-0.30628 0.250119 -0.0879214 
-0.101848 -0.0739218 0.459262 
1.21537e-17 3.57521e-18 1 

-0.128728 -0.190231 -0.750908 
0.247616 0.139893 -0.94823 
2.82256e-18 -1.20076e-17 1 

-0.0638756 0.0311827 0.140048 
0.0116945 -0.0175805 -0.131072 
6.11255e-18 6.87163e-18 1 

-0.875659 0.336783 0.692693 
-0.0835639 0.287824 0.343274 
6.13596e-18 7.66994e-18 1 

-0.318867 -0.677881 0.425509 
0.426689 0.338974 0.566634 
3.40756e-18 -8.75408e-18 1 

-0.508726 0.402421 1.04602 
-0.491178 0.474544 -0.172029 
-2.12131e-18 4.89534e-18 1 

-3.52518 45.5436 -0.202132 
-0.0104335 -2.23912 -0.654748 
-3.08381e-18 9.59032e-17 1 

-0.0424211 -0.132822 0.548282 
0.0440034 -0.146768 0.129271 
2.59003e-18 -1.34461e-17 1 

-0.378003 0.0163448 -0.18944 
0.139465 0.0741017 0.0319479 
-8.84867e-18 5.5366e-18 1 

-0.144553 0.0388877 0.210834 
-0.00504807 -0.0532569 -1.68476 
7.11824e-18 1.95883e-17 1 

-0.0800739 -0.105905 0.260979 
0.0232771 -0.0943636 -0.354857 
3.20449e-18 -3.51712e-18 1 

-0.257239 0.143382 0.0852691 
0.0271573 -0.00330261 0.300147 
6.37477e-18 -6.58726e-18 1 

-1.00952 -0.381416 3.57098 
-0.314524 0.228008 -1.59106 
-1.61941e-18 -2.69901e-18 1 

-0.13247 -0.0520584 0.163178 
-0.0365582 -0.00166024 -0.0463855 
1.79498e-17 -4.07144e-18 1 

-0.0846668 -0.0650186 0.176305 
0.13874 0.0592744 -1.0344 
1.28142e-17 1.27065e-17 1 

-0.176602 0.138265 -0.0338122 
0.00813337 -0.0264611 0.0960564 
9.2585e-18 -9.37091e-18 1 

-0.142681 -0.00753943 -0.320105 
0.035854 -0.0291974 0.260393 
-2.97292e-18 4.86758e-18 1 

-0.271658 -0.811496 0.0523912 
0.708267 0.472479 0.428883 
-3.86376e-18 3.77122e-18 1 

-1.53558 0.409044 -0.680481 
-0.0195873 0.551902 -0.370621 
-3.03281e-19 -7.80444e-18 1 

-0.0387036 -0.0704707 -0.0212283 
0.0203426 -0.0850563 0.131424 
-1.022e-17 -1.33477e-17 1 

-0.0869979 -0.0246471 -1.4703 
0.00869199 -0.0188513 -0.981129 
-1.54847e-20 7.32426e-18 1 

-0.172541 -0.0300215 -0.254026 
-0.0445544 -0.0354605 0.388318 
9.19173e-18 2.59328e-18 1 

-0.116768 -0.009779 -0.457665 
0.0133224 -0.0312231 0.344712 
-4.07312e-18 -6.22282e-18 1 

-0.163478 -0.0416615 -0.967286 
-0.00879176 0.213472 -0.0618081 
1.49771e-17 1.33036e-18 1 

-0.12153 -0.0185447 0.14883 
0.00468291 -0.0715541 0.348477 
-3.74835e-18 1.0308e-18 1 

-0.325981 0.0523342 -0.0445005 
0.0233557 0.0148129 -0.084096 
6.83049e-18 1.58565e-17 1 

-0.599155 -0.204076 0.0928525 
-0.0335367 0.122134 0.311093 
-1.03608e-17 3.75132e-18 1 

-0.126235 0.0604107 0.824677 
-0.14155 0.000596512 0.8895 
-2.19913e-18 -3.12277e-18 1 

-0.136593 0.0575017 0.10298 
0.0594919 -0.115583 -0.102861 
7.0305e-18 1.30105e-17 1 

-0.253423 0.458361 -0.709299 
-0.305095 0.0813472 -1.48801 
2.11046e-17 -7.26935e-18 1 

-0.167328 0.0611573 -0.139562 
0.0407732 -0.0731169 -1.53983 
9.93273e-18 -4.95163e-18 1 

-0.194095 -0.0714952 -0.696132 
-0.020965 0.00522125 0.126908 
-5.17066e-18 -5.62513e-18 1 

-0.0772355 0.0318164 -0.0332144 
0.00815271 -0.135246 0.0258733 
-9.95237e-18 -1.35733e-17 1 

-0.164738 -0.00515246 1.25578 
-0.110289 0.0130572 -2.37355 
-1.2108e-18 1.01189e-17 1 

-0.184763 0.134388 -0.649108 
-0.421424 0.0768614 -0.990539 
-1.00335e-18 -1.29068e-17 1 

-0.0967206 0.00576985 -1.66059 
0.00130334 -0.0255576 1.59299 
-1.05069e-17 -7.44268e-18 1 

-0.0774099 0.0565974 -0.0735781 
0.0719865 -0.0604185 0.0491753 
-1.3196e-17 2.23075e-17 1 

-0.104335 -0.00279011 -0.094383 
0.0699447 -0.0366201 -0.0860798 
-7.76171e-19 -8.21828e-18 1 

-0.889345 -0.522844 1.36532 
0.00168075 0.313034 -0.798434 
1.27061e-17 -6.67887e-18 1 

-0.114794 0.0047059 -0.0161875 
0.0804928 0.0210014 -0.0966656 
5.69474e-18 1.16173e-17 1 

-0.397785 -0.0140179 -0.213085 
0.174986 -0.166312 -0.0734817 
-5.98013e-18 3.72787e-18 1 

-0.480639 0.254294 -0.791982 
-0.373009 0.11782 0.588187 
4.48695e-18 5.23234e-18 1 

-0.0992228 0.0291883 0.0657768 
-0.00620635 0.0375459 0.20439 
9.48074e-18 -3.56476e-18 1 

-0.470392 0.496961 -0.00497002 
-0.262889 0.239788 0.238715 
1.27251e-17 3.07663e-18 1 

-0.112172 -0.00163663 0.749453 
-0.00450222 -0.0309033 4.21301 
1.1869e-18 2.87094e-18 1 

-0.109239 -0.0263153 -0.0521055 
-0.0423309 -0.114278 -0.0396537 
-4.14956e-18 -6.66413e-18 1 

-0.0558036 -0.107927 -0.231322 
-0.0170506 -0.0204127 0.113363 
-2.20498e-18 -9.7274e-18 1 

-0.23547 0.304726 -1.00577 
-0.0631532 0.137728 0.688042 
-3.24825e-18 -6.05924e-18 1 

-0.0723437 -0.110167 0.0488337 
0.0788244 -0.0209897 -0.286403 
2.76831e-18 1.0335e-18 1 

-0.11521 0.0047924 -2.6205 
0.0162368 -0.0136938 -4.54739 
1.13392e-18 6.89868e-19 1 

-0.165575 -0.134615 0.606795 
-0.587564 0.0292095 0.677082 
-4.70082e-18 -9.54612e-18 1 

0.04586 -0.724787 0.128027 
0.557233 0.355174 0.510005 
-5.31089e-18 4.0234e-19 1 

-0.256423 0.276175 -1.16339 
0.0732213 0.0685122 1.65446 
-5.53191e-18 3.13168e-18 1 

-0.698988 0.389621 0.813713 
-0.386742 0.18445 0.726485 
-2.27823e-18 4.02977e-18 1 

-0.2832 -0.0738962 0.20561 
-0.0851615 0.172405 0.36224 
1.56528e-17 -4.35945e-18 1 

-0.0685466 -0.114133 0.980135 
0.107831 0.0961813 0.572239 
4.19056e-18 4.24529e-18 1 

-1.08109 0.980639 -0.70366 
-0.0583598 0.592593 -1.78124 
-7.73093e-18 2.99844e-18 1 

-0.174528 0.00971776 0.96243 
0.0256573 0.0617146 -0.388795 
-3.74037e-18 1.66463e-18 1 

-0.399776 0.0807209 -0.263694 
0.316182 0.0415962 0.588767 
8.22532e-18 2.95742e-18 1 

-0.0699247 -0.0350232 0.083225 
0.0531178 -0.0608957 -0.101158 
-3.38144e-18 -5.20294e-18 1 

-0.205237 -0.0300094 1.10435 
0.00308084 -0.0252162 1.00236 
2.97728e-18 -5.88145e-18 1 

-0.0641686 0.106793 -0.283957 
-0.125902 -0.0579709 0.0357484 
-7.01689e-18 -7.39766e-18 1 

-0.112974 -0.175209 0.0381231 
0.15294 -0.0142548 0.0250877 
3.17387e-18 9.59161e-18 1 

-0.0897238 -0.00414045 -0.926348 
-0.044034 -0.0117768 -0.0528158 
-2.00238e-18 2.47481e-17 1 

-0.0268381 -0.0706233 -0.273311 
0.00700575 0.0297555 -0.150603 
7.35293e-18 9.28738e-18 1 

-0.319052 0.22407 0.68947 
-0.276981 0.232799 -0.556045 
9.32329e-18 6.7177e-18 1 

-0.727692 0.585191 0.812695 
-0.67457 0.629751 -0.775765 
1.16872e-17 1.55213e-17 1 

-0.1188 0.0462158 -0.440113 
-0.0410669 -0.066833 0.237989 
-2.14354e-18 3.51302e-18 1 

0.00847381 -0.185505 -0.498803 
0.0384384 -0.0902294 -2.01213 
-1.98981e-18 -5.24785e-19 1 

-0.056407 0.0793107 0.0807372 
0.0123811 -0.0114367 0.283206 
-1.01784e-17 -1.34936e-17 1 

-0.0879708 -0.0337183 1.13368 
-0.0347499 0.0126078 -4.6921 
-4.13868e-18 4.88717e-18 1 

-0.262101 0.00775648 -0.103076 
0.132304 0.0591216 -0.55881 
-6.63599e-18 -3.59542e-18 1 

-0.156596 -0.0792924 -1.11455 
0.0334991 -0.0240196 -0.654973 
-1.22262e-17 1.80217e-18 1 

-0.137889 0.0222238 1.13346 
-0.00882629 0.0494674 23.1988 
1.331e-19 -3.26095e-18 1 

-0.130651 -0.0152738 0.575238 
-0.00549246 -0.0445833 -0.157902 
-1.7004e-17 6.69641e-18 1 

-0.64813 -0.050863 -0.666752 
-0.423049 0.229785 12.8169 
6.62374e-18 4.37963e-18 1 

-0.156014 0.308748 -1.04694 
0.0796205 0.108733 0.524205 
-2.4294e-18 1.94014e-18 1 

-0.124173 -0.0642382 -1.75421 
-0.0470491 0.0220008 -0.845774 
-2.29428e-19 -6.98355e-18 1 

-2.42475 0.738291 -10.2974 
-0.589071 1.07894 3.18765 
-3.36317e-18 -5.76077e-18 1 

-1.67233 -0.874955 1.64523 
0.440114 0.487366 -0.0752828 
-3.89912e-17 2.20049e-17 1 

-0.251694 -0.327678 -0.337045 
-0.0402391 0.108623 2.21909 
1.24253e-17 -7.49996e-18 1 

-0.172966 -0.0168151 0.00632576 
-0.00345653 -0.0606205 0.0494106 
6.22884e-21 9.56749e-18 1 

-0.425716 0.254599 -0.16695 
-0.110761 0.144872 -0.730055 
-4.47519e-18 4.1735e-18 1 

-0.220624 0.0965088 -3.91813 
0.17945 0.439491 2.29847 
-5.25999e-19 1.86038e-18 1 

-0.205516 -0.00933104 1.79392 
-0.0151623 0.0165779 0.911662 
2.57724e-18 7.77466e-18 1 

-0.976352 0.231074 -0.653122 
-0.468559 0.0920974 0.0345545 
-4.59034e-18 4.15179e-17 1 

-0.246505 0.129905 0.257867 
-0.114819 0.140118 -0.274967 
-2.18185e-18 -4.18915e-18 1 

-0.0969314 0.00547214 0.0497778 
-0.0338289 -0.0248314 -0.0174739 
1.75244e-17 1.92292e-18 1 

-0.105371 -0.0356437 0.171743 
0.022543 -0.0925223 0.651212 
4.78628e-18 -5.1738e-18 1 

-0.176267 -0.0282308 0.273801 
0.0131942 -3.75585e-05 0.0576207 
-1.02265e-17 -4.60162e-18 1 

-0.113838 -0.00309476 0.102664 
-0.0149665 -0.0710864 -0.210464 
3.41075e-18 -3.63813e-18 1 

-0.0760255 -0.0190161 0.161201 
0.10326 -0.00469272 0.429604 
-8.7943e-18 5.71987e-19 1 

-0.324691 -0.177199 0.370799 
0.0257763 0.198747 -0.0773522 
6.34623e-18 -2.75923e-19 1 

-0.293681 -0.7157 2.05033 
-0.220126 0.0676265 -0.036624 
6.42515e-18 -1.24602e-17 1 

-0.0103105 -0.281109 -0.00516061 
0.31182 -0.000463511 -0.282948 
-5.34384e-18 8.02796e-18 1 

-0.126267 0.0679121 0.16584 
-0.0588082 -0.0540372 0.331153 
1.08679e-17 -4.93166e-18 1 

0.133539 -1.27791 0.056373 
0.777034 0.900139 -0.252382 
1.23176e-18 -3.17335e-18 1 

-0.148429 -0.027396 0.0489291 
0.0120738 -0.0378287 -0.110049 
-1.07419e-17 -7.52402e-18 1 

-0.11938 0.153535 0.0488433 
-0.16867 -0.0113406 0.489667 
-7.61857e-18 -5.03113e-18 1 

-0.231274 -0.109512 -0.223524 
0.0334399 -0.0783083 -0.174013 
-6.9716e-18 1.65477e-17 1 

-0.155915 -0.0229469 -1.22612 
-0.0713603 0.034204 0.644946 
1.52903e-17 2.89041e-18 1 

-0.545656 -0.123713 -0.248856 
-0.0726789 0.11274 0.822306 
-1.27791e-17 -2.03304e-18 1 

-0.614906 -0.151069 -0.386721 
0.0595034 0.246716 -0.811397 
-1.33425e-18 -5.91837e-18 1 

-0.107008 0.00138747 -0.651277 
0.0304702 -0.0552566 -0.65011 
8.55804e-18 -6.41001e-18 1 

-0.289324 -0.0257126 -0.0525797 
0.108515 0.0436177 -0.539379 
-1.39805e-17 2.40253e-18 1 

-0.14547 -0.0123221 -0.0762316 
-0.0456483 -0.0415886 0.209859 
-8.8688e-18 5.65386e-18 1 

-0.104315 0.0390578 0.460077 
-0.0528228 -0.0583331 0.084249 
-4.48529e-18 -8.83769e-18 1 

0.949757 -1.24383 0.375564 
0.941016 1.11295 -0.193805 
3.28498e-18 -2.144e-18 1 

-0.0968072 -0.0258211 0.359375 
-0.0571428 -0.0328237 -0.271708 
-7.75961e-18 7.27463e-19 1 

-3.19544 -1.65054 -5.08627 
0.208814 0.524145 0.332232 
5.63753e-18 -2.79547e-18 1 

0.835025 -1.06699 -0.226962 
1.04473 0.863258 -0.0965701 
7.82967e-18 8.89001e-18 1 

-0.128559 -0.0555794 -0.0333484 
0.072288 -0.0589178 -0.0738268 
7.09558e-18 -1.31671e-18 1 

-1.10789 -0.239085 -0.772173 
-0.0806681 0.371989 0.203083 
-2.48828e-17 1.47181e-17 1 

-1.01609 0.0959979 -10.2043 
-0.39444 0.383807 -4.80197 
-4.1751e-18 4.71591e-18 1 

-0.390512 -0.206759 0.911013 
0.0499089 -0.0362402 0.174193 
8.42766e-18 -1.88274e-17 1 

-0.0964402 0.083905 0.435059 
-0.108533 -0.0229759 0.507743 
1.06538e-18 1.66902e-17 1 

-0.198408 0.0102699 -0.219479 
-0.0951997 -0.0102469 0.122585 
-2.08295e-17 -2.28878e-17 1 

-0.131668 0.0204581 0.0358553 
-0.0233563 0.0368944 0.284156 
3.50403e-18 -1.07266e-17 1 

-0.187098 -0.00357799 0.0422498 
-0.0921451 -0.0179702 0.211551 
5.52706e-18 -9.15282e-18 1 

-0.0985568 -0.411236 -0.70214 
0.334975 0.07868 -0.102408 
7.98778e-18 -2.38866e-18 1 

0.0179022 -0.235612 -0.37446 
0.348309 -0.054154 -0.268593 
-7.18687e-18 -8.75819e-18 1 

-0.103543 -0.030746 0.050539 
-0.0152729 -0.0257026 0.189799 
-8.67539e-18 -5.24337e-18 1 

-0.466641 0.334025 -0.505882 
-0.160949 0.171931 0.494761 
5.46101e-18 4.0548e-18 1 

-0.182062 -0.256812 -1.86846 
0.118508 0.312101 -2.08978 
7.29792e-18 -2.31879e-17 1 

-0.167175 0.0486543 -0.180315 
-0.0853957 -0.0790585 0.0650288 
3.52322e-18 4.86617e-18 1 

-0.107567 -0.0676296 -0.36986 
0.0820065 0.0583921 -0.429043 
-8.32671e-18 1.69628e-18 1 

-0.173998 -0.00660172 -0.349301 
0.00779678 0.0629962 -0.490243 
-8.9548e-19 -7.18622e-18 1 

-0.0757077 0.00130303 0.0472394 
0.0637016 0.0157018 -0.170085 
3.27922e-18 3.30824e-18 1 

-0.310795 -0.022594 -0.711964 
-0.264025 -0.0349023 -0.98993 
-5.48152e-18 -5.10899e-18 1 

-0.403651 -0.551177 0.214757 
-0.0766143 0.363956 -0.856132 
7.69666e-18 6.66859e-18 1 

-0.0357917 -0.0749983 0.0998015 
-0.0115792 0.0183488 0.143747 
8.5742e-18 -4.18188e-18 1 

-0.291313 0.0452416 -0.700099 
0.156011 0.0746774 -0.484178 
1.41952e-17 -1.89528e-17 1 

-0.100197 0.0473737 0.329341 
0.0468885 0.0122884 0.39146 
-1.48299e-18 -4.57742e-18 1 

-0.0952837 0.00647233 -1.03434 
-0.0267229 -0.0143643 -0.177238 
-1.56018e-18 3.01145e-18 1 

-0.437173 -0.098954 3.62053 
-0.0302358 0.18932 -0.132451 
-2.46762e-18 -6.68855e-18 1 

-0.244248 -0.0176867 1.27095 
0.0364211 0.0844778 0.54473 
-3.41655e-18 8.91878e-18 1 

-0.126629 -0.0166774 0.0802429 
-0.00258765 -0.119434 -0.000427631 
9.25062e-18 -5.23641e-17 1 

-0.121706 -0.0411438 -0.761693 
0.0114907 0.0113473 -0.303882 
-3.31957e-18 -4.21019e-18 1 

-0.287288 -0.0486815 -2.24034 
0.130007 0.0318379 17.4044 
-5.16496e-18 5.03236e-18 1 

-0.0886905 -0.0476662 -0.277131 
0.0788659 -0.00857867 0.346522 
-1.12532e-18 -1.23217e-17 1 

-0.158966 0.228893 58.1096 
0.00225921 0.0267735 -1.15016 
1.28091e-18 4.8132e-17 1 
