# vtk DataFile Version 3.0
Output file generated by Yade's KinematicLocalisationAnalyser
ASCII
DATASET UNSTRUCTURED_GRID

POINTS 13483 float
523.961 40.8671 0.538406
595.709 90.2632 -0.464668
112.763 6.00017 -0.564465
632.633 5.57952 0.57221
443.636 12.1487 -0.316712
296.147 36.7848 -0.483652
147.504 7.16474 0.462793
496.631 16.7235 -0.147502
448.762 46.8244 0.143839
587.037 20.8639 -0.679949
199.842 8.83025 -0.0916057
244.249 6.56436 0.31928
534.542 57.4108 -0.213854
529.824 27.7593 0.0862546
129.057 18.4994 0.53625
209.672 35.2408 0.42108
207.062 12.8585 -0.335286
272.567 10.6204 0.487649
321.628 35.9594 -0.439665
463.768 7.73274 0.562396
383.16 37.7895 -0.119211
507.68 56.9432 0.278612
626.461 76.2515 0.456514
558.223 81.5601 -0.333441
422.176 17.8069 0.341182
227.404 48.0072 0.151115
454.775 55.0048 -0.488111
505.61 32.2927 -0.270722
40.4126 16.497 -0.250517
574.324 56.9176 0.319305
434.63 7.44817 -0.43859
15.2966 24.6993 -0.338594
609.278 82.7115 0.283441
441.061 4.61727 0.669691
73.0748 45.4362 0.107775
458.568 40.1377 0.369746
468.236 17.5481 0.658276
323.356 24.9431 0.184548
469.037 30.6813 -0.291171
330.635 37.2543 -0.522246
229.165 15.2828 0.359479
404.043 40.8499 0.0803963
555.811 7.06767 -0.243187
182.402 6.2465 0.364732
50.5377 7.23929 -0.103948
63.2289 9.01498 -0.282044
569.21 10.0024 -0.608425
20.5422 12.7502 -0.304661
494.745 71.368 -0.356766
561.251 31.7866 0.319319
163.231 33.0121 -0.335626
589.062 79.5162 -0.165325
31.4889 30.138 -0.129747
473.004 4.11286 0.580055
134.116 7.14096 -0.492606
511.025 44.4575 0.482046
462.677 57.9458 0.126448
165.465 0.953228 -0.286855
28.9869 2.35086 0.345566
328.456 19.4434 0.32715
503.893 81.5004 -0.131997
429.691 46.7258 -0.186675
373.259 1.02693 0.2149
577.635 8.62208 -0.567487
24.8064 46.4309 0.235657
242.7 33.6488 -0.371648
589.489 13.6271 -0.206578
523.968 84.4484 -0.343154
390.748 8.08245 -0.585051
497.01 10.1598 -0.509384
604.487 51.339 0.434524
123.246 7.81323 0.273481
459.165 57.3375 -0.153122
434.746 25.9413 0.10117
278.362 17.4294 -0.372812
18.0026 14.7736 -0.264741
616.152 72.3458 0.355147
314.188 41.7902 -0.281593
559.297 24.0848 0.60829
569.254 14.3562 0.269925
624.259 13.5786 0.325134
430.639 49.1435 0.191976
87.033 39.6002 -0.272025
543.924 75.4437 -0.219967
538.029 67.9659 -0.13824
635.22 81.82 -0.143854
615.65 2.0192 -0.540928
274.266 30.232 -0.562366
532.562 6.03461 0.215001
22.0951 6.50794 -0.655005
125.789 40.0313 -0.158641
456.091 15.9912 0.328339
616.707 66.0321 -0.462847
186.047 29.1016 0.268547
41.1532 35.9807 0.283532
441.354 3.37058 -0.192748
225.077 9.2508 -0.443135
604.45 60.8813 -0.338941
624.642 63.1774 0.212678
340.138 23.5422 -0.265709
154.677 27.9976 -0.475759
473.365 57.26 -0.459036
357.474 18.246 -0.443473
388.242 31.6317 0.140287
355.584 6.7987 0.515669
481.389 14.3975 -0.195611
635.176 15.2486 0.150762
75.0662 40.3651 0.388677
316.938 5.71523 -0.285974
492.1 15.0758 -0.441744
339.91 48.0252 0.536213
22.4601 27.437 -0.509788
27.3068 5.92929 -0.337431
489.468 51.4188 0.517307
451.885 31.5387 -0.201085
23.9063 40.2644 0.444451
88.1218 31.8329 -0.241497
308.438 17.4878 -0.317425
518.67 21.9339 -0.231634
438.411 58.8163 -0.293302
600.119 17.4438 -0.459494
594.577 11.3646 -0.171955
365.153 40.9245 0.13181
521.457 63.4257 -0.134839
228.021 17.6211 -0.573913
313.257 3.82796 0.568905
97.9231 32.1545 0.401896
109.924 24.3894 -0.272176
470.812 55.5394 -0.0794725
291.035 19.461 0.519066
573.222 64.9109 0.120947
529.189 83.5914 -0.104134
436.157 37.0858 -0.457953
632.237 44.1551 0.247025
402.528 24.6921 -0.218832
262.899 24.9267 -0.299256
562.042 44.2369 0.286868
264.55 30.7458 0.481648
501.805 25.0567 -0.252007
315.397 38.4693 0.203655
450.308 13.7899 0.693273
346.729 34.9425 0.0835495
403.043 18.0934 -0.102452
301.69 44.4232 -0.447604
182.392 30.3759 0.147563
600.358 87.3123 -0.144542
633.154 14.9042 0.361413
6.09582 13.1883 -0.435208
404.597 25.0134 -0.388269
35.1458 24.2368 0.069935
356.268 33.9257 -0.6156
372.681 24.2864 -0.273298
70.2461 12.3079 0.51042
48.5509 34.012 -0.496114
216.883 13.8478 0.465736
507.922 75.3606 -0.388098
502.352 33.6667 -0.477121
70.0651 21.4645 0.511271
562.513 83.504 0.403378
605.094 14.8654 -0.601995
552.246 58.3085 -0.550935
573.048 1.71935 0.643514
479.446 47.0366 0.419995
508.644 58.0898 -0.625221
459.712 18.498 -0.551506
630.208 3.75617 -0.469467
214.434 25.1745 -0.119029
122.046 36.3343 0.202397
237.139 6.65239 -0.426107
88.639 4.47315 0.287451
59.6132 10.2929 0.170747
262.928 38.8095 0.376727
14.9364 26.5572 -0.353223
489.921 27.069 0.450214
501.667 66.8465 0.199484
426.058 30.581 -0.343035
620.85 88.1742 0.395111
384.22 8.63416 -0.158899
408.231 44.104 -0.593304
479.894 3.27171 -0.264117
19.7958 26.4417 0.42614
503.94 5.68184 0.564997
486.05 10.106 -0.49004
198.247 11.3619 0.51887
400.036 16.2612 -0.251338
297.919 6.60112 0.32466
367.355 19.6137 0.378515
591.002 59.0052 0.150144
184.742 26.1475 0.449145
611.096 13.0219 0.463245
591.454 55.0427 0.420033
363.101 10.3891 0.307258
590.241 2.34159 -0.366212
526.151 39.456 0.425962
599.565 32.8586 -0.454047
401.394 50.4904 -0.317639
446.917 17.0697 0.358213
429.355 60.1112 0.233794
416.769 9.80839 -0.218872
555.586 56.7652 0.285727
551.208 54.1099 0.382788
184.753 39.3436 -0.419269
622.719 14.9298 -0.171608
507.845 60.9218 0.287812
10.0827 19.3445 -0.212156
386.329 25.7451 0.428421
179.905 23.6844 0.417624
88.6222 40.5441 0.219441
629.613 58.075 0.437669
551.303 65.3979 0.244812
304.813 27.69 -0.339588
477.079 10.152 -0.421826
78.1138 45.6322 0.17842
237.884 27.8146 -0.489377
486.426 36.4448 0.343187
444.976 32.5966 -0.505777
252.294 0.904034 -0.414708
481.574 62.8901 -0.388311
473.451 69.1001 0.444907
449.578 59.6228 0.426199
447.724 1.75511 -0.648151
573.999 27.078 -0.558926
172.026 12.5471 -0.224855
465.064 72.3787 0.432228
490.722 58.4605 0.129552
68.5425 0.994305 0.318221
242.139 4.86867 0.228313
631.731 18.8099 0.207772
623.906 18.0032 -0.632612
635.601 23.5148 -0.696501
290.481 8.73653 -0.24463
602.208 41.0319 0.408994
383.151 47.0612 -0.474053
421.051 0.819687 0.524017
541.37 60.8938 0.525297
24.1728 33.4731 0.358578
315.718 44.8013 0.591395
243.031 3.08884 0.421824
613.244 79.4016 -0.208117
578.977 78.257 0.219364
274.737 12.0892 0.284228
554.9 45.7873 -0.128019
494.851 2.88105 0.467273
484.656 10.1608 0.582696
91.8845 18.7412 -0.54658
290.298 1.1418 -0.231324
326.962 2.27517 -0.370727
12.8227 7.9229 -0.618625
4.24267 33.8203 0.330955
154.76 19.5684 -0.390596
64.5212 42.8371 -0.229394
62.1747 29.8904 -0.317725
400.536 14.3998 -0.567344
349.791 38.4638 -0.515872
586.705 81.961 -0.123051
18.2829 4.49988 0.291608
66.2807 7.19688 0.149611
518.005 77.4306 -0.137917
281.804 1.15382 0.419956
347.097 17.9193 -0.211059
227.157 4.95085 0.384861
549.381 38.9855 0.198069
422.423 8.8553 0.548377
605.977 40.9392 -0.381476
522.06 66.746 0.314471
557.366 23.7265 0.164739
399.59 30.3097 0.515564
97.3918 46.6805 0.310341
471.055 62.1261 0.0799585
600.448 26.2571 0.25182
229.321 32.7031 -0.252052
28.9688 19.0482 -0.220839
321.428 14.8406 0.514659
102.584 42.0491 -0.483383
256.806 45.6873 -0.243972
404.607 2.42092 -0.249194
612.885 69.0423 0.395126
567.042 0.685234 -0.54188
317.498 4.1564 0.537612
287.199 27.4577 0.167624
430.915 56.9812 0.209702
76.8331 8.78246 0.516947
189.96 46.1913 0.396623
595.57 72.6796 0.358856
459.324 72.958 0.0667042
192.521 42.3353 -0.29839
155.007 44.1365 0.406752
634.753 76.2202 -0.529842
633.729 16.1692 -0.688162
524.76 3.45349 -0.635075
183.302 25.1438 -0.105754
479.903 42.6675 0.144491
481.761 43.2585 -0.314733
388.564 5.49369 -0.186953
438.361 0.885509 -0.508489
585.084 82.9258 -0.481909
80.9371 31.8633 -0.267361
553.612 33.2222 -0.496983
262.532 16.0331 -0.474024
8.39238 2.49656 -0.417792
120.388 38.1611 0.201059
63.734 23.0664 0.471597
566.786 70.961 0.306647
611.153 96.2319 -0.16098
178.631 29.0139 0.20319
628.47 14.1132 0.600669
42.5826 37.8427 -0.281024
86.9715 30.1483 -0.182763
536.637 31.4975 0.608175
392.069 19.6916 -0.584975
466.526 18.2475 0.208335
230.053 30.8076 -0.23923
537.478 6.97406 -0.601472
636.578 16.7242 0.434012
26.972 34.2438 -0.302579
259.28 7.8102 0.206736
214.698 15.4905 0.256393
1.04453 38.4622 0.146701
217.871 15.1163 0.410104
204.582 11.1331 -0.128416
206.739 27.3935 -0.306662
128.865 29.8404 -0.154273
484.572 22.3509 0.488028
160.168 14.5811 -0.327743
607.693 81.7045 -0.237627
167.389 3.84824 0.518266
44.0304 38.9314 0.362282
597.176 66.3141 -0.524918
269.187 33.9624 -0.413098
563.967 32.8603 0.541635
623.482 70.2743 -0.4766
288.6 9.42472 0.130319
592.835 47.0395 0.419406
315.337 2.47825 -0.382221
396.458 26.2489 -0.400393
561.478 21.0533 -0.512627
100.439 11.964 -0.520689
438.73 5.5559 0.724993
608.77 41.4448 -0.211236
83.391 7.74429 -0.317853
269.99 15.5804 0.198039
401.734 12.277 -0.279382
630.756 2.37756 0.566522
377.991 1.99833 -0.560707
170.512 39.3364 -0.354209
603.082 23.8877 -0.322932
123.652 37.6585 -0.210373
252.359 33.8848 -0.52072
381.276 22.1791 0.202685
504.332 26.4795 0.482955
367.484 10.3011 -0.507309
433.214 42.0354 0.275177
596.924 89.896 0.378937
43.572 12.0949 -0.213135
286.751 39.5575 0.27336
361.826 31.5 0.46431
389.24 22.3008 0.293341
470.44 67.7981 -0.380059
612.615 63.5502 -0.185875
556.054 50.9507 -0.394161
218.269 35.011 -0.413874
12.3533 35.5093 0.209662
550.199 55.7435 -0.150638
475.85 76.0122 0.399258
221.044 40.9348 -0.132909
563.256 57.9569 -0.111556
144.749 9.67526 0.220758
349.098 24.0775 0.308537
431.274 59.0329 -0.105399
393.142 20.8661 0.274071
592.175 92.6192 -0.290954
405.212 5.10029 0.644402
46.3873 26.2422 -0.366928
442.084 52.9926 -0.371134
407.072 50.8264 0.389288
610.095 75.489 -0.219591
590.501 45.622 0.285232
479.846 25.1523 -0.188415
600.799 79.8135 0.477882
281.429 2.52727 -0.448605
360.666 33.9108 0.594682
27.1827 41.7686 -0.305755
594.734 48.1768 -0.129449
528.089 21.7788 -0.724661
431.492 2.29878 0.538149
120.461 4.7696 -0.354068
401.437 44.4834 0.131801
10.8611 0.896299 0.363296
628.363 7.04078 -0.164288
353.274 43.6671 -0.41261
[...]
POINT_DATA 13483
TENSORS Strain_matrix float
0.0094556 0.185001 -1.00177 
-0.0777587 0.0191422 -0.633032 
-0.0273689 -0.0466949 0.0379533 

-0.02684 0.0200056 1.94903 
-0.0431175 0.0943975 -4.88096 
0.00267224 0.00574779 -0.0753351 

-0.00982648 -0.00602982 0.0923726 
0.00358052 0.00231073 -0.254173 
0.000341594 -0.00031255 -0.00976026 

0.0022499 -0.00326708 0.00260453 
0.00418774 0.00738428 0.029665 
-0.000551966 -0.000830143 -0.00173831 

-0.230854 0.00103755 0.0945509 
0.0396643 0.185802 0.156238 
-0.0274494 -0.0591678 0.392807 

-0.0164474 -0.0229751 0.0642094 
0.0364506 0.00230663 0.00633834 
0.000442659 0.0009144 -0.014352 

-0.0201182 0.00911381 -0.423128 
-0.00691195 0.0215786 0.682757 
-0.0108281 0.00786587 0.0883923 

0.00603653 -0.0048142 -0.0887731 
-0.0813833 0.0167612 -0.0188749 
0.00971538 -0.00144178 -0.00237969 

-2.02245 1.6033 1.28546 
-0.534225 0.661564 -2.14519 
-0.0132026 -0.000373619 -0.0010232 

-0.0254843 -0.00250776 -2.11816 
5.88786e-05 0.0117688 1.19886 
0.00245809 0.000392613 0.0454832 

-0.00683586 -0.00485066 -0.00251809 
0.000105646 0.00321105 0.0040384 
-0.00020365 -0.000586116 0.00931514 

-0.155038 0.0973225 -0.339572 
0.0884929 0.0975353 -0.528796 
0.0181014 -0.0153647 0.212665 

-0.0727604 0.0117538 0.00780021 
0.0417745 0.0425252 -0.148534 
-0.0470465 0.0464842 0.415625 

-0.0346875 0.139775 0.0207131 
-0.0699175 0.026476 -0.013868 
-0.00161366 0.00898817 0.124012 

-0.0409368 -0.00452054 0.769336 
0.0132393 0.019752 -0.0457652 
0.000926576 -0.00173675 0.00294603 

0.000872844 -0.00566876 0.0177675 
-0.032352 -0.00696004 -0.0519271 
-0.000144774 -0.00190677 0.0155264 

-0.0124703 -0.00762824 0.0038898 
-0.0158272 -0.0104497 0.00815599 
0.000988622 -0.00153803 0.0323879 

-0.0769353 0.0161353 -0.0347116 
0.102268 -0.0498173 -0.0158515 
-0.0812592 -0.0843257 0.273504 

-0.0269795 -0.0394774 0.200099 
0.0133671 -0.00788736 0.030717 
0.00420557 -0.0013528 0.0849706 

-0.000849377 -0.00197866 -0.43597 
-0.0428234 -0.0416197 -0.274386 
0.00318397 0.000604171 0.00230225 

-0.0917857 -0.197115 0.070676 
0.184066 0.16627 0.0551619 
-0.0148145 0.0183548 -0.115733 

0.0110606 0.0395054 0.0128834 
-0.0550192 -0.00172265 -0.0115257 
0.0172791 -0.0182228 -0.0259208 

0.00244507 0.0332954 -0.238929 
0.0116447 0.00142817 -0.438206 
-0.000315003 0.000835336 0.124021 

0.000941556 0.0911844 -0.165451 
-0.0929654 0.00810574 0.0452099 
0.0292546 -0.00171834 -0.18052 

-0.558208 -0.0473053 -0.248911 
-0.266637 0.413067 1.01442 
-0.0361397 -0.0303255 0.207189 

-0.198039 0.0200724 -0.801328 
-0.0273593 0.190201 0.155703 
-0.00663837 -0.123272 0.511025 

-0.760024 0.439742 6.25558 
-0.528002 0.632758 10.2234 
-0.0238905 0.00963288 -0.527616 

0.0656706 0.111572 -0.349957 
0.0519416 -0.0713494 0.621615 
-0.036201 -0.0375344 0.108152 

-0.0286022 -0.0455278 0.0192964 
0.0243135 0.0329995 -0.0372566 
-0.00725453 -0.00173033 0.0302962 

-0.167982 -0.128059 0.424744 
-0.13161 0.038647 0.15976 
0.0296624 -0.0217064 0.0653075 

-1.3472 1.63452 -1.06906 
-0.454134 0.831469 0.00883 
0.00564288 0.0207821 0.49588 

-0.0707834 0.00234058 -0.185714 
0.0607086 0.038651 0.110536 
-0.00100076 0.00708488 -0.0143231 

-0.00724617 0.0484242 0.0440001 
-0.047353 0.00917334 -0.0154131 
0.00140027 6.26345e-05 0.00501398 

-0.0143263 0.0874298 0.692198 
-0.0244178 0.0211845 0.780485 
-0.0194512 -0.0197816 1.65342 

-0.00898708 0.0172088 -0.0102695 
-0.0170729 0.00101148 0.000618411 
-0.000734165 -0.000365303 0.0136271 

-0.00431385 -0.0390761 0.800901 
-0.0217886 0.00574649 -0.84936 
-0.0532319 -0.0625061 -0.13845 

-0.128107 0.00366348 -5.06971 
0.00446242 0.0996776 5.63575 
-0.000961029 0.00511719 0.168013 

-0.0152678 0.0773825 -0.186843 
0.0635121 0.0304501 -0.0445959 
0.00402217 0.000996698 0.00708636 

-0.0453456 -0.0546414 -0.351452 
0.0654713 0.019648 -0.240866 
-0.0178903 0.0146894 -0.0119123 

-0.0440967 -0.0407209 1.08778 
0.0596881 0.0512852 -1.0398 
0.00270141 0.00303017 -0.0202759 

-0.00320583 0.020022 -0.2154 
0.00244155 -0.0159805 0.123118 
0.00419762 -4.02327e-05 0.105783 

-0.035421 -0.263566 0.244088 
0.258738 0.147135 -0.331089 
-0.000800927 -0.0501731 0.293093 

-0.0185829 0.00226585 0.00388697 
-0.0131155 0.00858683 -0.00103165 
0.000166655 -0.000516217 0.01194 

-0.00208384 0.00130836 -0.00642686 
-0.000638394 -0.00335797 0.0138156 
-5.35234e-05 -7.98973e-05 0.00140584 

-0.0211359 -0.00538856 0.0400589 
-0.00640466 0.0191426 -0.0250583 
-0.0095085 -0.00085578 -0.0175685 

-0.000997267 -0.019839 0.00303438 
-0.000185265 -0.0140003 -0.000733502 
-0.000294012 -0.00351709 0.0397522 

-0.0211385 -0.0174213 0.0135239 
0.0187012 0.00800927 -0.0829377 
-0.00179905 -0.00076469 0.000379621 

-0.0233533 -0.0955398 0.0449397 
0.0353831 0.0157113 0.155527 
0.00627825 0.00488304 0.0651616 

-0.091842 -0.156909 0.491675 
-0.0258234 -0.0207455 0.63538 
-0.0488606 0.0751008 0.36138 

-0.364828 0.146828 0.222498 
-0.0770053 0.211296 0.645068 
-0.0150564 -0.0343134 0.225137 

-0.0241095 0.0224833 -0.13031 
-0.00258396 0.0139967 0.0184068 
0.0435056 0.0241381 -0.147617 

-0.00850681 0.0561206 -0.000444965 
-0.0400363 0.00286085 0.0196439 
0.00321968 -0.0140996 0.069432 

-0.00759047 -0.0147094 -0.0352801 
0.0110591 0.00388821 -0.0146793 
-0.00151029 0.000928082 0.0135019 

-0.0153165 0.00319344 0.0869282 
0.00578962 -0.0141066 -0.063812 
0.00159497 0.00305076 0.0344217 

-0.0098166 -0.016622 -0.0724638 
0.0349719 -0.0179968 -0.189666 
0.0099602 0.0288088 0.0496933 

-0.0196703 0.13009 -0.159876 
-0.0776898 0.0419692 0.288203 
0.000702092 -0.0019147 -0.0211243 

-2.66054 1.50147 0.640714 
-3.49881 1.84758 4.10352 
-0.0341499 0.0515765 0.283156 

-0.00823096 -0.298785 -0.27099 
-0.000516546 0.00791008 0.0107054 
0.000188149 -0.0103854 -0.0041337 

-0.0126274 0.0268752 0.0386399 
0.038757 -0.031642 0.123459 
-0.0035345 0.0194565 -0.0153981 

-0.0299468 -0.0101863 0.209904 
0.0160783 0.0159725 -0.195027 
-0.0238217 -0.0763838 0.0757382 

-0.618002 0.920999 0.371259 
-0.409244 0.890083 1.22213 
0.0090134 0.0677179 1.22727 

0.0294552 -0.20082 0.0404445 
0.222843 0.016291 0.0604009 
0.00284118 0.00113627 0.0174169 

-0.0179922 -0.057009 0.0423622 
-0.00445663 -0.00468934 -0.0330342 
-0.00328634 0.0039401 0.0454043 

-0.0606967 -0.0167791 1.24606 
-0.0663515 0.00493645 1.50207 
-0.00828655 -0.00466619 0.251785 

0.0238677 0.0049702 -0.00317027 
0.00634001 -0.0126544 -0.0151385 
-0.00955976 -0.00690249 -0.00489834 

-0.0652238 -0.0813464 -0.296794 
0.135927 0.0732808 0.124376 
0.100738 -0.117562 0.800155 

-0.0288125 -0.0755483 -0.0479825 
0.0352588 -0.00925404 -0.0458969 
-0.00283887 -0.00176506 0.0358863 

-0.139367 -0.958764 5.65941 
0.00645394 0.260674 -3.41294 
-0.00314069 0.0332885 1.39152 

-0.0111133 -0.0041505 -0.10554 
-0.0116149 -0.0394499 0.352797 
-0.000863519 -0.00080691 0.0749092 

-0.245939 0.164172 -0.0662046 
-0.34991 0.193487 0.379812 
0.0235378 0.0703032 -0.0885062 

-0.0489066 0.0601533 0.000997886 
-0.0973155 0.0101568 -0.12034 
0.0226969 0.0159009 0.0961248 

-0.0041359 0.00332514 -0.00387408 
-0.0078946 0.00200472 -0.00139304 
-0.00107256 -0.000576602 0.000386536 

-0.910008 0.905829 2.84237 
-0.482278 1.30618 3.07123 
-0.00618422 0.100563 0.312019 

-0.234991 0.182675 -0.264438 
0.240011 0.238528 1.24152 
0.0527754 -0.0526446 0.271586 

-0.0121479 0.00322411 0.0445642 
-0.0345525 -0.0112922 -0.0472645 
0.000492068 -0.00222484 0.114687 

-0.0242615 -0.0250625 -0.048698 
0.0674055 -0.00172904 0.0696077 
-0.00295448 0.000583235 0.0321919 

-0.0291559 0.0805085 -0.403538 
-0.101398 0.0433926 -0.326486 
-0.00590497 -0.000822809 0.0102399 

-0.0113069 -0.0385353 0.0202214 
0.0376925 0.00272682 0.00531085 
0.000990456 4.86736e-05 0.0203796 

-0.024333 -0.0678237 -0.253786 
0.0596029 -0.00455271 0.482213 
-0.00180158 0.00306387 0.0751635 

-0.0366362 -0.0269576 -0.0238103 
0.0229392 0.00712149 -0.0117431 
0.00323279 0.00474269 0.0900905 

0.00284099 0.0015959 0.0651361 
0.0176452 0.00226673 -0.0442006 
0.00964696 0.0177067 0.0610459 

0.011303 -0.238596 -0.201374 
0.270432 0.0464634 0.0181256 
0.00270617 -0.00261503 0.0530598 

-0.0356409 -0.0213123 0.0344174 
0.0428682 0.0318448 0.0263917 
0.000584718 -0.00181068 0.0218559 

-0.713392 -1.04973 -1.00017 
0.310523 0.501412 0.751733 
-0.0301765 0.030175 0.0364786 

0.0364377 0.173228 0.0781382 
-0.157609 -0.00279458 -0.00957173 
-0.0314033 -0.0146318 -0.0228626 

0.0614816 0.103453 0.143653 
-0.00550722 -0.0280973 -0.087627 
0.0310305 -0.0547573 0.213965 

0.00993129 -0.00431133 0.00164592 
-0.00502394 -0.00248695 -0.0361689 
0.00334726 0.000796816 0.0013361 

-0.0553925 0.0244192 -4.43671 
-0.0559088 0.0718382 -1.51099 
-0.000925271 0.00319182 -0.0465606 

-0.0102065 0.0890429 0.0344857 
-0.111882 0.00030035 -0.00470934 
-0.00894788 -0.0111153 0.108379 

-0.0312695 -0.00626605 -1.72172 
-0.0106269 -1.55238e-05 0.953925 
0.000143356 -0.00129622 -0.193746 

-0.00163064 -0.0135972 -0.00177829 
0.0122532 -0.000190627 -0.000768777 
-0.00101839 -0.000223227 0.00466345 

-0.0547542 0.00782049 -0.0913892 
0.0135392 0.0173822 0.00572877 
0.0147091 0.0220925 0.102962 

0.0512291 -0.107565 -0.914691 
-0.18942 -0.0716105 -1.87062 
0.048012 -0.077847 -0.0265403 

-0.00843692 -0.0112267 -0.0384466 
-0.038282 -0.0164077 -0.10668 
-0.000860659 0.00113674 0.0168127 

0.000218027 0.00526421 -0.0780297 
-0.0414587 0.00592326 0.00353326 
-0.00107675 0.00057272 -0.00863727 

-0.022779 0.135382 0.023143 
-0.0489749 0.0152283 0.0443744 
-0.00969353 -0.00256298 0.0958732 

-0.0433544 -0.0097842 0.19326 
0.0352152 -0.0395935 -0.621958 
0.00393215 0.00951205 0.129575 

0.0142556 0.0174488 -0.00219158 
-0.0252218 -0.0171463 0.00798785 
0.0013725 -4.065e-05 0.00218026 

-0.00845784 0.0625255 0.104172 
0.0151325 -0.00188624 0.0894097 
0.00443517 -0.00731603 0.00111903 

-0.160516 0.0525461 -0.477459 
0.0912292 0.149509 -0.728042 
-0.00565988 0.0297928 0.315978 

-0.0077535 0.0257649 -0.222488 
-0.0300564 -0.00220915 0.364674 
-0.0103388 -0.0037118 -0.0719651 

-0.0632318 -0.0142672 -0.338888 
0.0682196 0.0364274 -0.368732 
-0.00172945 0.0236339 0.136557 

-0.100033 -0.0235087 -0.136489 
0.0421878 0.0228979 0.226905 
-0.00102011 0.0133385 0.17825 

0.0110166 -0.156322 -0.055252 
0.154342 0.0706514 -0.028985 
0.0478078 -0.0194692 0.222821 

-0.166368 -0.149402 -0.212026 
-0.217438 4.90739e-06 -0.98369 
0.0128095 0.00769987 0.0283689 

-0.666422 -0.372406 -0.138149 
0.140393 0.472146 0.547021 
0.0991941 -0.0239739 0.160558 

0.00348334 -0.000848494 -0.00980417 
0.00298517 0.00792322 -0.00189093 
0.00136761 0.000350521 -0.00757386 

-0.00887831 0.0296045 0.0360705 
-0.0180356 0.0048454 0.00369985 
-0.000491785 0.00048708 0.00735759 

-0.0745138 -0.0429336 -0.126893 
0.0296526 0.0396668 0.286047 
-0.0138089 0.00777578 0.0344774 

-0.015525 -0.0578333 -0.229586 
-0.0791408 0.100678 -0.0781683 
0.00398288 -0.0222879 -0.0154817 

-0.049964 -0.153053 -10.7296 
0.00438008 0.500854 9.34865 
-0.00101556 0.0117915 0.177176 

-0.0620489 -0.0306076 -0.479136 
0.0568066 0.047602 0.570841 
-0.00634022 0.00299306 0.0198016 

-0.125739 0.029558 0.0605384 
0.0256608 0.00639396 -0.193391 
-0.0613191 -0.0710909 0.151031 

-0.0059559 0.00356347 -0.468608 
0.0197523 -0.0121319 -0.311197 
-0.00110021 -0.00114329 0.122839 

-0.246761 0.236441 -0.435032 
-0.355929 0.389725 0.177466 
-0.0224292 -0.050023 0.138864 

0.014262 -0.00869274 0.108464 
0.00331771 -0.00418108 -0.00588233 
7.32287e-05 -0.000347605 -0.0154498 

-0.00272303 -0.0561904 0.117397 
0.0575648 0.00769547 -0.222023 
0.0311035 0.0460665 0.0920356 

-0.0332218 0.00964101 0.0357376 
-0.0229708 -0.0177024 0.0378501 
-0.0227769 0.0182549 0.0250419 

-0.098165 0.291868 0.266241 
-0.198543 0.128537 0.361726 
-0.0387705 -0.0479628 0.149134 

0.057046 -0.333689 0.478587 
0.386826 0.106215 -0.0910806 
0.0365229 -0.00593736 -0.288524 

-0.0591901 -0.0453403 -0.0504896 
-0.193548 0.0701062 0.196623 
-0.0119356 0.0121901 0.0632211 

-0.128619 -0.0442927 -0.021136 
-0.0804088 0.0982425 0.19074 
-0.0274427 -0.0139073 0.105667 

-0.0109122 0.018042 -0.0102439 
-0.0114526 0.00297253 -0.00416585 
-0.0223292 -0.00753256 0.325046 

-0.0157826 -0.0738995 0.0477356 
-0.0534524 0.00622189 0.544011 
0.00408071 0.0240063 -0.0689343 

-0.0320783 -0.00682966 2.67002 
0.0542542 -0.0143628 -1.17878 
-0.00319517 -0.000189986 0.932722 

-0.0672101 0.0496238 -0.788347 
0.0463947 0.00569289 1.15369 
-0.0215184 0.0319858 0.272849 

0.0331751 0.0460431 0.185033 
-0.0345171 -0.000992881 0.0245292 
0.000756427 -0.00182402 0.0249091 

-0.0138516 -0.0236378 0.0308109 
0.00710744 0.0023035 -0.0381411 
0.00276997 0.00933912 0.0545056 

-0.103355 -0.0533102 0.163184 
0.195119 0.126546 -0.000707793 
-0.019924 0.0122233 -0.00021379 

-0.0240438 -0.0165574 -0.0524644 
0.0105587 0.0187884 0.034128 
-0.00198774 6.9695e-05 0.029047 

-0.00282882 0.0719542 -0.0731952 
-0.130979 0.011627 -0.0331044 
-0.000978377 -0.000748919 0.00157031 

-0.436106 -0.729847 1.30575 
0.0635035 0.26661 -0.268302 
0.0929882 -0.040292 0.42295 

-0.644469 1.38968 -2.08845 
-0.0885352 0.269627 1.21739 
0.00422246 0.0203802 0.238718 

-0.007833 -0.0121675 0.021103 
0.0380204 0.0435765 -0.062703 
0.000265344 0.00495202 -0.0581283 

-0.396651 0.72227 1.55125 
0.247119 0.24112 1.1726 
-0.0756702 0.0494887 -0.243515 

-0.0516669 -0.043907 2.5988 
0.0760888 0.165938 -0.203496 
0.0140136 -0.0134035 -0.171794 

0.0690715 -0.0258143 -0.121819 
0.121468 -0.0362207 -0.255031 
0.0488618 -0.00474661 -0.150021 

-0.0199096 -0.0436748 -0.808157 
-0.0589367 0.0641998 0.169105 
-0.00730188 0.0801142 -0.182056 

-0.0291781 0.0794985 0.0673157 
-0.0694138 0.00949646 -0.0222281 
-0.00208359 0.00209504 0.038081 

-0.00656876 -0.0374441 0.00699305 
0.0415943 0.000593811 0.00491333 
-0.000638416 -0.000764579 0.0101403 

-0.101145 0.0565473 0.574851 
-0.105535 0.124963 13.8265 
0.000476167 0.00202684 0.0468118 

-0.0487543 0.0426873 0.0615028 
-0.0563978 0.0374511 -0.0177447 
-0.0315854 0.000594618 0.066132 

-0.0107739 -0.299173 0.229674 
0.329833 0.139662 -0.0638124 
-0.011864 0.00872813 0.0983191 

-0.0240864 -0.00918877 -0.0359405 
0.0192476 0.00633995 0.126381 
0.00728162 0.00885976 0.00258958 

-0.0141403 0.0163421 -0.0423761 
-0.0435537 0.00495068 -0.0998108 
-0.000430919 0.000227323 0.0189319 

0.00524316 0.0351481 0.0191199 
-0.0418774 -0.00101948 -0.049112 
-0.000206369 0.00103056 0.00669166 

0.00832189 0.00217516 -0.00540074 
0.00125503 0.00353668 -0.0207268 
-0.00187962 0.00186306 -0.00920729 

-0.0123543 -0.00453145 0.101144 
0.00994769 0.00622092 -0.0972174 
-0.00245562 -0.000489498 -0.00565437 

-0.171224 0.559794 -1.05374 
-0.0569666 0.205089 -0.53447 
0.063414 0.0496957 -0.42159 

0.00534979 0.212908 0.411884 
-0.17469 0.0563454 -0.534574 
-0.0202843 -0.0380143 0.176371 

-0.0638523 -0.0386187 9.90215 
0.0101205 0.0396208 -2.11792 
-0.00686738 0.00368776 -0.423123 

-0.1097 0.0222867 -0.73171 
-0.165169 0.158274 -0.0620623 
-0.0449002 -0.038639 0.250033 

-0.00599786 -0.000947544 -0.0736407 
0.0119246 -0.000467245 -0.40988 
-0.00182621 0.001264 0.033795 

-0.0144212 0.00568626 0.416232 
-0.0256532 0.0101634 0.782945 
-0.00668863 0.00185213 0.197317 

-0.0227319 -0.00424288 -0.0449578 
0.0403612 0.00240248 0.0924284 
0.00400415 0.000421194 0.0279436 

-0.0917989 0.0952222 -0.991665 
0.190348 0.0312211 0.118175 
0.000506143 -0.0172694 0.279239 

-0.0729679 -0.295863 -0.201489 
-0.0932794 0.133386 0.309043 
0.00792743 0.000529149 -0.016298 

-0.0211395 0.0117397 0.578304 
0.0156424 0.00591046 -0.62029 
-0.00624173 -0.0130313 -0.206449 

0.00155273 0.0763777 -0.450304 
-0.0659052 0.00544389 -1.04423 
0.00117368 0.0167639 1.62005 

-0.0222728 0.0248731 -0.0536589 
-0.0333279 0.0187207 0.157272 
0.00373586 0.00312508 0.099487 

-0.0367764 0.0166188 -4.63386 
-0.0569875 0.0143112 -2.6673 
-0.00729332 -0.000829317 -0.064522 

-0.0157466 -0.0117154 -0.0263831 
0.00833662 0.0302394 -0.0302885 
-0.00174036 -0.0126418 0.0496232 

0.0288349 0.051826 0.0135488 
0.080045 -0.0252523 -0.0444922 
-0.00623754 0.00347294 0.0142021 

-0.167155 0.328241 -48.4051 
-0.0649274 0.245705 -4.55253 
5.72173e-05 0.00101372 -0.0693458 

0.00215887 0.00538444 -0.264322 
-0.0239728 0.000624222 0.11906 
0.00141417 -0.00143515 0.113899 

0.00130622 -0.00217344 0.0111536 
-0.000673771 0.00511149 -0.0195715 
-4.06075e-05 8.8948e-06 -0.00593986 

0.00377012 0.0198023 0.0116762 
0.00666545 0.00937845 0.0288065 
-0.00268077 0.00585979 -0.0573578 

0.000435106 -0.00723554 -0.00691748 
0.0103067 -0.00151923 0.00424686 
-0.00015728 4.73806e-05 0.00514369 

-0.00537988 0.0153664 -0.321166 
-0.0432098 0.0115853 -1.62837 
0.00138088 4.30131e-06 0.262536 

-0.00404989 -0.00252852 0.000454714 
-0.00356854 -0.00976709 -0.0113099 
0.000352155 0.000319935 0.0170325 

-0.0146636 -0.0159281 -0.0389704 
-0.000984402 0.00208923 -0.01482 
-0.000675948 -0.00339697 0.0585189 

-0.011431 0.0614764 -0.1265 
-0.0435978 -0.00116907 0.197243 
0.0306363 -0.0361014 0.288175 

-0.0682359 0.0998382 -0.151539 
0.0963537 0.0238787 0.245708 
0.0018254 0.016423 0.0089229 

0.0124412 0.0106592 -0.153995 
-0.0651549 0.0075437 0.0275077 
-0.00159406 0.000469583 -0.0218379 

-0.124086 0.0581403 0.452636 
-0.422061 0.178827 1.06904 
-0.0215912 0.0559389 0.419378 

-0.228159 0.756544 0.614899 
-0.198964 0.204216 0.474468 
0.00292826 -0.0350318 -0.177478 

-0.0148836 0.0581447 -0.292443 
-0.136557 0.0151201 -0.348685 
-0.0269002 0.0467387 0.170072 

-0.0103223 0.00237583 0.00536459 
-0.00197253 -0.0122335 -0.00658507 
-0.00132238 -0.000642638 0.0432286 

-0.166738 -0.0308543 11.0583 
0.199536 0.0666505 3.21625 
0.00218523 0.00433271 0.191995 

-0.0317031 -0.0158499 -0.016051 
0.0093183 0.00553943 0.000463736 
0.000196519 -0.00304515 0.0178067 

0.018586 0.0971661 -0.516339 
-0.00474368 0.035089 -0.000479086 
0.00464096 0.00955357 0.0359834 

-0.089986 -0.0936063 0.294644 
-0.0288547 0.0933025 0.415679 
-0.0118821 -0.00940835 0.0874478 

-0.262838 -0.0385299 -0.596328 
0.283363 0.225188 1.75256 
0.040709 0.0204189 0.235147 

-0.00962492 0.00272536 -0.163815 
-0.00203163 0.00412303 -0.0940823 
0.000162935 0.00047469 0.115256 

-0.0639369 -0.149368 0.100946 
0.0651387 0.119116 -0.264783 
-0.00225988 0.026382 0.121795 

0.016331 0.0101715 -0.0853499 
0.0129584 0.00518988 -0.00139396 
-0.00623098 0.000248152 -0.0148552 

-0.119212 0.00818199 -0.262522 
-0.0899498 0.0223827 0.046035 
0.143435 0.0305772 0.372099 

0.020366 0.007563 0.0212046 
-0.0276769 0.00467094 0.0359598 
0.000547778 0.000993632 -0.0279969 

0.00558146 0.0124344 -0.0824151 
-0.038723 -0.0180633 -0.0947402 
-0.00258744 0.000880237 0.0125106 

-0.0155194 0.0437826 -0.0513812 
-0.0365233 0.0253782 -0.0419785 
-0.00146396 0.000760048 0.00248705 

0.00393843 -0.0238673 -0.0343214 
-0.00741674 0.0133721 0.0260576 
0.00113207 -0.000621889 -0.019836 

-0.197566 -0.0975675 0.203749 
-0.0373006 0.193586 0.458496 
0.00719806 0.0604794 0.232298 

-0.278315 -0.029401 -0.00792198 
0.262171 0.197523 -0.333887 
0.0390161 -0.00380471 0.107333 

-0.0217254 0.243132 -0.833859 
-0.113173 0.097585 -0.404831 
-0.000301038 -0.00485833 0.0103989 

0.0116053 0.00397151 -0.0971954 
-0.0892187 0.0122733 0.206605 
-0.000686417 0.000463238 -0.0404395 

-0.122986 -0.00869558 -1.94152 
0.17754 0.31696 -0.486976 
0.00912888 -0.0138382 0.223277 

-0.369488 0.42844 0.871815 
-0.489184 0.497155 0.617918 
-0.0177675 0.0607702 -0.0156709 

0.0394982 -0.360481 0.244807 
0.431213 0.103527 0.0170626 
-0.00543619 0.00464239 -0.0490642 

-0.594231 0.141095 0.00658468 
-0.352438 0.33566 0.0423637 
-0.0425932 -0.0380528 0.296711 

-0.0194545 0.0681036 -0.508565 
-0.0107941 -0.0209011 0.174418 
0.0274733 0.0176409 0.0228184 

0.00487471 0.0387464 -0.0844169 
-0.0498643 0.0016007 -0.0059378 
-0.000492845 0.000840055 -0.0136658 

-0.106346 -0.115378 0.0856499 
-0.0340994 0.117936 0.932423 
-0.0123386 -0.00767163 0.076605 

-0.0210286 0.0102837 -0.0165532 
-0.0157529 0.0257958 -0.132078 
0.00506056 0.00199313 0.00131477 

-0.130324 -0.839804 -1.25364 
-0.0225482 0.144143 0.299494 