# vtk DataFile Version 3.0
Output file generated by Yade's KinematicLocalisationAnalyser
ASCII
DATASET UNSTRUCTURED_GRID

POINTS 13483 float
658.713 27.2094 -0.467414
866.446 44.1349 -0.464056
129.366 6.00173 -0.449958
915.014 4.3166 0.384258
536.099 7.59627 -0.300593
337.238 34.44 0.276634
168.208 6.78185 0.414263
614.755 9.97457 0.139919
532.862 22.2456 0.144416
800.055 12.0432 -0.370753
225.903 8.85343 -0.109625
275.451 6.27675 -0.268195
713.058 27.4674 -0.191992
689.239 13.7842 0.0734006
147.381 16.8738 0.416756
237.638 34.0816 0.399945
233.515 12.8079 -0.275157
309.444 9.41677 0.386867
365.033 32.1731 -0.0828642
564.145 8.51678 0.34744
440.455 36.1825 0.096553
640.265 42.8524 0.262987
910.652 29.6247 -0.478679
770.143 40.7694 -0.440146
492.43 15.9489 0.295759
258.114 43.6668 -0.122567
527.88 26.935 -0.489811
633.937 18.8697 0.220817
48.5059 15.3692 -0.460392
794.655 30.2184 -0.246175
517.789 4.88109 0.318453
18.0273 22.8229 0.27575
881.177 40.3892 0.245532
531.698 2.46373 0.4878
84.0321 43.5324 0.100233
560.788 29.5767 0.326233
570.956 16.4687 -0.406611
368.624 22.16 -0.176958
574.334 25.0662 -0.320903
376.054 32.5431 -0.408341
258.496 14.5582 0.308491
465.921 34.9401 -0.0563414
743.874 6.85064 0.0938027
207.249 6.14863 0.378793
59.6055 6.86529 -0.122788
73.5433 8.82249 -0.274475
762.5 8.40166 -0.446897
25.388 11.5676 -0.280689
662.939 43.0666 0.268956
745.441 22.5405 0.339091
185.602 31.8523 -0.291182
860.559 32.3936 -0.13644
37.6959 27.7773 -0.114252
575.079 2.94079 0.323388
152.974 7.27638 -0.453251
642.848 32.6043 0.390259
542.105 25.9913 -0.144658
187.9 0.923213 -0.258533
35.2256 2.38779 0.302603
373.875 17.4801 0.284053
675.44 43.6984 -0.132045
496.406 33.0045 0.1796
428.498 1.02996 0.188074
775.336 7.57563 -0.318933
28.4852 42.3499 -0.234888
275.006 30.1298 -0.304822
800.13 7.41538 0.187577
736.63 42.6005 0.363905
448.237 8.53815 -0.475397
615.617 3.47887 -0.344998
835.742 28.1881 0.43272
140.855 7.52535 0.282199
535.795 25.1232 -0.135395
513.235 14.7028 -0.133854
316.132 16.482 -0.279254
22.4877 13.4951 -0.257311
888.334 31.0191 0.368652
357.006 38.2426 -0.274345
742.461 19.3784 0.313442
762.389 12.3974 0.219808
898.494 10.7327 -0.215941
500.041 33.9603 -0.170089
99.4655 37.4972 -0.261026
755.884 32.5402 0.214635
709.408 36.8239 -0.101325
919.169 35.7159 0.120104
890.995 0.812301 -0.473929
312.66 28.4639 0.439122
677.316 6.27766 -0.106193
26.2276 5.16885 -0.454447
142.982 37.4119 -0.15095
552.515 14.1508 0.19691
878.37 23.3336 -0.515928
210.474 28.2428 0.226582
47.871 33.8293 0.270945
530.555 1.1594 0.115265
253.623 8.86123 -0.349815
838.991 36.9835 -0.282215
865.008 24.7322 0.251287
388.593 20.3723 -0.251021
176.867 26.43 -0.463232
594.498 37.2667 0.425632
408.916 15.1257 -0.440765
445.008 29.2315 0.113345
407.063 4.44753 0.40776
592.32 10.8086 -0.0899337
919.588 11.1723 0.211314
86.4591 38.4625 0.389072
360.923 4.75263 -0.176096
607.845 9.33507 -0.328107
387.605 42.8953 0.440722
27.9777 24.2875 -0.448621
32.8646 5.75364 -0.328852
616.747 31.5187 -0.391025
545.267 23.6368 0.147309
28.4934 36.4789 0.410367
100.53 29.9181 -0.215337
350.163 15.6976 -0.30321
653.546 18.2828 0.121234
512.926 37.2271 0.309613
820.279 7.56265 -0.343532
810.943 6.18688 -0.197775
417.15 36.6756 0.0960489
696.138 24.4895 -0.102692
257.12 16.8383 0.478556
355.848 3.6764 0.46305
111.94 30.7362 0.339374
125.854 23.7664 -0.263615
589.482 37.8095 0.0768507
330.029 18.6237 0.462428
789.096 33.1991 -0.101777
741.214 41.9177 -0.114787
519.369 20.2684 -0.382882
869.343 8.56745 0.343034
463.216 22.8928 0.217657
298.738 23.9361 0.304401
743.816 29.4063 -0.186257
301.034 27.8709 0.367137
627.178 11.4476 -0.19054
358.167 34.9402 0.189322
546.418 11.31 0.443398
396.253 30.6924 -0.0851887
465.589 16.3569 -0.106106
343.653 41.1759 0.322211
206.37 29.1981 0.121984
872.212 41.8248 0.166273
915.459 11.7372 -0.336202
6.49159 11.9543 -0.470583
469.784 21.9766 -0.409701
41.5037 22.2223 0.0746989
406.944 30.6381 -0.45551
427.183 24.4354 -0.245763
81.0729 11.7873 0.445154
56.1584 32.681 -0.358779
244.578 13.1695 0.43245
676.977 37.214 0.347259
630.185 19.7343 -0.467344
81.2874 20.5647 0.48497
773.461 44.2367 0.408939
854.44 2.42504 0.412848
728.369 38.9878 -0.446649
770.315 2.33319 0.37987
599.072 25.9699 0.394485
641.747 43.6525 -0.434306
556.603 17.6511 -0.393105
912.305 3.10612 0.364267
242.32 24.342 0.113387
138.456 34.3555 0.189777
267.902 6.49156 -0.364847
102.618 4.08064 0.250314
69.675 9.98547 0.184205
298.881 35.2607 0.299345
18.2244 24.649 -0.355464
605.432 18.8963 -0.395525
662.879 37.9767 0.205358
502.119 20.8127 -0.368177
902.088 37.103 0.386316
441.031 8.46098 0.0834877
472.888 35.1719 -0.36093
584.057 3.42929 -0.181171
24.9808 23.6743 0.385037
630.09 4.28781 -0.362636
594.542 4.33215 -0.285048
224.047 11.3409 0.481908
461.425 16.2144 -0.19061
337.678 6.30877 0.318909
420.96 18.7885 -0.312913
824.975 40.2129 0.116287
208.733 25.2701 0.405261
882.536 6.9123 -0.300787
823.96 36.432 0.343742
416.001 10.053 -0.18461
796.813 2.39537 -0.400379
662.872 24.5812 0.39002
828.973 17.6863 -0.408147
467.814 41.8187 -0.266281
540.198 12.314 0.334106
505.69 43.3455 -0.220255
484.07 8.56821 0.131009
732.062 37.9153 -0.274114
729.685 34.4803 0.34406
208.912 38.3245 -0.332724
896.28 10.6356 -0.140788
644.14 43.963 0.241686
12.249 16.8171 0.177831
442.317 24.9884 0.353166
203.592 22.6517 0.391173
101.161 38.3625 0.194357
876.016 20.8419 0.433681
724.994 42.7128 0.231669
346.47 25.0788 0.360577
580.71 10.1158 0.32267
89.4422 43.4421 -0.160993
268.996 25.6782 -0.473269
608.499 22.9077 0.348258
529.333 18.1174 0.434754
285.458 0.889404 -0.342516
604.414 38.9002 -0.364004
582.427 39.995 -0.445986
524.733 32.4814 0.379904
543.453 0.775646 -0.487709
781.901 17.9068 -0.326221
195.535 11.7617 -0.167297
545.163 35.4505 0.441341
617.737 38.6045 0.113846
79.0859 0.946025 0.274238
273.541 4.68714 0.16896
914.717 13.6246 0.206795
898.85 12.7153 -0.386512
922.035 15.4697 -0.614064
329.736 8.46636 -0.231109
836.491 21.4086 0.396664
442.701 40.569 -0.33188
488.423 0.813268 -0.398692
716.203 34.0335 0.517319
29.6327 30.1773 0.303466
359.284 40.6231 0.462435
274.434 2.82814 0.307633
884.383 37.5015 -0.245212
793.581 45.2463 0.22656
312.315 10.7658 0.191496
736.655 27.876 0.0908437
609.505 2.64907 0.263627
592.22 6.389 0.413684
105.512 17.7987 -0.458986
329.6 1.03623 -0.221586
373.42 2.25642 -0.367119
15.2118 7.63119 -0.248258
4.7325 30.1994 0.245737
176.411 18.6601 -0.370394
74.2626 40.9438 -0.211113
72.7921 28.2396 -0.328202
460.96 14.401 -0.393837
399.351 34.3465 -0.459279
858.386 34.302 0.128781
21.3411 3.95849 0.281564
76.7546 6.80415 0.129048
688.155 36.5913 -0.146373
320.642 0.931403 0.318949
397.005 15.7941 -0.0933174
256.467 4.60777 -0.377974
721.255 20.8425 0.16889
491.77 8.27638 0.403834
839.727 19.3224 -0.345153
695.372 27.8703 0.314599
741.645 17.429 0.0978549
457.345 26.0472 0.466251
111.17 43.8304 0.304248
593.452 41.0876 0.0704511
826.101 13.2112 -0.161585
258.843 29.8381 -0.250485
35.2336 16.8517 0.149234
366.022 13.5498 0.487122
117.544 39.5178 -0.464622
291.372 41.5913 -0.193259
463.194 1.07967 0.164625
885.255 27.6003 -0.409937
762.492 0.803793 -0.479756
361.545 3.07285 0.475047
326.459 26.1593 0.134699
504.437 40.2261 0.204779
88.7793 8.00555 -0.445968
215.774 44.3803 0.377724
867.754 27.1137 0.379152
540.011 38.1552 -0.0825292
218.049 40.8702 -0.250305
175.44 41.4543 -0.13052
922.154 31.764 -0.517039
917.875 11.0975 -0.524863
666.435 3.55139 -0.490151
207.33 24.0777 -0.096264
601.145 26.9399 0.11045
603.184 26.6495 -0.258961
445.801 5.5609 -0.136511
525.279 0.931832 -0.277349
856.167 36.2145 -0.499666
92.7878 30.2663 0.218392
727.262 17.8324 0.417377
298.844 15.3765 -0.333077
10.8184 2.31131 0.338421
136.956 36.1202 0.191793
73.154 22.5635 0.445532
781.646 35.0539 0.302395
890.645 42.2692 0.169541
202.509 27.7233 0.178075
910.126 11.5144 -0.297565
49.1304 35.7631 -0.255744
99.3479 28.3124 -0.159792
699.79 12.7103 0.441242
450.536 18 -0.476012
567.558 16.4126 0.116455
259.447 27.9216 0.14043
684.881 4.46667 -0.406067
922.49 10.6854 0.354192
32.6505 31.196 -0.273271
294.267 7.68967 0.184797
242.26 14.902 0.257542
1.10887 34.7315 0.146458
245.67 14.3538 0.365194
230.921 10.9169 0.107077
233.826 25.9571 -0.281464
145.249 27.3246 -0.145903
599.331 14.7843 -0.333724
182.65 13.9951 0.328267
878.625 39.005 -0.0620453
190.12 3.78286 0.475819
51.7689 37.0771 0.351924
832.234 46.027 -0.426338
306.111 31.1115 -0.382984
752.051 22.2447 0.432592
896.254 27.8211 -0.490747
327.766 9.10542 0.0999369
821.929 28.4155 -0.328003
358.253 2.62489 -0.358516
453.682 23.604 -0.364265
748.356 15.8087 -0.416071
115.465 11.6395 -0.416233
527.014 3.9589 -0.459895
843.607 17.0949 -0.208621
96.4925 7.62472 -0.18664
306.941 14.4752 0.197498
461.772 11.5698 -0.18971
910.601 2.72699 0.407651
433.763 1.87611 -0.478684
193.327 38.1408 -0.281408
829.02 10.2745 -0.315564
140.308 35.4605 0.185744
286.684 30.9363 -0.393501
436.719 21.3728 0.214999
629.763 13.1764 -0.321844
422.226 9.73707 -0.442339
498.176 27.2078 -0.31573
867.685 43.8257 0.368867
51.99 10.81 -0.107766
326.233 37.863 -0.254915
413.958 26.6198 0.345071
446.517 20.6783 0.254586
570.228 43.4945 0.356514
848.593 34.4008 0.25511
735.737 33.6043 -0.363596
246.251 33.5731 -0.388319
15.2408 30.7171 0.156944
727.922 35.3893 -0.131957
556.458 40.1815 0.427347
250.543 38.4886 -0.0934509
759.994 29.6753 -0.126402
165.355 9.11748 0.200964
399.915 20.8342 0.299215
506.269 41.2582 0.0991391
451.729 19.2613 0.200099
862.92 46.1265 -0.290955
464.669 3.35758 0.4133
54.5557 24.7471 -0.288174
513.368 30.9545 0.342262
474.613 41.1945 0.358077
881.964 33.1857 -0.234254
818.95 27.5017 -0.240741
592.608 18.1306 -0.175784
872.211 34.9316 0.253988
319.71 2.04517 -0.427472
412.66 28.9896 0.468202
31.7859 38.2127 -0.291685
825.151 29.046 0.150714
671.803 19.3844 -0.479186
505.614 0.776217 -0.484575
138.259 4.4367 0.285403
465.894 39.2454 -0.111495
13.3773 0.903415 -0.317343
909.574 5.43377 0.196723
403.906 38.458 -0.395848
[...]
POINT_DATA 13483
TENSORS Strain_matrix float
-0.0448647 -0.0212715 -0.0171683 
0.0105538 0.0218615 -0.564287 
-0.00958502 0.0132301 0.0784322 

-0.0632593 -0.0928533 3.05199 
0.0345597 0.110852 -6.13563 
0.00435528 0.00911534 -0.474488 

-0.0401212 0.00648936 -0.199266 
-0.00698916 0.0229581 -0.311259 
-0.00100886 0.000913368 0.0998916 

-0.18711 -0.0269378 0.340474 
-0.0507944 0.0819929 0.723476 
-0.00186478 0.013126 0.222017 

-0.0640453 -0.0186053 0.0630694 
-0.0370198 0.0262484 0.0166724 
0.0463438 -0.0382857 0.239711 

-0.0307608 -0.0144136 0.0196916 
-0.0276237 0.0126451 0.00337247 
-0.0314141 0.0204205 0.0986409 

-0.0359792 -0.00753543 0.00944975 
-0.00142392 0.0109336 -0.032436 
0.000324889 0.000691845 0.047513 

-0.025102 0.00552458 -0.00586585 
0.0150305 0.00267632 0.0240391 
-0.000387698 -0.0012301 0.0406993 

-0.047358 -0.0197232 -0.190353 
0.00555846 0.0159439 -0.0574154 
3.29632e-05 -0.000771394 0.013703 

-0.0385599 0.0140867 -0.00724003 
0.0129563 0.002492 0.0137946 
9.95498e-05 0.00013841 0.0467498 

-0.0259899 0.00900015 -0.0439146 
0.00707956 0.00291264 0.0395432 
-0.0121819 0.0110183 0.0830274 

-0.0219811 -0.000744389 0.0261228 
0.0014214 0.00594195 0.0170178 
-9.72513e-05 -0.000117303 -7.81821e-05 

-0.102758 -0.00981688 -0.266305 
-0.0389252 0.0614885 -0.315747 
0.0246656 -0.0252828 0.950328 

-0.0247453 -0.0148512 0.0112765 
0.0129683 0.00867513 0.0197117 
-0.00087672 0.00134175 0.0150798 

-0.0230233 0.0120499 -0.00841458 
-0.0116803 0.00758055 0.0886881 
-0.000484571 0.000351085 0.0351302 

-0.0308792 0.00120012 0.0940669 
-0.0179057 0.0126005 0.0384459 
-0.00960373 -0.00312623 -0.0683863 

-0.0470338 0.00549975 0.0521649 
-0.00466255 0.0158932 0.0408952 
0.0267252 -0.00438796 0.195333 

-0.0364668 -0.0163536 0.00460603 
0.00285553 0.0148468 -0.0205726 
0.0441904 0.0039963 0.00259052 

-0.0625207 -0.00102338 -0.14685 
-0.0102087 0.0372208 0.0811668 
0.107359 0.0403141 0.283968 

-0.0341799 0.00874803 0.0375825 
0.0022744 -0.001869 0.0938718 
-0.00696401 -0.0128944 0.00893316 

-0.0286881 0.00616658 -0.0589592 
0.00488081 0.0139113 -0.018296 
0.00447706 -0.0043023 0.049377 

-0.0599789 0.0132062 -0.117712 
0.00505663 0.0269244 0.0248357 
0.0247083 -0.0560851 0.265597 

-0.155902 0.0465603 0.306381 
0.14573 0.148437 0.849704 
0.00976678 -0.0502907 -0.244543 

-0.0316925 0.00860924 -0.13809 
-0.0106413 0.0250363 0.361502 
-0.00541211 -0.0281123 -0.0631205 

-0.0178446 -0.00376952 -0.0788528 
-0.00281692 0.0103005 -0.0385855 
-0.00869603 -0.00559228 0.110532 

-0.0379013 0.0116766 0.146355 
-0.012956 0.0382419 -0.108725 
-0.0309634 0.0234965 0.0809002 

-0.0363985 -0.00576279 0.322115 
0.00699546 0.0181286 1.3814 
-0.00153036 -0.00314621 -0.191185 

-0.074644 -0.00586275 0.0555906 
0.0353872 0.0336364 -0.21717 
-0.0187002 -0.0116372 0.137144 

-0.0279407 -0.0102608 -0.587803 
-0.00261542 0.0188916 0.332521 
-0.00186618 0.00194708 0.143934 

-0.0333161 0.00963532 -0.10594 
-0.00469053 0.0128101 0.0114975 
-0.0491365 0.0067188 0.300187 

-0.0273145 0.010904 -0.00705372 
-0.00399001 0.00842827 -0.0565915 
-0.000471349 0.000845514 0.029274 

-0.0927261 -0.0189669 0.116273 
0.0356332 0.0478143 0.147778 
-0.0021954 0.000174567 0.0250711 

-0.115188 -0.0308433 0.272705 
-0.0317007 0.0543107 0.50076 
-0.0173838 -0.05134 0.133439 

-0.0681467 0.0230099 -0.334909 
0.0056507 0.0362657 -0.532806 
-0.000698479 -0.00465886 0.129037 

0.0208497 -0.0379548 -0.0918901 
-0.026061 -0.0461421 -0.191923 
-0.0253166 0.059101 0.202993 

-0.0386512 -0.0131327 -0.181244 
0.0165636 0.0316112 0.459756 
0.00330268 0.0470025 0.388114 

-0.0335253 -0.00434912 -0.108617 
0.0142545 0.0072282 -0.0260361 
0.00187872 3.97912e-05 0.0312259 

-0.034723 -0.0179857 -0.0662317 
0.00462929 0.0807816 0.196408 
-0.00319564 -0.00308216 0.0353001 

-0.0324781 -0.0106204 0.0470941 
0.0309649 0.0188658 -0.00282904 
-0.000579764 -0.000504438 0.019813 

-0.0286691 -0.0206065 -0.0577632 
2.4808e-05 0.0190153 -0.00731109 
0.00915312 -0.00663183 0.514575 

-0.0345237 0.00816011 0.0289398 
0.00106661 0.00381811 -0.00306954 
-0.00942867 -0.0215081 0.0618065 

-0.0157717 0.0089668 0.178963 
-0.0261596 0.00844772 0.00497609 
0.0364103 0.0339655 0.162235 

-0.0878291 0.0165391 0.00151546 
-0.0353884 0.0228645 0.0442685 
0.00771134 0.0738176 0.509237 

-0.01591 0.000245544 -0.0965329 
-0.0024603 0.00985369 0.0155678 
0.00507616 -0.000381145 -0.0528892 

-0.0308893 0.00967902 -0.015147 
-0.0160183 0.00603554 0.0104312 
-0.00128822 -8.06369e-05 0.0132378 

-0.0332061 0.0146735 0.0303131 
-0.0219701 0.0234138 -0.0751014 
0.000119121 -0.000432916 -0.000178952 

-0.0691465 0.0104829 -0.232762 
-0.026423 0.036748 -0.136299 
-0.0087659 0.0151971 0.0980362 

-0.0211719 0.000993631 -0.0174157 
0.00147893 0.0125545 0.00023753 
-0.000632924 0.00184434 0.00391103 

-0.0557253 0.0074561 -0.158226 
0.0161196 0.0513325 0.0288593 
-0.0653096 -0.123548 1.04761 

-0.0314734 0.0130757 0.208673 
-0.0242512 0.00920474 -0.154349 
0.00161995 0.000104706 0.0556591 

-0.0229727 -0.0159784 0.0433228 
0.0095168 0.0236372 -0.211457 
0.00202042 0.00150382 0.0569387 

-0.0492614 -0.0011168 -0.0495388 
0.0125229 0.0037796 -0.04411 
-0.000204596 -0.00316629 0.0791847 

-0.0581629 -0.00376174 0.0868437 
-0.0214646 0.027844 -0.020693 
-0.00552152 0.0147978 0.0640688 

-0.0422583 0.00563077 0.0516704 
-0.00899077 0.00625393 0.0745053 
-0.000111704 0.000563647 0.0440138 

-0.031626 0.00349722 -0.164395 
-0.00153852 0.00600059 0.135821 
-0.00462241 0.00118621 0.0191538 

-0.0393305 0.00463038 -0.0122915 
-0.0183355 0.0118745 0.00576377 
-0.00369406 -0.00235804 0.104018 

-0.0533716 0.0271999 -0.028638 
0.0224966 0.0471872 0.200481 
0.000245276 0.00177304 0.0261592 

-0.0409619 -0.000965865 -0.0919884 
0.00210431 0.0376769 0.0365607 
0.0081204 0.0866493 0.111723 

-0.0163661 -0.0047255 0.0264915 
-0.00559578 0.000987471 -0.00904994 
-0.000869257 -0.00124278 0.0235549 

-0.0369049 -0.0192826 -0.18544 
-0.0106471 0.0179867 -0.0378917 
0.00836695 -0.000462882 0.186819 

-0.0211625 -0.0124491 0.0527337 
0.0128443 0.0301005 -0.0399196 
-0.00071241 0.00263584 0.025606 

-0.0362648 -0.0141383 0.155074 
-0.0125223 0.0116104 0.160769 
-0.00318256 -0.0038746 0.0133239 

-0.032518 -0.0307084 -0.111004 
-0.00135522 -0.0100331 -0.0436676 
0.00171112 0.0358744 0.0774114 

-0.0356437 -0.00274033 0.0235016 
0.0153476 0.00818846 -0.133273 
-0.0014975 0.00302155 0.0777251 

-0.0439272 -0.0206146 -0.164779 
-0.00596929 0.0139523 -0.0683688 
0.00112851 -0.00180186 0.0278088 

-0.0489885 0.0317952 -0.0359543 
-0.0076761 0.0375572 -0.00822497 
0.00179938 -0.00142483 0.0348733 

-0.0293139 0.0183186 0.0253914 
-0.0180529 0.00404914 0.0224393 
-0.0039497 -0.00129143 0.0382308 

-0.0658373 0.0036083 -0.0535231 
-0.00554361 0.0402721 0.173505 
0.00255674 -0.0229662 -0.0998608 

-0.0365551 -0.00811852 -0.0636917 
-0.00458195 0.00829748 0.0298785 
-3.59552e-06 0.000391571 0.0570649 

-0.0506121 0.0114667 0.0157488 
-0.0130314 0.00915203 0.0188206 
-0.000581368 -0.00202942 0.061284 

-0.0740106 -0.00948582 0.241885 
-0.0563326 -0.00916933 -0.324971 
0.000484056 0.00293511 0.0611458 

-0.0173543 -0.0104379 -0.0201535 
0.00141245 0.00765994 -0.00837732 
0.00607354 -0.00170933 0.0585537 

-0.025226 -0.0121065 -0.228379 
0.0323253 0.0388403 -0.05363 
0.0588499 -0.0147405 0.314082 

-0.0302937 -0.0154002 0.0971614 
0.00253782 0.00443324 -0.0562048 
-0.000516594 -0.000999282 0.0537757 

-0.0361489 0.00775184 -0.0748473 
0.00700084 0.0177561 -0.0195235 
0.00622717 -0.0712013 0.928752 

-0.0240638 0.00696456 0.0101919 
-0.00396816 0.0141606 -0.0165123 
0.0026 0.000829177 0.0027821 

-0.0323962 -0.0969448 -0.968593 
0.123365 0.0216742 -0.503388 
-0.00518528 -0.00353252 -0.109096 

-0.0281229 0.0260309 -0.376932 
-0.00836695 0.0145835 0.000785672 
0.0190301 -0.0102941 -0.0893977 

-0.0424578 -0.0380138 0.282261 
0.0395515 0.0100572 -0.20242 
0.000709688 -0.00492273 -0.00934801 

-0.0421762 0.0232653 0.0972475 
-0.0196301 0.000282845 0.0237906 
-0.0095323 0.0295788 0.194014 

-0.0776024 0.00934961 0.0691803 
-0.0130071 0.00277688 -0.00474071 
-0.00212005 0.00151344 0.116491 

-0.019768 -0.017068 -0.0530916 
0.0181925 0.00193683 0.0415268 
0.00135179 0.00139522 0.0257387 

-0.0192701 0.0122952 -0.126772 
-0.00767998 0.00792604 -0.0303449 
0.00705003 -0.000683332 -0.0129971 

-0.0102806 0.0039481 -0.0346844 
-0.00560941 0.00760588 -0.0358033 
0.0501326 0.014556 0.0221593 

-0.0568832 0.0581919 0.171378 
-0.0669928 0.0166991 0.232219 
-0.0246685 -0.00707487 0.234588 

-0.0617827 -0.0115265 0.0471246 
0.00701823 0.02505 0.0624093 
-0.00317905 0.00334586 0.0758817 

-0.118146 0.347762 0.689741 
-0.00180959 0.113772 -0.270994 
0.00162152 -0.0660258 0.190337 

-0.0357869 -0.00312404 0.0388388 
0.0123836 -0.00615692 -0.124935 
0.000531841 0.00566134 0.277969 

-0.062972 0.011009 -0.0680685 
0.00985154 0.038382 -0.0174064 
-0.0338316 0.0524818 0.234495 

-0.0340057 0.0189561 0.186103 
-0.000214459 0.0107196 0.186329 
0.000765855 -0.00850994 -0.0203276 

-0.00410458 -0.00214799 0.000936276 
-0.00106389 0.001436 0.0276966 
-0.00272231 -0.00449353 -0.0364051 

-0.0373775 0.0137244 0.0190818 
-0.00145744 0.00677147 -0.00594755 
0.00110775 -0.000550202 0.0360671 

-0.0572562 0.0401983 -0.642503 
-0.00996963 -0.00596372 0.990552 
-0.00527995 0.00432152 0.193763 

-0.051728 -0.0277585 0.0198272 
0.0132592 0.0260302 0.0706732 
0.0290366 -0.00882598 0.154523 

-0.0321917 0.0239161 0.0292118 
-0.0108881 0.0137546 0.22645 
-0.0107653 -0.00290648 0.130744 

-0.053069 0.0437558 -0.0601442 
0.00578854 0.0337488 -0.0216489 
0.000611755 -0.0156612 0.0697564 

-0.0293114 0.0115725 0.0528315 
-0.0120097 0.00699936 -0.0140299 
-0.00176338 0.000416957 0.0327745 

-0.0450597 0.0573602 0.0165338 
-0.0339771 0.0316526 0.00864156 
-0.00366189 0.00183286 0.0714685 

-0.0313298 -0.0832215 0.033389 
0.0617575 0.00906786 0.0512807 
0.00292603 -0.00262646 0.0506515 

-0.0180357 -0.00434106 -0.139782 
0.00530577 0.00644917 0.0158765 
0.00167736 -0.00030699 0.0104456 

-0.0361726 0.00331603 -0.10198 
0.00648918 0.0107799 0.213548 
0.00219617 -0.00542917 -0.774825 

-0.0409053 -0.0164108 -1.07824 
0.000783744 0.0162565 0.0705772 
-0.00143541 -0.00584394 -0.0250701 

-0.0555865 0.0152612 -2.32073 
-0.0212076 0.0307012 0.194213 
0.00291671 0.00336109 0.109972 

-0.0699348 -0.00958292 -0.0389107 
-0.00807915 0.034912 -0.0749811 
0.0123883 0.0677177 0.563027 

-0.0311616 -0.0151103 -0.139241 
0.00939176 0.0226104 0.279293 
0.00637075 0.00299812 -0.241377 

-0.0545451 -0.00727629 -0.0144699 
-0.00695048 0.0277905 -0.000253048 
-0.00316051 0.00152329 0.00821906 

-0.195424 0.0913244 0.101793 
0.00711555 0.0362726 0.0659676 
-0.0130242 -0.0280068 0.2702 

-0.0376359 -0.000746124 -0.00130094 
-0.0127945 0.00627667 -0.648685 
-0.0101171 0.00906208 0.173612 

-0.0461655 0.0208398 0.0792528 
0.00586932 0.00803553 -0.0349715 
0.00234577 0.00207808 0.0448688 

-0.0399245 -0.00221914 -0.000728943 
-0.00607937 0.00851765 0.0432396 
-0.00515443 0.000569979 0.0190965 

-0.0454167 0.0217632 -0.0275264 
-0.00992304 0.0281613 -0.347795 
0.0147591 0.0253163 1.32292 

-0.0289487 -0.00235149 -0.205729 
-0.00494638 -0.00132715 -0.155416 
-0.00132285 0.000186369 0.0235977 

-0.027027 0.00632493 0.00806531 
-0.000153544 -0.000313706 -0.0213626 
-0.000864273 -0.000161327 0.0232884 

-0.0455772 -0.00163112 0.195497 
-0.0170611 -0.00226535 0.26471 
0.00365318 0.0418103 0.178777 

-0.0429592 0.017732 0.0700426 
-0.0461465 0.00447079 0.141301 
-0.000331308 -0.00214405 0.0266828 

-0.0362182 -0.0156844 -0.340333 
0.0163432 0.0155055 0.0369683 
-0.002471 -0.0037729 0.111592 

-0.0245249 0.0135359 0.049639 
-0.0108348 0.0109353 -0.053097 
0.000925327 0.00315887 0.0190535 

-0.0204373 0.014622 0.00585009 
0.000903725 0.00476436 0.0152692 
-0.00261096 0.00287642 0.0246808 

-0.0405368 -0.0331633 0.00948644 
0.0401723 0.0102401 -0.0556695 
-0.0221356 0.0120605 0.0962226 

-0.0251982 -0.00531364 0.0324192 
0.000662296 0.00422652 0.0909447 
0.00582216 0.00420625 0.0115833 

-0.0373404 0.00658305 -0.024905 
0.00921847 0.0183751 0.0559576 
-0.00461207 -0.0194799 0.217369 

-0.0505335 0.035464 0.105508 
0.00273452 0.0391748 0.274069 
-0.0522715 0.00468391 0.211227 

-0.0223584 0.00260449 -0.0086011 
-0.0119567 0.000346049 -0.0505701 
0.00224245 0.000781004 0.0383759 

-0.0315206 -0.030595 -0.0363204 
0.0305873 0.0133835 -5.86952e-05 
-0.00184796 -0.00251081 0.0623178 

-0.0259723 0.00794513 -0.163504 
-0.00759559 0.00977197 0.74892 
-2.32146e-05 0.00038893 0.0308308 

-0.031463 0.0151151 -0.296484 
-0.0035334 0.0121428 -0.3506 
-0.000675938 -0.000816993 0.225988 

-0.022607 -0.00407815 0.0688759 
0.00840321 0.00195637 0.0495525 
0.00985343 0.0401784 0.00296635 

-0.0367576 0.00107444 0.130184 
-0.0134478 0.0386306 -0.0987899 
0.000187272 -0.000834008 0.0186423 

-0.025779 -0.00661161 -0.0178242 
-0.0068351 0.00486518 -0.000938282 
-0.001497 -0.000702271 0.0307027 

-0.0288019 0.00152052 0.278642 
0.00722565 0.00694526 -0.363865 
-0.0103198 -0.0112064 -0.380745 

-0.0267605 -0.000436599 0.0367162 
-0.00564689 0.0159077 0.0449875 
-0.00348097 -0.000267936 0.0497209 

-0.0423791 0.0109991 -0.0722058 
0.00643088 0.0195483 0.013833 
-0.0205164 0.00773494 0.0863387 

-0.0424716 0.00282022 0.193075 
0.0158912 0.0328298 0.408561 
-0.00357831 0.00216208 -0.0823951 

-0.0772961 0.0258595 0.0164738 
0.0180219 0.00465612 -0.00528146 
-0.000870853 -0.00413502 0.123879 

-0.0337285 -0.0125014 0.0438329 
-0.0116523 0.0237241 -0.0593181 
-0.00152773 0.000976434 0.0152971 

-0.0285857 0.000358604 0.00852994 
0.00559862 0.0244947 -0.139228 
0.000828089 0.00171273 0.0400422 

-0.0517009 0.0294919 -0.0392199 
-0.00945896 0.0162879 0.00395486 
-0.0127897 0.0345393 0.181224 

-0.0227022 0.0161197 0.135337 
-0.0219405 0.00971872 -0.135446 
0.00388516 0.000950207 0.0530145 

-0.0410965 -0.0202987 -0.0218012 
-0.00150113 0.0238085 0.00722533 
0.000610254 0.00202333 0.0268067 

-0.0117536 -0.0369911 0.0214585 
0.0245432 -0.0085981 0.056715 
0.00665207 -0.0115174 0.0914321 

-0.0565896 0.00462346 0.0870797 
0.010421 0.0165207 0.0899438 
-9.01846e-05 -0.0158473 0.0862525 

-0.0147541 -0.0298835 0.038475 
0.0224637 0.00486738 0.0148232 
0.0082416 -0.00358037 0.0540748 

-0.0436125 -0.0164328 0.0770896 
0.0156486 0.0166761 -0.004749 
-0.00743871 0.0224911 0.164322 

-0.0460264 -0.0407216 -0.132934 
0.00853129 0.0357483 0.246266 
-0.000431655 0.0187533 -0.108249 

-0.0211244 -0.0124382 -0.139608 
-0.00415101 0.0177518 0.0724358 
0.0396749 0.00689115 0.130032 

-0.0642834 -0.0914783 -0.127088 
0.130319 0.0355333 -0.0692353 
-0.00558345 0.0142278 0.103465 

-0.114512 0.0110646 0.259818 
-0.0253348 -0.0131067 -0.0265845 
-0.00517905 0.00830517 0.161427 

-0.0277947 0.00359106 -0.183491 
-0.0112219 0.0141155 0.33919 
0.00128644 -0.000957034 -0.0106395 

-0.0453352 0.0198306 -0.0527167 
-0.0174048 0.0273908 -0.115245 
-0.0191547 -0.00415582 0.14181 

-0.0819551 0.0201639 0.31243 
-0.0197746 0.06988 -0.235982 
-0.000864924 6.61478e-05 -0.0127871 

-0.0411027 -0.0228014 -0.495961 
0.0085878 0.0285128 0.547312 
0.0153615 0.00784848 -0.223102 

-0.0664038 -0.0110654 0.055069 
0.0135873 0.00603946 -0.00466383 
0.001387 -0.00318236 0.0538816 

-0.0367571 -0.0230318 0.0742876 
0.00680264 0.0163113 -0.0757532 
0.000391635 0.00123367 0.0362105 

-0.0697524 0.000881646 -0.00793463 
-0.0213419 0.0463483 0.150146 
-0.0209033 -0.046806 0.260437 

-0.0259715 0.00797989 0.0627671 
0.000951352 0.00199524 -0.00412841 
-0.00343196 -0.00659241 0.048385 

-0.0496915 -0.0249192 -0.0214175 
0.0111235 0.011718 0.0301324 
-0.0173005 0.0248651 0.191195 

-0.0524426 -0.018947 0.810999 
-0.00323772 0.0469453 -0.922963 
0.00209912 0.000535511 0.0932157 

-0.0275108 -0.0074717 -2.39082 
-0.0045405 0.0131239 -1.10162 
-0.00129283 -0.000837209 -0.0443013 

-0.0400941 -0.0253159 -0.155249 
0.00539426 0.0280095 0.159092 
0.000943819 0.00833562 0.104801 

-0.0409766 0.0166682 -0.286387 
-0.00084244 0.00989898 0.0199218 
0.00170761 -0.000857175 0.0279978 

-0.042118 0.0239575 -0.0623813 
-0.00937708 0.0197029 1.17335 
0.0163013 0.0163376 0.280626 

-0.0335449 -0.0258572 0.0343932 
-0.0107232 0.010774 0.0503777 
-0.00144078 -0.00287715 0.0231671 

-0.027664 -0.0107288 0.0104042 
-0.00423086 0.00516282 -0.00388247 
0.00384363 0.00245753 0.0328818 

-0.0518892 0.033338 0.119265 
-0.0030059 0.102532 -0.892747 
-0.00554924 0.00539426 -0.536913 

-0.0798324 -0.0309386 -0.00873869 
-0.00406882 0.0301432 0.169867 
-0.00498128 -0.0745879 1.21038 

-0.224759 0.0505035 0.0323642 
-0.0546674 0.0101261 0.105878 
0.006897 0.00292802 0.216412 

-0.0205538 0.0252987 -0.0139739 
-0.0268033 -0.000887586 -0.0272808 
-0.000594189 0.00154521 0.0303421 

-0.0208082 -0.00662353 -0.0587074 
-0.0286008 0.00283375 0.0211997 
0.000491135 0.00490884 0.119405 

-0.0245513 0.0116816 -0.00408662 
-0.00100295 0.0115925 -0.0148412 
-0.00350891 0.00327875 0.0327762 

-0.0313157 0.00939494 -0.0119039 
-0.00698808 0.0205234 0.128242 
0.00516668 0.00476707 -0.0044061 

-0.01644 0.00835556 0.020859 
-0.00836692 0.0111167 -0.0608804 
-0.000753164 -0.000734154 -0.000549973 

-0.018568 -0.0127477 -0.0970643 
-0.000648504 0.0136432 -0.014796 
0.0325625 0.0350801 0.509556 

-0.0762849 0.00459007 0.100714 
0.0266048 0.0415593 0.0634809 
-0.0043889 0.0131175 0.0352271 

-0.0379282 0.000247408 -0.0443263 
-0.0105444 0.00833258 0.0655932 
0.000291939 -0.000226289 0.0554157 

-0.0336063 0.00520936 -0.063692 
-0.00804926 -0.000334403 -0.0237209 
-0.0153983 -0.0317299 0.0646036 

-0.0278897 -0.00438448 0.0235469 
-0.0151371 0.00839195 -0.00139272 
-0.00241532 0.000888563 0.0769096 

-0.0972003 -0.0308744 0.0804175 
0.049948 0.0296671 0.0424895 
-0.00711164 -0.0464213 0.0983505 

-0.0384282 -0.0163559 0.0391198 
-0.0254993 0.00636676 -0.0260977 
0.00732507 0.00265904 0.0474487 

-0.0330517 -0.0149197 0.108352 
-0.0143831 0.0249127 0.152364 
-0.00201617 0.016267 0.0249202 

-0.058526 0.0220875 -0.0523595 
-0.00598147 0.0159316 -0.0148966 
-0.00701175 -0.00524323 0.0140069 

-0.0118765 0.00848846 -0.131008 
0.00882268 0.0124896 -0.0544291 
0.0108422 0.0194354 0.075237 

-0.0309726 0.0140511 0.110118 
-0.0484571 0.000874572 -0.0378246 
-0.00163484 0.00344504 0.0449641 

-0.025627 -0.0113264 0.0469652 
7.8725e-05 0.00765899 -0.0294981 
-0.00140294 -0.00103173 0.0111002 

-0.033445 0.0032542 -0.488847 
-0.00185546 0.0160002 0.595184 
-0.000556341 0.00116677 -0.0407151 

-0.0752294 -0.00510412 0.0304668 
0.0121564 0.0448633 -0.113467 
0.0634934 0.0591988 0.345017 

-0.0304543 -0.00402155 0.0348984 
0.00368063 0.00833859 0.0213239 
0.00322646 -0.00279441 -0.000842073 

-0.039145 0.000253054 0.160843 
-0.00927706 0.0209893 0.206456 
-0.00266449 0.00414232 0.0183506 

-0.0561141 -0.00880838 -0.0709955 
0.0201332 0.0175997 -0.0815401 
0.00843024 -0.0365845 0.11636 

-0.0304874 -0.00587586 -0.0439729 
-0.0147229 0.0194121 0.0221643 
-0.000989821 0.0065285 0.0571945 

-0.0935147 -0.00413469 0.106356 
0.00816845 0.0313677 -0.07265 
0.0102804 -0.00927986 0.04789 

-0.026053 0.00830986 0.0245968 
-0.00642106 -0.00469431 0.0335616 
0.0149191 0.0173087 -0.107317 

-0.0453302 -0.0403582 0.00286482 
0.0395601 0.0143705 -0.0128988 
0.000105994 0.00146008 0.0183225 

-0.0440842 -0.0153101 -0.0223991 
0.0258496 -0.00632635 -0.290955 
-0.00524715 0.00180464 0.0627921 

-0.0552956 -0.030375 0.0237192 
-0.000742698 0.0504695 -0.573912 
-0.00241315 0.000217256 -0.0146633 

-0.0330182 0.0106673 -0.0391831 
-0.0195111 -0.00127826 -0.0853808 
-0.000174758 -0.00053114 0.07739 

-0.0327701 0.0170934 -0.119462 
-0.00829514 0.0212455 -0.083744 
0.0039311 -0.0207965 -0.0908089 

-0.029771 0.0461976 0.0214205 
-0.0287578 0.0337215 -0.0246873 
-0.0294887 -0.0175464 -0.088606 

-0.0345952 -0.0294412 -0.110512 
-0.0312678 0.0108513 -0.136038 
-0.000105148 -0.0660238 0.36259 

-0.0466406 -0.012209 -0.0636052 
-0.00592456 0.0248346 0.0532294 
0.000194901 0.00188181 0.0170057 

-0.0414629 0.0346972 -0.145187 
-0.00617161 0.0255582 -0.199893 